    -----------------------------------------------------------------------
          Psi4: An Open-Source Ab Initio Electronic Structure Package
                              Psi4 1.0.0 Driver

                          Git: Rev {master} 6a9a71b dirty

    J. M. Turney, A. C. Simmonett, R. M. Parrish, E. G. Hohenstein,
    F. A. Evangelista, J. T. Fermann, B. J. Mintz, L. A. Burns, J. J. Wilke,
    M. L. Abrams, N. J. Russ, M. L. Leininger, C. L. Janssen, E. T. Seidl,
    W. D. Allen, H. F. Schaefer, R. A. King, E. F. Valeev, C. D. Sherrill,
    and T. D. Crawford, WIREs Comput. Mol. Sci. 2, 556-565 (2012)
    (doi: 10.1002/wcms.93)

                         Additional Contributions by
    A. E. DePrince, U. Bozkaya, A. Yu. Sokolov, D. G. A. Smith, R. Di Remigio,
    R. M. Richard, J. F. Gonthier, H. R. McAlexander, M. Saitow, and
    B. P. Pritchard
    -----------------------------------------------------------------------


    Psi4 started on: Tue Sep 20 22:40:02 2016

    Process ID:  31679
    PSI4DATADIR: /usr/local/hpc5/psi4conda/share/psi4
    Memory level set to 256.000 MB

  ==> Input File <==

--------------------------------------------------------------------------
memory 60 Gb

molecule molecule_39_psi {
0 1
C           -2.887586227812    -1.318715398888    -0.375460500403
H           -1.999772622562    -1.908532328032    -0.150193605009
H           -2.921390487448    -1.165263598065    -1.455513403569
H           -3.757089101558    -1.912571848794    -0.094707903040
C            2.362038874056    -1.649128833640     0.387488525331
H            2.956477180767    -1.573974817820     1.299048141188
H            2.654527581587    -2.564979924803    -0.126655342176
H            1.318799231490    -1.747867031129     0.682968741370
C           -2.874146698655     0.019011426309     0.356852018849
H           -2.797893561934    -0.153139173417     1.434062710328
H           -3.826371918634     0.527854190397     0.191364205353
C            2.588954843934    -0.422397226003    -0.492326291543
H            3.648246136233    -0.379773637363    -0.752809717383
H            2.048659079049    -0.535443976782    -1.436887560297
C           -1.736487395511     0.937518860703    -0.083417685293
H           -1.840587071242     1.905272769223     0.415544859233
H           -1.824727285957     1.131129734605    -1.157694464180
C           -0.347812396390     0.381179266208     0.210474936329
H           -0.207822722742    -0.555940359720    -0.331535254983
H           -0.272211307372     0.143784437986     1.277518811551
C            0.756989359260     1.358359037208    -0.173462061691
H            0.700232416178     1.546914268300    -1.250628616561
H            0.565101800266     2.317291339170     0.317334373109
C            2.173387820642     0.898643231262     0.170701110514
H            2.865180840527     1.689209447142    -0.128125037114
H            2.269876163776     0.801436924084     1.256787637533
}

set globals {
  reference rhf
  g_convergence gau_verytight
  basis aug-cc-pvtz
  freeze_core true
  scf_type df
  mp_type df
}
optimize('mp2')
--------------------------------------------------------------------------
/usr/local/hpc5/psi4conda/lib/python2.7/site-packages/v2rdm_casscf/v2rdm_casscf.so loaded.

  Memory set to  60.000 GiB by Python script.
gradient() will perform analytic gradient computation.

*** tstart() called on wr29
*** at Tue Sep 20 22:40:03 2016


         ---------------------------------------------------------
                                   SCF
            by Justin Turney, Rob Parrish, and Andy Simmonett
                              RHF Reference
                       12 Threads,  60000 MiB Core
         ---------------------------------------------------------

  ==> Geometry <==

    Molecular point group: c1
    Full point group: C1

    Geometry (in Angstrom), charge = 0, multiplicity = 1:

       Center              X                  Y                   Z               Mass       
    ------------   -----------------  -----------------  -----------------  -----------------
           C         -2.887586227812    -1.318715398888    -0.375460500403    12.000000000000
           H         -1.999772622562    -1.908532328032    -0.150193605009     1.007825032070
           H         -2.921390487448    -1.165263598065    -1.455513403569     1.007825032070
           H         -3.757089101558    -1.912571848794    -0.094707903040     1.007825032070
           C          2.362038874056    -1.649128833640     0.387488525331    12.000000000000
           H          2.956477180767    -1.573974817820     1.299048141188     1.007825032070
           H          2.654527581587    -2.564979924803    -0.126655342176     1.007825032070
           H          1.318799231490    -1.747867031129     0.682968741370     1.007825032070
           C         -2.874146698655     0.019011426309     0.356852018849    12.000000000000
           H         -2.797893561934    -0.153139173417     1.434062710328     1.007825032070
           H         -3.826371918634     0.527854190397     0.191364205353     1.007825032070
           C          2.588954843934    -0.422397226003    -0.492326291543    12.000000000000
           H          3.648246136233    -0.379773637363    -0.752809717383     1.007825032070
           H          2.048659079049    -0.535443976782    -1.436887560297     1.007825032070
           C         -1.736487395511     0.937518860703    -0.083417685293    12.000000000000
           H         -1.840587071242     1.905272769223     0.415544859233     1.007825032070
           H         -1.824727285957     1.131129734605    -1.157694464180     1.007825032070
           C         -0.347812396390     0.381179266208     0.210474936329    12.000000000000
           H         -0.207822722742    -0.555940359720    -0.331535254983     1.007825032070
           H         -0.272211307372     0.143784437986     1.277518811551     1.007825032070
           C          0.756989359260     1.358359037208    -0.173462061691    12.000000000000
           H          0.700232416178     1.546914268300    -1.250628616561     1.007825032070
           H          0.565101800266     2.317291339170     0.317334373109     1.007825032070
           C          2.173387820642     0.898643231262     0.170701110514    12.000000000000
           H          2.865180840527     1.689209447142    -0.128125037114     1.007825032070
           H          2.269876163776     0.801436924084     1.256787637533     1.007825032070

  Running in c1 symmetry.

  Rotational constants: A =      0.10342  B =      0.02913  C =      0.02437 [cm^-1]
  Rotational constants: A =   3100.45606  B =    873.32750  C =    730.50098 [MHz]
  Nuclear repulsion =  395.221459182534090

  Charge       = 0
  Multiplicity = 1
  Electrons    = 66
  Nalpha       = 33
  Nbeta        = 33

  ==> Algorithm <==

  SCF Algorithm Type is DF.
  DIIS enabled.
  MOM disabled.
  Fractional occupation disabled.
  Guess Type is SAD.
  Energy threshold   = 1.00e-10
  Density threshold  = 1.00e-10
  Integral threshold = 0.00e+00

  ==> Primary Basis <==

  Basis Set: AUG-CC-PVTZ
    Number of shells: 274
    Number of basis function: 782
    Number of Cartesian functions: 890
    Spherical Harmonics?: true
    Max angular momentum: 3

  ==> Pre-Iterations <==

   -------------------------------------------------------
    Irrep   Nso     Nmo     Nalpha   Nbeta   Ndocc  Nsocc
   -------------------------------------------------------
     A        782     782       0       0       0       0
   -------------------------------------------------------
    Total     782     782      33      33      33       0
   -------------------------------------------------------

  ==> Integral Setup <==

  ==> DFJK: Density-Fitted J/K Matrices <==

    J tasked:                  Yes
    K tasked:                  Yes
    wK tasked:                  No
    OpenMP threads:             12
    Integrals threads:          12
    Memory (MB):             42915
    Algorithm:                Core
    Integral Cache:           NONE
    Schwarz Cutoff:          1E-12
    Fitting Condition:       1E-12

   => Auxiliary Basis Set <=

  Basis Set: 
    Number of shells: 492
    Number of basis function: 1660
    Number of Cartesian functions: 2038
    Spherical Harmonics?: true
    Max angular momentum: 4

  Minimum eigenvalue in the overlap matrix is 2.1135069509E-06.
  Using Symmetric Orthogonalization.
  SCF Guess: Superposition of Atomic Densities via on-the-fly atomic UHF.

  ==> Iterations <==

                           Total Energy        Delta E     RMS |[F,P]|

   @DF-RHF iter   0:  -317.03656641412351   -3.17037e+02   7.04497e-03 
   @DF-RHF iter   1:  -313.29910240866889    3.73746e+00   7.14862e-04 
   @DF-RHF iter   2:  -313.50432159941818   -2.05219e-01   2.78839e-04 DIIS
   @DF-RHF iter   3:  -313.53340976948436   -2.90882e-02   1.02686e-04 DIIS
   @DF-RHF iter   4:  -313.53876076395909   -5.35099e-03   1.45414e-05 DIIS
   @DF-RHF iter   5:  -313.53890877567517   -1.48012e-04   4.15190e-06 DIIS
   @DF-RHF iter   6:  -313.53891825532583   -9.47965e-06   1.24371e-06 DIIS
   @DF-RHF iter   7:  -313.53891908396020   -8.28634e-07   2.28120e-07 DIIS
   @DF-RHF iter   8:  -313.53891912322320   -3.92630e-08   5.42910e-08 DIIS
   @DF-RHF iter   9:  -313.53891912535460   -2.13140e-09   1.81560e-08 DIIS
   @DF-RHF iter  10:  -313.53891912557322   -2.18620e-10   5.30608e-09 DIIS
   @DF-RHF iter  11:  -313.53891912559152   -1.83036e-11   1.33563e-09 DIIS
   @DF-RHF iter  12:  -313.53891912559322   -1.70530e-12   3.84147e-10 DIIS
   @DF-RHF iter  13:  -313.53891912559300    2.27374e-13   1.03385e-10 DIIS
   @DF-RHF iter  14:  -313.53891912559311   -1.13687e-13   2.65808e-11 DIIS

  ==> Post-Iterations <==

    Orbital Energies (a.u.)
    -----------------------

    Doubly Occupied:                                                      

       1A    -11.213033     2A    -11.212870     3A    -11.210877  
       4A    -11.210391     5A    -11.210250     6A    -11.208914  
       7A    -11.206974     8A    -11.206083     9A     -1.093783  
      10A     -1.060059    11A     -1.007010    12A     -0.948907  
      13A     -0.886340    14A     -0.828211    15A     -0.777405  
      16A     -0.768695    17A     -0.647930    18A     -0.622117  
      19A     -0.611482    20A     -0.591981    21A     -0.588100  
      22A     -0.558226    23A     -0.544365    24A     -0.521603  
      25A     -0.516595    26A     -0.509997    27A     -0.483608  
      28A     -0.474130    29A     -0.464047    30A     -0.460957  
      31A     -0.453304    32A     -0.439979    33A     -0.429077  

    Virtual:                                                              

      34A      0.028760    35A      0.032239    36A      0.034194  
      37A      0.036432    38A      0.046231    39A      0.047138  
      40A      0.051175    41A      0.052808    42A      0.055799  
      43A      0.066562    44A      0.069035    45A      0.070734  
      46A      0.073199    47A      0.077196    48A      0.085432  
      49A      0.091942    50A      0.101266    51A      0.102318  
      52A      0.111668    53A      0.115239    54A      0.118499  
      55A      0.125559    56A      0.128155    57A      0.132789  
      58A      0.133837    59A      0.135995    60A      0.138289  
      61A      0.146185    62A      0.149621    63A      0.151309  
      64A      0.155339    65A      0.157173    66A      0.159436  
      67A      0.166897    68A      0.169666    69A      0.171088  
      70A      0.176666    71A      0.178138    72A      0.183300  
      73A      0.188503    74A      0.194358    75A      0.196305  
      76A      0.205523    77A      0.211544    78A      0.217525  
      79A      0.222965    80A      0.226210    81A      0.238064  
      82A      0.245279    83A      0.253093    84A      0.254577  
      85A      0.266279    86A      0.270691    87A      0.278086  
      88A      0.281651    89A      0.290191    90A      0.296650  
      91A      0.298452    92A      0.307062    93A      0.311070  
      94A      0.311660    95A      0.316235    96A      0.319799  
      97A      0.326600    98A      0.328918    99A      0.329721  
     100A      0.337947   101A      0.341338   102A      0.345619  
     103A      0.349223   104A      0.355167   105A      0.358393  
     106A      0.358887   107A      0.363668   108A      0.367296  
     109A      0.369242   110A      0.371733   111A      0.372982  
     112A      0.379892   113A      0.381782   114A      0.387868  
     115A      0.390659   116A      0.392467   117A      0.399615  
     118A      0.402219   119A      0.406831   120A      0.408365  
     121A      0.411813   122A      0.415917   123A      0.422724  
     124A      0.426838   125A      0.430967   126A      0.434555  
     127A      0.437902   128A      0.444512   129A      0.448163  
     130A      0.450003   131A      0.454856   132A      0.460317  
     133A      0.462940   134A      0.471009   135A      0.473565  
     136A      0.474894   137A      0.480411   138A      0.481662  
     139A      0.485297   140A      0.489966   141A      0.491295  
     142A      0.493129   143A      0.499093   144A      0.501600  
     145A      0.506429   146A      0.509216   147A      0.510985  
     148A      0.514901   149A      0.520802   150A      0.526115  
     151A      0.530013   152A      0.535801   153A      0.539700  
     154A      0.546133   155A      0.551380   156A      0.554883  
     157A      0.561797   158A      0.563071   159A      0.568168  
     160A      0.571689   161A      0.579062   162A      0.580657  
     163A      0.587423   164A      0.590718   165A      0.593537  
     166A      0.596727   167A      0.600876   168A      0.612382  
     169A      0.617095   170A      0.617944   171A      0.622704  
     172A      0.625001   173A      0.627371   174A      0.635944  
     175A      0.640127   176A      0.646111   177A      0.657915  
     178A      0.659637   179A      0.662000   180A      0.665095  
     181A      0.670366   182A      0.675252   183A      0.678567  
     184A      0.680461   185A      0.686395   186A      0.689791  
     187A      0.695373   188A      0.702212   189A      0.707588  
     190A      0.715042   191A      0.723070   192A      0.727616  
     193A      0.732911   194A      0.745055   195A      0.751708  
     196A      0.754888   197A      0.761263   198A      0.773380  
     199A      0.779489   200A      0.786961   201A      0.803953  
     202A      0.809769   203A      0.819497   204A      0.825606  
     205A      0.838019   206A      0.842679   207A      0.847402  
     208A      0.852832   209A      0.856341   210A      0.858655  
     211A      0.862952   212A      0.869357   213A      0.875779  
     214A      0.883862   215A      0.891035   216A      0.891303  
     217A      0.897532   218A      0.903653   219A      0.905734  
     220A      0.913885   221A      0.917315   222A      0.918958  
     223A      0.925120   224A      0.929847   225A      0.931245  
     226A      0.941644   227A      0.943803   228A      0.948319  
     229A      0.952357   230A      0.962738   231A      0.967991  
     232A      0.970176   233A      0.978142   234A      0.984035  
     235A      0.987678   236A      0.992129   237A      0.998163  
     238A      1.002440   239A      1.006536   240A      1.016268  
     241A      1.018780   242A      1.023203   243A      1.024840  
     244A      1.035624   245A      1.040686   246A      1.043439  
     247A      1.046319   248A      1.054226   249A      1.060247  
     250A      1.065171   251A      1.070131   252A      1.072565  
     253A      1.076311   254A      1.081421   255A      1.094404  
     256A      1.096136   257A      1.106093   258A      1.106568  
     259A      1.109586   260A      1.124060   261A      1.128683  
     262A      1.134825   263A      1.138105   264A      1.141554  
     265A      1.147121   266A      1.151959   267A      1.156653  
     268A      1.161490   269A      1.174835   270A      1.176164  
     271A      1.179987   272A      1.188094   273A      1.189144  
     274A      1.196581   275A      1.199860   276A      1.205035  
     277A      1.206854   278A      1.212095   279A      1.213792  
     280A      1.219456   281A      1.227911   282A      1.235119  
     283A      1.238000   284A      1.244204   285A      1.251204  
     286A      1.253513   287A      1.256381   288A      1.264256  
     289A      1.270974   290A      1.274767   291A      1.283878  
     292A      1.286783   293A      1.296835   294A      1.308143  
     295A      1.308704   296A      1.310895   297A      1.321212  
     298A      1.329111   299A      1.333733   300A      1.337743  
     301A      1.344050   302A      1.352176   303A      1.353406  
     304A      1.356291   305A      1.369516   306A      1.373505  
     307A      1.375902   308A      1.382133   309A      1.387768  
     310A      1.398053   311A      1.406535   312A      1.415365  
     313A      1.420906   314A      1.429722   315A      1.433163  
     316A      1.437948   317A      1.440743   318A      1.449112  
     319A      1.454789   320A      1.468913   321A      1.475472  
     322A      1.483464   323A      1.488893   324A      1.494815  
     325A      1.505620   326A      1.511885   327A      1.528205  
     328A      1.535161   329A      1.540392   330A      1.546190  
     331A      1.555521   332A      1.559427   333A      1.570812  
     334A      1.579473   335A      1.583834   336A      1.591944  
     337A      1.598990   338A      1.609167   339A      1.617262  
     340A      1.627244   341A      1.632696   342A      1.633681  
     343A      1.638537   344A      1.646261   345A      1.654393  
     346A      1.665439   347A      1.666836   348A      1.674930  
     349A      1.680320   350A      1.690158   351A      1.692118  
     352A      1.702147   353A      1.703831   354A      1.707388  
     355A      1.712977   356A      1.721757   357A      1.727511  
     358A      1.732220   359A      1.737433   360A      1.739925  
     361A      1.748745   362A      1.751128   363A      1.761922  
     364A      1.770545   365A      1.771827   366A      1.777770  
     367A      1.780544   368A      1.795190   369A      1.798171  
     370A      1.802563   371A      1.809499   372A      1.811122  
     373A      1.814990   374A      1.826772   375A      1.834697  
     376A      1.838991   377A      1.846325   378A      1.849392  
     379A      1.855189   380A      1.863425   381A      1.866125  
     382A      1.872305   383A      1.882106   384A      1.884893  
     385A      1.888209   386A      1.901476   387A      1.906802  
     388A      1.919437   389A      1.924919   390A      1.928565  
     391A      1.936037   392A      1.950023   393A      1.956925  
     394A      1.958982   395A      1.965867   396A      1.968358  
     397A      1.975317   398A      1.979372   399A      1.992398  
     400A      2.006470   401A      2.012741   402A      2.016927  
     403A      2.019511   404A      2.020008   405A      2.031499  
     406A      2.038492   407A      2.044222   408A      2.048240  
     409A      2.057210   410A      2.059405   411A      2.068401  
     412A      2.074187   413A      2.083019   414A      2.091193  
     415A      2.098858   416A      2.106123   417A      2.117837  
     418A      2.119976   419A      2.130763   420A      2.133568  
     421A      2.140780   422A      2.156622   423A      2.165358  
     424A      2.179151   425A      2.179914   426A      2.198333  
     427A      2.205766   428A      2.210304   429A      2.218952  
     430A      2.232549   431A      2.245090   432A      2.250051  
     433A      2.254017   434A      2.271492   435A      2.281679  
     436A      2.286628   437A      2.292249   438A      2.302375  
     439A      2.307830   440A      2.313783   441A      2.328860  
     442A      2.335019   443A      2.339265   444A      2.342965  
     445A      2.358069   446A      2.360053   447A      2.369648  
     448A      2.383150   449A      2.388123   450A      2.395015  
     451A      2.403845   452A      2.412140   453A      2.431775  
     454A      2.432488   455A      2.438363   456A      2.442809  
     457A      2.451549   458A      2.475770   459A      2.481362  
     460A      2.494659   461A      2.508324   462A      2.514649  
     463A      2.527756   464A      2.530949   465A      2.532647  
     466A      2.558627   467A      2.569393   468A      2.578406  
     469A      2.592308   470A      2.596704   471A      2.607970  
     472A      2.620617   473A      2.630858   474A      2.642537  
     475A      2.649517   476A      2.672355   477A      2.677789  
     478A      2.709048   479A      2.737314   480A      2.787232  
     481A      2.796937   482A      2.833883   483A      2.848394  
     484A      2.903586   485A      2.921611   486A      2.953771  
     487A      2.983408   488A      3.013918   489A      3.052700  
     490A      3.128093   491A      3.171691   492A      3.202940  
     493A      3.282512   494A      3.329734   495A      3.339585  
     496A      3.401435   497A      3.425493   498A      3.440242  
     499A      3.458719   500A      3.470858   501A      3.475140  
     502A      3.493455   503A      3.511747   504A      3.528776  
     505A      3.537648   506A      3.550593   507A      3.563156  
     508A      3.576236   509A      3.587816   510A      3.598299  
     511A      3.601573   512A      3.628611   513A      3.635420  
     514A      3.644422   515A      3.651410   516A      3.667272  
     517A      3.680389   518A      3.683810   519A      3.697577  
     520A      3.699074   521A      3.707554   522A      3.717889  
     523A      3.732561   524A      3.735076   525A      3.748334  
     526A      3.754606   527A      3.761684   528A      3.769626  
     529A      3.775720   530A      3.782698   531A      3.784601  
     532A      3.801857   533A      3.811894   534A      3.816035  
     535A      3.833880   536A      3.841490   537A      3.845906  
     538A      3.855275   539A      3.863514   540A      3.869571  
     541A      3.873437   542A      3.877777   543A      3.883933  
     544A      3.892946   545A      3.898209   546A      3.912734  
     547A      3.917841   548A      3.920044   549A      3.935288  
     550A      3.939706   551A      3.946201   552A      3.955685  
     553A      3.968157   554A      3.972884   555A      3.987058  
     556A      3.990274   557A      4.001489   558A      4.004010  
     559A      4.011028   560A      4.015525   561A      4.025795  
     562A      4.031493   563A      4.044790   564A      4.050882  
     565A      4.053423   566A      4.059119   567A      4.066390  
     568A      4.078646   569A      4.084080   570A      4.088660  
     571A      4.095980   572A      4.098957   573A      4.117964  
     574A      4.123997   575A      4.126803   576A      4.131527  
     577A      4.138723   578A      4.152527   579A      4.166970  
     580A      4.171959   581A      4.184780   582A      4.192940  
     583A      4.214789   584A      4.226672   585A      4.228154  
     586A      4.237292   587A      4.243893   588A      4.257288  
     589A      4.267476   590A      4.277053   591A      4.282179  
     592A      4.287774   593A      4.301894   594A      4.310214  
     595A      4.319758   596A      4.324910   597A      4.337551  
     598A      4.356546   599A      4.370334   600A      4.372986  
     601A      4.389031   602A      4.400140   603A      4.404488  
     604A      4.421153   605A      4.436693   606A      4.444974  
     607A      4.458285   608A      4.467480   609A      4.478691  
     610A      4.486536   611A      4.498620   612A      4.503880  
     613A      4.528615   614A      4.537741   615A      4.545809  
     616A      4.555602   617A      4.579322   618A      4.599874  
     619A      4.603493   620A      4.623293   621A      4.633899  
     622A      4.639693   623A      4.653950   624A      4.668521  
     625A      4.671227   626A      4.678663   627A      4.700632  
     628A      4.707757   629A      4.730503   630A      4.731515  
     631A      4.749495   632A      4.758800   633A      4.763557  
     634A      4.786241   635A      4.790389   636A      4.795385  
     637A      4.809616   638A      4.831350   639A      4.841033  
     640A      4.852339   641A      4.854060   642A      4.866344  
     643A      4.871903   644A      4.884742   645A      4.893397  
     646A      4.907497   647A      4.912313   648A      4.920366  
     649A      4.932984   650A      4.938841   651A      4.958145  
     652A      4.973615   653A      4.978249   654A      4.982037  
     655A      4.992192   656A      5.004440   657A      5.025674  
     658A      5.033167   659A      5.058346   660A      5.069331  
     661A      5.072760   662A      5.079735   663A      5.098628  
     664A      5.114558   665A      5.117568   666A      5.133236  
     667A      5.144101   668A      5.148744   669A      5.159851  
     670A      5.169991   671A      5.194487   672A      5.197883  
     673A      5.206580   674A      5.211376   675A      5.225989  
     676A      5.235627   677A      5.253879   678A      5.273356  
     679A      5.278604   680A      5.283401   681A      5.302323  
     682A      5.314789   683A      5.330892   684A      5.334541  
     685A      5.358178   686A      5.363147   687A      5.371171  
     688A      5.373591   689A      5.386603   690A      5.404704  
     691A      5.415935   692A      5.423773   693A      5.431342  
     694A      5.438002   695A      5.447002   696A      5.469590  
     697A      5.477696   698A      5.487019   699A      5.491294  
     700A      5.501263   701A      5.520258   702A      5.530210  
     703A      5.537551   704A      5.560475   705A      5.569239  
     706A      5.591964   707A      5.598590   708A      5.605129  
     709A      5.617049   710A      5.641684   711A      5.649741  
     712A      5.665316   713A      5.674460   714A      5.679530  
     715A      5.681141   716A      5.693623   717A      5.713318  
     718A      5.719715   719A      5.720858   720A      5.750952  
     721A      5.760160   722A      5.770315   723A      5.788903  
     724A      5.801905   725A      5.831035   726A      5.835485  
     727A      5.848517   728A      5.870537   729A      5.887770  
     730A      5.895565   731A      5.923724   732A      5.957949  
     733A      5.985794   734A      6.007341   735A      6.031324  
     736A      6.044302   737A      6.065056   738A      6.073985  
     739A      6.089216   740A      6.120501   741A      6.128011  
     742A      6.150767   743A      6.187731   744A      6.195897  
     745A      6.233262   746A      6.253873   747A      6.255027  
     748A      6.265737   749A      6.285945   750A      6.310646  
     751A      6.320609   752A      6.332378   753A      6.345403  
     754A      6.366974   755A      6.381516   756A      6.391245  
     757A      6.414716   758A      6.437836   759A      6.597640  
     760A      6.617226   761A      6.647051   762A      6.690746  
     763A      6.734061   764A      6.786232   765A      6.824290  
     766A      6.855226   767A      6.859957   768A      6.917836  
     769A      6.928731   770A      6.962377   771A      6.991164  
     772A      7.027751   773A      7.060728   774A      7.133980  
     775A     17.837935   776A     18.140188   777A     18.331015  
     778A     18.459470   779A     18.836627   780A     18.977653  
     781A     19.286029   782A     19.867344  

    Final Occupation by Irrep:
              A 
    DOCC [    33 ]

  Energy converged.

  @DF-RHF Final Energy:  -313.53891912559311

   => Energetics <=

    Nuclear Repulsion Energy =            395.2214591825340904
    One-Electron Energy =               -1205.5861523270702946
    Two-Electron Energy =                 496.8257740189428660
    DFT Exchange-Correlation Energy =       0.0000000000000000
    Empirical Dispersion Energy =           0.0000000000000000
    PCM Polarization Energy =               0.0000000000000000
    EFP Energy =                            0.0000000000000000
    Total Energy =                       -313.5389191255933383


  Saving occupied orbitals to File 180.

*** tstop() called on wr29 at Tue Sep 20 22:41:35 2016
Module time:
	user time   =     997.73 seconds =      16.63 minutes
	system time =      12.44 seconds =       0.21 minutes
	total time  =         92 seconds =       1.53 minutes
Total time:
	user time   =     997.73 seconds =      16.63 minutes
	system time =      12.44 seconds =       0.21 minutes
	total time  =         92 seconds =       1.53 minutes


Properties will be evaluated at   0.000000,   0.000000,   0.000000 Bohr

Properties computed using the SCF density matrix

  Nuclear Dipole Moment: (a.u.)
     X:    -0.3945      Y:    -2.2824      Z:    -0.0095

  Electronic Dipole Moment: (a.u.)
     X:     0.3951      Y:     2.3210      Z:     0.0059

  Dipole Moment: (a.u.)
     X:     0.0006      Y:     0.0387      Z:    -0.0036     Total:     0.0389

  Dipole Moment: (Debye)
     X:     0.0016      Y:     0.0983      Z:    -0.0091     Total:     0.0988


  //>>>>>>>>>>>>>>>>>>>>>>>>>>>>>>>>>>>//
  //               DFMP2               //
  //<<<<<<<<<<<<<<<<<<<<<<<<<<<<<<<<<<<//


*** tstart() called on wr29
*** at Tue Sep 20 22:41:35 2016


*** tstop() called on wr29 at Tue Sep 20 22:41:36 2016
Module time:
	user time   =       2.96 seconds =       0.05 minutes
	system time =       0.17 seconds =       0.00 minutes
	total time  =          1 seconds =       0.02 minutes
Total time:
	user time   =    1000.85 seconds =      16.68 minutes
	system time =      12.61 seconds =       0.21 minutes
	total time  =         93 seconds =       1.55 minutes
	 --------------------------------------------------------
	                          DF-MP2                         
	      2nd-Order Density-Fitted Moller-Plesset Theory     
	              RMP2 Wavefunction,  12 Threads             
	                                                         
	        Rob Parrish, Justin Turney, Andy Simmonett,      
	           Ed Hohenstein, and C. David Sherrill          
	 --------------------------------------------------------

   => Auxiliary Basis Set <=

  Basis Set: 
    Number of shells: 476
    Number of basis function: 1676
    Number of Cartesian functions: 2078
    Spherical Harmonics?: true
    Max angular momentum: 4

	 --------------------------------------------------------
	                 NBF =   782, NAUX =  1676
	 --------------------------------------------------------
	   CLASS    FOCC     OCC    AOCC    AVIR     VIR    FVIR
	   PAIRS       8      33      25     749     749       0
	 --------------------------------------------------------

DGAS Warning! /src/lib/libfock/apps.cc:80 is not currently checking restricted

         ------------------------------------------------------------
                                     CPHF                           
                                  Rob Parrish                       
         ------------------------------------------------------------

  ==> Geometry <==

    Molecular point group: c1
    Full point group: C1

    Geometry (in Angstrom), charge = 0, multiplicity = 1:

       Center              X                  Y                   Z               Mass       
    ------------   -----------------  -----------------  -----------------  -----------------
           C         -2.887586227812    -1.318715398888    -0.375460500403    12.000000000000
           H         -1.999772622562    -1.908532328032    -0.150193605009     1.007825032070
           H         -2.921390487448    -1.165263598065    -1.455513403569     1.007825032070
           H         -3.757089101558    -1.912571848794    -0.094707903040     1.007825032070
           C          2.362038874056    -1.649128833640     0.387488525331    12.000000000000
           H          2.956477180767    -1.573974817820     1.299048141188     1.007825032070
           H          2.654527581587    -2.564979924803    -0.126655342176     1.007825032070
           H          1.318799231490    -1.747867031129     0.682968741370     1.007825032070
           C         -2.874146698655     0.019011426309     0.356852018849    12.000000000000
           H         -2.797893561934    -0.153139173417     1.434062710328     1.007825032070
           H         -3.826371918634     0.527854190397     0.191364205353     1.007825032070
           C          2.588954843934    -0.422397226003    -0.492326291543    12.000000000000
           H          3.648246136233    -0.379773637363    -0.752809717383     1.007825032070
           H          2.048659079049    -0.535443976782    -1.436887560297     1.007825032070
           C         -1.736487395511     0.937518860703    -0.083417685293    12.000000000000
           H         -1.840587071242     1.905272769223     0.415544859233     1.007825032070
           H         -1.824727285957     1.131129734605    -1.157694464180     1.007825032070
           C         -0.347812396390     0.381179266208     0.210474936329    12.000000000000
           H         -0.207822722742    -0.555940359720    -0.331535254983     1.007825032070
           H         -0.272211307372     0.143784437986     1.277518811551     1.007825032070
           C          0.756989359260     1.358359037208    -0.173462061691    12.000000000000
           H          0.700232416178     1.546914268300    -1.250628616561     1.007825032070
           H          0.565101800266     2.317291339170     0.317334373109     1.007825032070
           C          2.173387820642     0.898643231262     0.170701110514    12.000000000000
           H          2.865180840527     1.689209447142    -0.128125037114     1.007825032070
           H          2.269876163776     0.801436924084     1.256787637533     1.007825032070

  Nuclear repulsion =  395.221459182534090
  Reference energy  = -313.538919125593111

  ==> Basis Set <==

  Basis Set: AUG-CC-PVTZ
    Number of shells: 274
    Number of basis function: 782
    Number of Cartesian functions: 890
    Spherical Harmonics?: true
    Max angular momentum: 3

  ==> CGRSolver (by Rob Parrish) <==

   Number of roots    =         1
   Preconditioning    =    JACOBI
   Convergence cutoff =     1E-06
   Maximum iterations =       100

  ==> CPHFRHamiltonian (by Rob Parrish) <== 

  ==> DFJK: Density-Fitted J/K Matrices <==

    J tasked:                  Yes
    K tasked:                  Yes
    wK tasked:                  No
    OpenMP threads:             12
    Integrals threads:          12
    Memory (MB):             42915
    Algorithm:                Core
    Integral Cache:           NONE
    Schwarz Cutoff:          1E-12
    Fitting Condition:       1E-12

   => Auxiliary Basis Set <=

  Basis Set: 
    Number of shells: 492
    Number of basis function: 1660
    Number of Cartesian functions: 2038
    Spherical Harmonics?: true
    Max angular momentum: 4

  ==> CPHF Iterations <==

  => Iterations <=

             Iter  Converged  Remaining    Residual
  CGR           1          0          1   9.120E-02
  CGR           2          0          1   1.300E-02
  CGR           3          0          1   3.516E-03
  CGR           4          0          1   8.142E-04
  CGR           5          0          1   1.985E-04
  CGR           6          0          1   4.451E-05
  CGR           7          0          1   1.219E-05
  CGR           8          0          1   3.313E-06
  CGR           9          1          0   8.421E-07

    CGRSolver converged.

  ==> DFCorrGrad: Density-Fitted Correlated Gradients <==

    OpenMP threads:             12
    Integrals threads:          12
    Memory (MB):             42915
    Schwarz Cutoff:          0E+00
    Fitting Condition:       1E-12

   => Auxiliary Basis Set <=

  Basis Set: 
    Number of shells: 492
    Number of basis function: 1660
    Number of Cartesian functions: 2038
    Spherical Harmonics?: true
    Max angular momentum: 4

	-----------------------------------------------------------
	 ==================> DF-MP2 Energies <==================== 
	-----------------------------------------------------------
	 Reference Energy          =    -313.5389191255931109 [Eh]
	 Singles Energy            =      -0.0000000000000000 [Eh]
	 Same-Spin Energy          =      -0.3162032339575341 [Eh]
	 Opposite-Spin Energy      =      -1.1255036257355511 [Eh]
	 Correlation Energy        =      -1.4417068596930851 [Eh]
	 Total Energy              =    -314.9806259852862240 [Eh]
	-----------------------------------------------------------
	 ================> DF-SCS-MP2 Energies <================== 
	-----------------------------------------------------------
	 SCS Same-Spin Scale       =       0.3333333333333333 [-]
	 SCS Opposite-Spin Scale   =       1.2000000000000000 [-]
	 SCS Same-Spin Energy      =      -0.1054010779858447 [Eh]
	 SCS Opposite-Spin Energy  =      -1.3506043508826613 [Eh]
	 SCS Correlation Energy    =      -1.4560054288685060 [Eh]
	 SCS Total Energy          =    -314.9949245544615906 [Eh]
	-----------------------------------------------------------


  -Total Gradient:
     Atom            X                  Y                   Z
    ------   -----------------  -----------------  -----------------
       1       -0.000000169482    -0.000000076958    -0.000000148835
       2       -0.000000099723     0.000000175501     0.000000032620
       3        0.000000013422    -0.000000020990     0.000000141883
       4        0.000000050511     0.000000051441    -0.000000014314
       5        0.000000061200    -0.000000291345     0.000000127328
       6       -0.000000132259    -0.000000044558    -0.000000185385
       7       -0.000000078974     0.000000130887     0.000000173513
       8        0.000000414154     0.000000066574    -0.000000173480
       9        0.000000151769     0.000000096418     0.000000276242
      10        0.000000053957     0.000000062099    -0.000000144920
      11        0.000000184321    -0.000000079026    -0.000000031266
      12       -0.000000316411     0.000000143800    -0.000000360627
      13       -0.000000154673    -0.000000044876     0.000000021704
      14        0.000000222598     0.000000050884     0.000000437086
      15        0.000000051694     0.000000582995    -0.000000606921
      16        0.000000200219    -0.000000625721    -0.000000264731
      17        0.000000003327    -0.000000029810     0.000000467754
      18        0.000000050244    -0.000001189003     0.000000808494
      19       -0.000000169733     0.000000853955     0.000000209588
      20        0.000000102133     0.000000329119    -0.000000822049
      21       -0.000000260294     0.000000488048    -0.000000150793
      22        0.000000189094    -0.000000143811     0.000000801762
      23        0.000000032937    -0.000000605771    -0.000000327467
      24        0.000000203198     0.000000329567     0.000000338009
      25       -0.000000235817    -0.000000307891     0.000000111889
      26       -0.000000367411     0.000000098472    -0.000000717084


			-----------------------------------------
			 OPTKING 2.0: for geometry optimizations 
			  - R.A. King,  Bethel University        
			-----------------------------------------

	Internal coordinates to be generated automatically.
	Detected frag 1 with atoms:  1 2 3 4 5 6 7 8 9 10 11 12 13 14 15 16 17 18 19 20
	 21 22 23 24 25 26
	---Fragment 1 Bond Connectivity---
	 1 : 2 3 4 9
	 2 : 1
	 3 : 1
	 4 : 1
	 5 : 6 7 8 12
	 6 : 5
	 7 : 5
	 8 : 5
	 9 : 1 10 11 15
	 10 : 9
	 11 : 9
	 12 : 5 13 14 24
	 13 : 12
	 14 : 12
	 15 : 9 16 17 18
	 16 : 15
	 17 : 15
	 18 : 15 19 20 21
	 19 : 18
	 20 : 18
	 21 : 18 22 23 24
	 22 : 21
	 23 : 21
	 24 : 12 21 25 26
	 25 : 24
	 26 : 24

	---Fragment 1 Geometry and Gradient---
	 C          -5.4567471557       -2.4920109511       -0.7095175195
	 H          -3.7790225847       -3.6066034157       -0.2838247804
	 H          -5.5206279485       -2.2020290730       -2.7505217155
	 H          -7.0998694588       -3.6142370037       -0.1789719994
	 C           4.4636065872       -3.1164018534        0.7322471925
	 H           5.5869321898       -2.9743813457        2.4548452203
	 H           5.0163301414       -4.8471095942       -0.2393439100
	 H           2.4921693718       -3.3029900055        1.2906238785
	 C          -5.4313501262        0.0359263891        0.6743525856
	 H          -5.2872525810       -0.2893910980        2.7099857799
	 H          -7.2307950088        0.9974998579        0.3616259398
	 C           4.8924156254       -0.7982150764       -0.9303618590
	 H           6.8941860628       -0.7176681671       -1.4226041960
	 H           3.8714045991       -1.0118424756       -2.7153239727
	 C          -3.2814856107        1.7716538911       -0.1576365798
	 H          -3.4782054884        3.6004437423        0.7852659799
	 H          -3.4482348377        2.1375254192       -2.1877254829
	 C          -0.6572701748        0.7203244207        0.3977399875
	 H          -0.3927280302       -1.0505750261       -0.6265108353
	 H          -0.5144048212        0.2717132100        2.4141606834
	 C           1.4305025745        2.5669265705       -0.3277957910
	 H           1.3232474959        2.9232443181       -2.3633455792
	 H           1.0678876397        4.3790460011        0.5996750577
	 C           4.1071077616        1.6981895983        0.3225783495
	 H           5.4144071098        3.1921432362       -0.2421212309
	 H           4.2894443051        1.5144962993        2.3749844421
	            -0.0000001695       -0.0000000770       -0.0000001488
	            -0.0000000997        0.0000001755        0.0000000326
	             0.0000000134       -0.0000000210        0.0000001419
	             0.0000000505        0.0000000514       -0.0000000143
	             0.0000000612       -0.0000002913        0.0000001273
	            -0.0000001323       -0.0000000446       -0.0000001854
	            -0.0000000790        0.0000001309        0.0000001735
	             0.0000004142        0.0000000666       -0.0000001735
	             0.0000001518        0.0000000964        0.0000002762
	             0.0000000540        0.0000000621       -0.0000001449
	             0.0000001843       -0.0000000790       -0.0000000313
	            -0.0000003164        0.0000001438       -0.0000003606
	            -0.0000001547       -0.0000000449        0.0000000217
	             0.0000002226        0.0000000509        0.0000004371
	             0.0000000517        0.0000005830       -0.0000006069
	             0.0000002002       -0.0000006257       -0.0000002647
	             0.0000000033       -0.0000000298        0.0000004678
	             0.0000000502       -0.0000011890        0.0000008085
	            -0.0000001697        0.0000008540        0.0000002096
	             0.0000001021        0.0000003291       -0.0000008220
	            -0.0000002603        0.0000004880       -0.0000001508
	             0.0000001891       -0.0000001438        0.0000008018
	             0.0000000329       -0.0000006058       -0.0000003275
	             0.0000002032        0.0000003296        0.0000003380
	            -0.0000002358       -0.0000003079        0.0000001119
	            -0.0000003674        0.0000000985       -0.0000007171

	Previous optimization step data not found.  Starting new optimization.

	---Fragment 1 Intrafragment Coordinates---
	 - Coordinate -           - BOHR/RAD -       - ANG/DEG -
	 R(1,2)           =         2.058711	       1.089423
	 R(1,3)           =         2.062491	       1.091423
	 R(1,4)           =         2.059301	       1.089735
	 R(1,9)           =         2.882049	       1.525115
	 R(5,6)           =         2.061401	       1.090846
	 R(5,7)           =         2.060301	       1.090265
	 R(5,8)           =         2.057466	       1.088764
	 R(5,12)          =         2.884811	       1.526576
	 R(9,10)          =         2.066494	       1.093542
	 R(9,11)          =         2.064079	       1.092264
	 R(9,15)          =         2.885632	       1.527011
	 R(12,13)         =         2.062977	       1.091681
	 R(12,14)         =         2.067411	       1.094027
	 R(12,24)         =         2.901483	       1.535399
	 R(15,16)         =         2.066939	       1.093777
	 R(15,17)         =         2.069524	       1.095145
	 R(15,18)         =         2.881014	       1.524567
	 R(18,19)         =         2.062803	       1.091588
	 R(18,20)         =         2.070656	       1.095744
	 R(18,21)         =         2.880128	       1.524098
	 R(21,22)         =         2.069282	       1.095017
	 R(21,23)         =         2.067721	       1.094191
	 R(21,24)         =         2.888236	       1.528389
	 R(24,25)         =         2.063932	       1.092186
	 R(24,26)         =         2.068662	       1.094689
	 B(1,9,10)        =         1.912964	     109.604775
	 B(1,9,11)        =         1.905182	     109.158894
	 B(1,9,15)        =         1.977652	     113.311085
	 B(2,1,3)         =         1.881767	     107.817324
	 B(2,1,4)         =         1.877512	     107.573542
	 B(2,1,9)         =         1.948098	     111.617776
	 B(3,1,4)         =         1.882684	     107.869869
	 B(3,1,9)         =         1.930628	     110.616825
	 B(4,1,9)         =         1.940480	     111.181332
	 B(5,12,13)       =         1.889279	     108.247717
	 B(5,12,14)       =         1.918936	     109.946926
	 B(5,12,24)       =         1.984810	     113.721231
	 B(6,5,7)         =         1.881526	     107.803508
	 B(6,5,8)         =         1.877177	     107.554326
	 B(6,5,12)        =         1.923296	     110.196733
	 B(7,5,8)         =         1.884787	     107.990354
	 B(7,5,12)        =         1.942678	     111.307261
	 B(8,5,12)        =         1.951652	     111.821438
	 B(9,15,16)       =         1.906854	     109.254678
	 B(9,15,17)       =         1.906187	     109.216494
	 B(9,15,18)       =         1.986175	     113.799441
	 B(10,9,11)       =         1.858108	     106.461726
	 B(10,9,15)       =         1.903666	     109.072043
	 B(11,9,15)       =         1.902446	     109.002111
	 B(12,24,21)      =         1.995859	     114.354317
	 B(12,24,25)      =         1.910490	     109.463013
	 B(12,24,26)      =         1.905169	     109.158159
	 B(13,12,14)      =         1.851709	     106.095099
	 B(13,12,24)      =         1.909295	     109.394559
	 B(14,12,24)      =         1.905055	     109.151633
	 B(15,18,19)      =         1.911737	     109.534438
	 B(15,18,20)      =         1.906705	     109.246151
	 B(15,18,21)      =         1.958159	     112.194236
	 B(16,15,17)      =         1.858135	     106.463304
	 B(16,15,18)      =         1.898240	     108.761141
	 B(17,15,18)      =         1.903927	     109.086994
	 B(18,21,22)      =         1.897196	     108.701305
	 B(18,21,23)      =         1.898405	     108.770569
	 B(18,21,24)      =         2.006667	     114.973533
	 B(19,18,20)      =         1.863651	     106.779317
	 B(19,18,21)      =         1.909622	     109.413266
	 B(20,18,21)      =         1.911559	     109.524255
	 B(21,24,25)      =         1.883530	     107.918336
	 B(21,24,26)      =         1.909011	     109.378300
	 B(22,21,23)      =         1.855880	     106.334080
	 B(22,21,24)      =         1.897937	     108.743802
	 B(23,21,24)      =         1.901933	     108.972759
	 B(25,24,26)      =         1.854486	     106.254226
	 D(1,9,15,16)     =         3.055402	     175.061621
	 D(1,9,15,17)     =         1.029384	      58.979365
	 D(1,9,15,18)     =        -1.102624	     -63.175702
	 D(2,1,9,10)      =        -1.005177	     -57.592424
	 D(2,1,9,11)      =        -3.034023	    -173.836710
	 D(2,1,9,15)      =         1.125602	      64.492268
	 D(3,1,9,10)      =        -3.100430	    -177.641548
	 D(3,1,9,11)      =         1.153910	      66.114165
	 D(3,1,9,15)      =        -0.969650	     -55.556857
	 D(4,1,9,10)      =         1.091373	      62.531073
	 D(4,1,9,11)      =        -0.937472	     -53.713213
	 D(4,1,9,15)      =        -3.061032	    -175.384235
	 D(5,12,24,21)    =        -1.652222	     -94.665358
	 D(5,12,24,25)    =         2.515484	     144.126596
	 D(5,12,24,26)    =         0.492378	      28.211178
	 D(6,5,12,13)     =         1.054294	      60.406602
	 D(6,5,12,14)     =         3.069804	     175.886826
	 D(6,5,12,24)     =        -1.071333	     -61.382837
	 D(7,5,12,13)     =        -1.032227	     -59.142276
	 D(7,5,12,14)     =         0.983283	      56.337948
	 D(7,5,12,24)     =         3.125331	     179.068286
	 D(8,5,12,13)     =         3.141164	     179.975466
	 D(8,5,12,14)     =        -1.126511	     -64.544310
	 D(8,5,12,24)     =         1.015538	      58.186027
	 D(9,15,18,19)    =         1.071845	      61.412185
	 D(9,15,18,20)    =        -0.963841	     -55.224024
	 D(9,15,18,21)    =        -3.087067	    -176.875900
	 D(10,9,15,16)    =        -1.091829	     -62.557174
	 D(10,9,15,17)    =        -3.117846	    -178.639430
	 D(10,9,15,18)    =         1.033331	      59.205503
	 D(11,9,15,16)    =         0.930310	      53.302842
	 D(11,9,15,17)    =        -1.095707	     -62.779414
	 D(11,9,15,18)    =         3.055470	     175.065519
	 D(12,24,21,18)   =         1.036186	      59.369071
	 D(12,24,21,22)   =        -1.095049	     -62.741671
	 D(12,24,21,23)   =        -3.111126	    -178.254373
	 D(13,12,24,21)   =         2.516483	     144.183838
	 D(13,12,24,25)   =         0.401003	      22.975792
	 D(13,12,24,26)   =        -1.622102	     -92.939626
	 D(14,12,24,21)   =         0.497431	      28.500701
	 D(14,12,24,25)   =        -1.618048	     -92.707345
	 D(14,12,24,26)   =         2.642031	     151.377237
	 D(15,18,21,22)   =        -1.070369	     -61.327643
	 D(15,18,21,23)   =         0.943409	      54.053343
	 D(15,18,21,24)   =         3.081181	     176.538674
	 D(16,15,18,19)   =        -3.081413	    -176.551988
	 D(16,15,18,20)   =         1.166086	      66.811802
	 D(16,15,18,21)   =        -0.957140	     -54.840074
	 D(17,15,18,19)   =        -1.061410	     -60.814325
	 D(17,15,18,20)   =        -3.097096	    -177.450535
	 D(17,15,18,21)   =         1.062863	      60.897589
	 D(18,21,24,25)   =        -3.116713	    -178.574501
	 D(18,21,24,26)   =        -1.106332	     -63.388130
	 D(19,18,21,22)   =         1.055113	      60.453521
	 D(19,18,21,23)   =         3.068891	     175.834506
	 D(19,18,21,24)   =        -1.076522	     -61.680162
	 D(20,18,21,22)   =         3.092369	     177.179715
	 D(20,18,21,23)   =        -1.177038	     -67.439299
	 D(20,18,21,24)   =         0.960735	      55.046032
	 D(22,21,24,25)   =         1.035238	      59.314757
	 D(22,21,24,26)   =         3.045619	     174.501128
	 D(23,21,24,25)   =        -0.980839	     -56.197944
	 D(23,21,24,26)   =         1.029542	      58.988427
	 R(5,18)          =         6.407476	       3.390690

	Current energy   :      -314.9806259853

	Generating empirical Hessian (Schlegel '84) for each fragment.
	Taking RFO optimization step.
	Going to follow RFO solution 1.
	Using RFO vector 1.
	Norm of target step-size    0.00015
	Projected energy change by RFO approximation:        -0.0000000001

	Back-transformation to cartesian coordinates...
	Successfully converged to displaced geometry.

	--- Internal Coordinate Step in ANG or DEG, aJ/ANG or AJ/DEG ---
	 ---------------------------------------------------------------------------
	   Coordinate                Previous        Force       Change         New 
	   ----------                --------       ------       ------       ------
	    1 R(1,2)          =      1.089423     0.000001     0.000000     1.089423
	    2 R(1,3)          =      1.091423     0.000001     0.000000     1.091423
	    3 R(1,4)          =      1.089735     0.000001     0.000000     1.089735
	    4 R(1,9)          =      1.525115     0.000001     0.000000     1.525115
	    5 R(5,6)          =      1.090846     0.000002     0.000000     1.090847
	    6 R(5,7)          =      1.090265     0.000002     0.000000     1.090265
	    7 R(5,8)          =      1.088764     0.000004     0.000001     1.088765
	    8 R(5,12)         =      1.526576     0.000000     0.000000     1.526576
	    9 R(9,10)         =      1.093542     0.000001     0.000000     1.093542
	   10 R(9,11)         =      1.092264     0.000002     0.000000     1.092264
	   11 R(9,15)         =      1.527011     0.000002     0.000000     1.527011
	   12 R(12,13)        =      1.091681     0.000001     0.000000     1.091681
	   13 R(12,14)        =      1.094027     0.000004     0.000001     1.094028
	   14 R(12,24)        =      1.535399     0.000001     0.000000     1.535399
	   15 R(15,16)        =      1.093777     0.000006     0.000001     1.093778
	   16 R(15,17)        =      1.095145     0.000004     0.000001     1.095145
	   17 R(15,18)        =      1.524567     0.000003     0.000001     1.524568
	   18 R(18,19)        =      1.091588     0.000007     0.000001     1.091590
	   19 R(18,20)        =      1.095744     0.000007     0.000001     1.095745
	   20 R(18,21)        =      1.524098     0.000003     0.000001     1.524099
	   21 R(21,22)        =      1.095017     0.000007     0.000001     1.095018
	   22 R(21,23)        =      1.094191     0.000006     0.000001     1.094192
	   23 R(21,24)        =      1.528389     0.000005     0.000001     1.528390
	   24 R(24,25)        =      1.092186     0.000003     0.000001     1.092186
	   25 R(24,26)        =      1.094689     0.000006     0.000001     1.094690
	   26 B(1,9,10)       =    109.604775     0.000000    -0.000030   109.604745
	   27 B(1,9,11)       =    109.158894     0.000000     0.000046   109.158940
	   28 B(1,9,15)       =    113.311085    -0.000000    -0.000063   113.311022
	   29 B(2,1,3)        =    107.817324    -0.000000    -0.000011   107.817313
	   30 B(2,1,4)        =    107.573542    -0.000000    -0.000016   107.573526
	   31 B(2,1,9)        =    111.617776     0.000000     0.000069   111.617845
	   32 B(3,1,4)        =    107.869869    -0.000000    -0.000016   107.869853
	   33 B(3,1,9)        =    110.616825    -0.000000    -0.000017   110.616807
	   34 B(4,1,9)        =    111.181332    -0.000000    -0.000011   111.181321
	   35 B(5,12,13)      =    108.247717     0.000000     0.000006   108.247724
	   36 B(5,12,14)      =    109.946926     0.000000     0.000007   109.946933
	   37 B(5,12,24)      =    113.721231    -0.000000    -0.000005   113.721226
	   38 B(6,5,7)        =    107.803508     0.000000     0.000010   107.803518
	   39 B(6,5,8)        =    107.554326    -0.000000    -0.000004   107.554322
	   40 B(6,5,12)       =    110.196733    -0.000000    -0.000015   110.196718
	   41 B(7,5,8)        =    107.990354     0.000000     0.000014   107.990369
	   42 B(7,5,12)       =    111.307261    -0.000000    -0.000050   111.307212
	   43 B(8,5,12)       =    111.821438     0.000000     0.000045   111.821483
	   44 B(9,15,16)      =    109.254678     0.000000     0.000106   109.254785
	   45 B(9,15,17)      =    109.216494    -0.000000    -0.000131   109.216363
	   46 B(9,15,18)      =    113.799441    -0.000000    -0.000028   113.799413
	   47 B(10,9,11)      =    106.461726    -0.000000    -0.000019   106.461707
	   48 B(10,9,15)      =    109.072043     0.000000     0.000026   109.072068
	   49 B(11,9,15)      =    109.002111     0.000000     0.000043   109.002154
	   50 B(12,24,21)     =    114.354317    -0.000000     0.000060   114.354378
	   51 B(12,24,25)     =    109.463013     0.000000    -0.000045   109.462968
	   52 B(12,24,26)     =    109.158159    -0.000000    -0.000050   109.158109
	   53 B(13,12,14)     =    106.095099    -0.000000    -0.000000   106.095099
	   54 B(13,12,24)     =    109.394559     0.000000    -0.000017   109.394542
	   55 B(14,12,24)     =    109.151633     0.000000     0.000009   109.151642
	   56 B(15,18,19)     =    109.534438    -0.000000    -0.000055   109.534383
	   57 B(15,18,20)     =    109.246151    -0.000000    -0.000067   109.246084
	   58 B(15,18,21)     =    112.194236     0.000000     0.000254   112.194489
	   59 B(16,15,17)     =    106.463304    -0.000000     0.000002   106.463306
	   60 B(16,15,18)     =    108.761141     0.000000     0.000177   108.761318
	   61 B(17,15,18)     =    109.086994    -0.000000    -0.000123   109.086871
	   62 B(18,21,22)     =    108.701305    -0.000000    -0.000088   108.701217
	   63 B(18,21,23)     =    108.770569     0.000000     0.000056   108.770625
	   64 B(18,21,24)     =    114.973533    -0.000000     0.000025   114.973557
	   65 B(19,18,20)     =    106.779317     0.000000    -0.000157   106.779161
	   66 B(19,18,21)     =    109.413266    -0.000000    -0.000105   109.413161
	   67 B(20,18,21)     =    109.524255    -0.000000     0.000109   109.524364
	   68 B(21,24,25)     =    107.918336    -0.000000    -0.000068   107.918267
	   69 B(21,24,26)     =    109.378300     0.000000     0.000161   109.378461
	   70 B(22,21,23)     =    106.334080    -0.000000    -0.000006   106.334074
	   71 B(22,21,24)     =    108.743802     0.000000     0.000020   108.743823
	   72 B(23,21,24)     =    108.972759    -0.000000    -0.000009   108.972749
	   73 B(25,24,26)     =    106.254226    -0.000000    -0.000067   106.254159
	   74 D(1,9,15,16)    =    175.061621    -0.000000     0.000488   175.062109
	   75 D(1,9,15,17)    =     58.979365    -0.000000     0.000500    58.979865
	   76 D(1,9,15,18)    =    -63.175702     0.000000     0.000775   -63.174926
	   77 D(2,1,9,10)     =    -57.592424    -0.000000    -0.000077   -57.592501
	   78 D(2,1,9,11)     =   -173.836710     0.000000    -0.000063  -173.836773
	   79 D(2,1,9,15)     =     64.492268    -0.000000    -0.000109    64.492159
	   80 D(3,1,9,10)     =   -177.641548    -0.000000    -0.000096  -177.641645
	   81 D(3,1,9,11)     =     66.114165    -0.000000    -0.000083    66.114082
	   82 D(3,1,9,15)     =    -55.556857    -0.000000    -0.000129   -55.556985
	   83 D(4,1,9,10)     =     62.531073     0.000000    -0.000057    62.531016
	   84 D(4,1,9,11)     =    -53.713213     0.000000    -0.000044   -53.713257
	   85 D(4,1,9,15)     =   -175.384235     0.000000    -0.000090  -175.384325
	   86 D(5,12,24,21)   =    -94.665358    -0.000000     0.000559   -94.664799
	   87 D(5,12,24,25)   =    144.126596     0.000000     0.000640   144.127235
	   88 D(5,12,24,26)   =     28.211178     0.000000     0.000773    28.211950
	   89 D(6,5,12,13)    =     60.406602    -0.000000    -0.000276    60.406326
	   90 D(6,5,12,14)    =    175.886826    -0.000000    -0.000269   175.886558
	   91 D(6,5,12,24)    =    -61.382837    -0.000000    -0.000255   -61.383092
	   92 D(7,5,12,13)    =    -59.142276    -0.000000    -0.000247   -59.142522
	   93 D(7,5,12,14)    =     56.337948     0.000000    -0.000239    56.337709
	   94 D(7,5,12,24)    =    179.068286     0.000000    -0.000226   179.068060
	   95 D(8,5,12,13)    =    179.975466    -0.000000    -0.000261   179.975205
	   96 D(8,5,12,14)    =    -64.544310     0.000000    -0.000254   -64.544564
	   97 D(8,5,12,24)    =     58.186027    -0.000000    -0.000241    58.185787
	   98 D(9,15,18,19)   =     61.412185    -0.000000    -0.002599    61.409587
	   99 D(9,15,18,20)   =    -55.224024     0.000000    -0.002341   -55.226365
	  100 D(9,15,18,21)   =   -176.875900    -0.000000    -0.002600  -176.878500
	  101 D(10,9,15,16)   =    -62.557174    -0.000000     0.000425   -62.556749
	  102 D(10,9,15,17)   =   -178.639430    -0.000000     0.000437  -178.638993
	  103 D(10,9,15,18)   =     59.205503     0.000000     0.000713    59.206215
	  104 D(11,9,15,16)   =     53.302842    -0.000000     0.000441    53.303283
	  105 D(11,9,15,17)   =    -62.779414    -0.000000     0.000453   -62.778961
	  106 D(11,9,15,18)   =    175.065519     0.000000     0.000728   175.066248
	  107 D(12,24,21,18)  =     59.369071    -0.000000    -0.000749    59.368323
	  108 D(12,24,21,22)  =    -62.741671    -0.000000    -0.000667   -62.742338
	  109 D(12,24,21,23)  =   -178.254373    -0.000000    -0.000665  -178.255038
	  110 D(13,12,24,21)  =    144.183838    -0.000000     0.000567   144.184405
	  111 D(13,12,24,25)  =     22.975792    -0.000000     0.000647    22.976439
	  112 D(13,12,24,26)  =    -92.939626     0.000000     0.000780   -92.938846
	  113 D(14,12,24,21)  =     28.500701    -0.000000     0.000571    28.501273
	  114 D(14,12,24,25)  =    -92.707345    -0.000000     0.000652   -92.706693
	  115 D(14,12,24,26)  =    151.377237     0.000000     0.000785   151.378022
	  116 D(15,18,21,22)  =    -61.327643     0.000000     0.001045   -61.326598
	  117 D(15,18,21,23)  =     54.053343     0.000000     0.001021    54.054363
	  118 D(15,18,21,24)  =    176.538674     0.000000     0.001069   176.539743
	  119 D(16,15,18,19)  =   -176.551988    -0.000000    -0.002351  -176.554339
	  120 D(16,15,18,20)  =     66.811802     0.000000    -0.002093    66.809709
	  121 D(16,15,18,21)  =    -54.840074    -0.000000    -0.002352   -54.842426
	  122 D(17,15,18,19)  =    -60.814325    -0.000000    -0.002319   -60.816644
	  123 D(17,15,18,20)  =   -177.450535     0.000000    -0.002061  -177.452596
	  124 D(17,15,18,21)  =     60.897589    -0.000000    -0.002320    60.895269
	  125 D(18,21,24,25)  =   -178.574501    -0.000000    -0.000816  -178.575317
	  126 D(18,21,24,26)  =    -63.388130    -0.000000    -0.000849   -63.388978
	  127 D(19,18,21,22)  =     60.453521     0.000000     0.001072    60.454593
	  128 D(19,18,21,23)  =    175.834506     0.000000     0.001047   175.835554
	  129 D(19,18,21,24)  =    -61.680162     0.000000     0.001095   -61.679067
	  130 D(20,18,21,22)  =    177.179715    -0.000000     0.000885   177.180601
	  131 D(20,18,21,23)  =    -67.439299    -0.000000     0.000861   -67.438439
	  132 D(20,18,21,24)  =     55.046032    -0.000000     0.000909    55.046941
	  133 D(22,21,24,25)  =     59.314757     0.000000    -0.000735    59.314022
	  134 D(22,21,24,26)  =    174.501128     0.000000    -0.000767   174.500361
	  135 D(23,21,24,25)  =    -56.197944    -0.000000    -0.000733   -56.198677
	  136 D(23,21,24,26)  =     58.988427     0.000000    -0.000765    58.987662
	  137 R(5,18)         =      3.390690    -0.000001    -0.000011     3.390679
	 ---------------------------------------------------------------------------

  ==> Convergence Check <==

  Measures of convergence in internal coordinates in au.
  Criteria marked as inactive (o), active & met (*), and active & unmet ( ).
  --------------------------------------------------------------------------------------------- ~
   Step     Total Energy     Delta E     MAX Force     RMS Force      MAX Disp      RMS Disp    ~
  --------------------------------------------------------------------------------------------- ~
    Convergence Criteria             o    2.00e-06 *    1.00e-06 *    6.00e-06 *    4.00e-06 *  ~
  --------------------------------------------------------------------------------------------- ~
      1    -314.98062599   -3.15e+02 o    8.64e-07 *    2.28e-07 *    4.54e-05      1.27e-05    ~
  ---------------------------------------------------------------------------------------------

	Writing optimization data to binary file.
	Structure for next step:
	Cartesian Geometry (in Angstrom)
	    C    -2.8875502942  -1.3187188645  -0.3754838152
	    H    -1.9997306873  -1.9085252741  -0.1502118122
	    H    -2.9213406217  -1.1652526250  -1.4555353250
	    H    -3.7570480590  -1.9125932488  -0.0947529117
	    C     2.3620137911  -1.6491282622   0.3875011527
	    H     2.9564687142  -1.5739704754   1.2990500408
	    H     2.6544805223  -2.5649908063  -0.1266355065
	    H     1.3187770130  -1.7478470139   0.6830005052
	    C    -2.8741442633   0.0189984154   0.3568471311
	    H    -2.7979064129  -0.1531661636   1.4340569008
	    H    -3.8263748673   0.5278290066   0.1913508993
	    C     2.5889342338  -0.4224123777  -0.4923346459
	    H     3.6482229597  -0.3798060401  -0.7528323313
	    H     2.0486245431  -0.5354659967  -1.4368880059
	    C    -1.7364908888   0.9375286301  -0.0833917153
	    H    -1.8406068065   1.9052732640   0.4155877737
	    H    -1.8247228479   1.1311579322  -1.1576665581
	    C    -0.3478121620   0.3811966576   0.2105005702
	    H    -0.2078257884  -0.5559336985  -0.3314945635
	    H    -0.2722051421   0.1438173211   1.2775488468
	    C     0.7569901393   1.3583673715  -0.1734609315
	    H     0.7002141606   1.5469168114  -1.2506287912
	    H     0.5651183071   2.3173049038   0.3173337752
	    C     2.1733928810   0.8986434389   0.1706791139
	    H     2.8651863878   1.6891986579  -0.1281772453
	    H     2.2699077184   0.8014552146   1.2567660763
			--------------------------
			 OPTKING Finished Execution 
			--------------------------

    Structure for next step:
    Molecular point group: c1
    Full point group: C1

    Geometry (in Angstrom), charge = 0, multiplicity = 1:

    C           -2.887549837466    -1.318719311881    -0.375484470813
    H           -1.999730230570    -1.908525721551    -0.150212467853
    H           -2.921340164939    -1.165253072390    -1.455535980661
    H           -3.757047602311    -1.912593696258    -0.094753567286
    C            2.362014247826    -1.649128709648     0.387500497111
    H            2.956469170915    -1.573970922850     1.299049385155
    H            2.654480979057    -2.564991253758    -0.126636162120
    H            1.318777469709    -1.747847461354     0.682999849549
    C           -2.874143806571     0.018997967995     0.356846475448
    H           -2.797905956129    -0.153166611067     1.434056245188
    H           -3.826374410537     0.527828559150     0.191350243671
    C            2.588934690524    -0.422412825168    -0.492335301532
    H            3.648223416465    -0.379806487554    -0.752832986942
    H            2.048624999810    -0.535466444120    -1.436888661508
    C           -1.736490432066     0.937528182687    -0.083392370916
    H           -1.840606349727     1.905272816558     0.415587118097
    H           -1.824722391206     1.131157484760    -1.157667213784
    C           -0.347811705304     0.381196210201     0.210499914593
    H           -0.207825331687    -0.555934145909    -0.331495219147
    H           -0.272204685320     0.143816873694     1.277548191119
    C            0.756990596042     1.358366924108    -0.173461587141
    H            0.700214617372     1.546916363926    -1.250629446823
    H            0.565118763820     2.317304456341     0.317333119516
    C            2.173393337761     0.898642991455     0.170678458266
    H            2.865186844498     1.689198210451    -0.128177900958
    H            2.269908175088     0.801454767202     1.256765420686

gradient() will perform analytic gradient computation.

*** tstart() called on wr29
*** at Tue Sep 20 22:47:51 2016


         ---------------------------------------------------------
                                   SCF
            by Justin Turney, Rob Parrish, and Andy Simmonett
                              RHF Reference
                       12 Threads,  60000 MiB Core
         ---------------------------------------------------------

  ==> Geometry <==

    Molecular point group: c1
    Full point group: C1

    Geometry (in Angstrom), charge = 0, multiplicity = 1:

       Center              X                  Y                   Z               Mass       
    ------------   -----------------  -----------------  -----------------  -----------------
           C         -2.887549837466    -1.318719311881    -0.375484470813    12.000000000000
           H         -1.999730230570    -1.908525721551    -0.150212467853     1.007825032070
           H         -2.921340164939    -1.165253072390    -1.455535980661     1.007825032070
           H         -3.757047602311    -1.912593696258    -0.094753567286     1.007825032070
           C          2.362014247826    -1.649128709648     0.387500497111    12.000000000000
           H          2.956469170915    -1.573970922850     1.299049385155     1.007825032070
           H          2.654480979057    -2.564991253758    -0.126636162120     1.007825032070
           H          1.318777469709    -1.747847461354     0.682999849549     1.007825032070
           C         -2.874143806571     0.018997967995     0.356846475448    12.000000000000
           H         -2.797905956129    -0.153166611067     1.434056245188     1.007825032070
           H         -3.826374410537     0.527828559150     0.191350243671     1.007825032070
           C          2.588934690524    -0.422412825168    -0.492335301532    12.000000000000
           H          3.648223416465    -0.379806487554    -0.752832986942     1.007825032070
           H          2.048624999810    -0.535466444120    -1.436888661508     1.007825032070
           C         -1.736490432066     0.937528182687    -0.083392370916    12.000000000000
           H         -1.840606349727     1.905272816558     0.415587118097     1.007825032070
           H         -1.824722391206     1.131157484760    -1.157667213784     1.007825032070
           C         -0.347811705304     0.381196210201     0.210499914593    12.000000000000
           H         -0.207825331687    -0.555934145909    -0.331495219147     1.007825032070
           H         -0.272204685320     0.143816873694     1.277548191119     1.007825032070
           C          0.756990596042     1.358366924108    -0.173461587141    12.000000000000
           H          0.700214617372     1.546916363926    -1.250629446823     1.007825032070
           H          0.565118763820     2.317304456341     0.317333119516     1.007825032070
           C          2.173393337761     0.898642991455     0.170678458266    12.000000000000
           H          2.865186844498     1.689198210451    -0.128177900958     1.007825032070
           H          2.269908175088     0.801454767202     1.256765420686     1.007825032070

  Running in c1 symmetry.

  Rotational constants: A =      0.10342  B =      0.02913  C =      0.02437 [cm^-1]
  Rotational constants: A =   3100.42680  B =    873.33592  C =    730.50628 [MHz]
  Nuclear repulsion =  395.221689616745209

  Charge       = 0
  Multiplicity = 1
  Electrons    = 66
  Nalpha       = 33
  Nbeta        = 33

  ==> Algorithm <==

  SCF Algorithm Type is DF.
  DIIS enabled.
  MOM disabled.
  Fractional occupation disabled.
  Guess Type is READ.
  Energy threshold   = 1.00e-10
  Density threshold  = 1.00e-10
  Integral threshold = 0.00e+00

  ==> Primary Basis <==

  Basis Set: AUG-CC-PVTZ
    Number of shells: 274
    Number of basis function: 782
    Number of Cartesian functions: 890
    Spherical Harmonics?: true
    Max angular momentum: 3

  ==> Pre-Iterations <==

   -------------------------------------------------------
    Irrep   Nso     Nmo     Nalpha   Nbeta   Ndocc  Nsocc
   -------------------------------------------------------
     A        782     782       0       0       0       0
   -------------------------------------------------------
    Total     782     782      33      33      33       0
   -------------------------------------------------------

  ==> Integral Setup <==

  ==> DFJK: Density-Fitted J/K Matrices <==

    J tasked:                  Yes
    K tasked:                  Yes
    wK tasked:                  No
    OpenMP threads:             12
    Integrals threads:          12
    Memory (MB):             42915
    Algorithm:                Core
    Integral Cache:           NONE
    Schwarz Cutoff:          1E-12
    Fitting Condition:       1E-12

   => Auxiliary Basis Set <=

  Basis Set: 
    Number of shells: 492
    Number of basis function: 1660
    Number of Cartesian functions: 2038
    Spherical Harmonics?: true
    Max angular momentum: 4

  Minimum eigenvalue in the overlap matrix is 2.1134876679E-06.
  Using Symmetric Orthogonalization.
  SCF Guess: Reading in previously saved MOs, projecting if necessary.

  Using orbitals from previous SCF, no projection.
  Recomputing DOCC and SOCC from number of alpha and beta electrons from previous calculation.
              A 
    DOCC [    33 ]

  ==> Iterations <==

                           Total Energy        Delta E     RMS |[F,P]|

   @DF-RHF iter   0:  -313.53889117022646   -3.13539e+02   9.30415e-08 
   @DF-RHF iter   1:  -313.53891888612208   -2.77159e-05   2.19618e-08 
   @DF-RHF iter   2:  -313.53891888635445   -2.32376e-10   9.58306e-09 DIIS
   @DF-RHF iter   3:  -313.53891888639117   -3.67208e-11   3.20334e-09 DIIS
   @DF-RHF iter   4:  -313.53891888639777   -6.59384e-12   3.72299e-10 DIIS
   @DF-RHF iter   5:  -313.53891888639845   -6.82121e-13   1.20866e-10 DIIS
   @DF-RHF iter   6:  -313.53891888639743    1.02318e-12   3.05300e-11 DIIS

  ==> Post-Iterations <==

    Orbital Energies (a.u.)
    -----------------------

    Doubly Occupied:                                                      

       1A    -11.213033     2A    -11.212871     3A    -11.210877  
       4A    -11.210392     5A    -11.210251     6A    -11.208915  
       7A    -11.206974     8A    -11.206084     9A     -1.093783  
      10A     -1.060059    11A     -1.007010    12A     -0.948906  
      13A     -0.886340    14A     -0.828211    15A     -0.777405  
      16A     -0.768694    17A     -0.647929    18A     -0.622117  
      19A     -0.611482    20A     -0.591981    21A     -0.588100  
      22A     -0.558226    23A     -0.544365    24A     -0.521603  
      25A     -0.516594    26A     -0.509997    27A     -0.483608  
      28A     -0.474130    29A     -0.464047    30A     -0.460958  
      31A     -0.453303    32A     -0.439978    33A     -0.429077  

    Virtual:                                                              

      34A      0.028760    35A      0.032239    36A      0.034194  
      37A      0.036432    38A      0.046231    39A      0.047138  
      40A      0.051175    41A      0.052808    42A      0.055799  
      43A      0.066562    44A      0.069035    45A      0.070734  
      46A      0.073199    47A      0.077195    48A      0.085432  
      49A      0.091942    50A      0.101266    51A      0.102318  
      52A      0.111668    53A      0.115239    54A      0.118499  
      55A      0.125560    56A      0.128155    57A      0.132789  
      58A      0.133838    59A      0.135995    60A      0.138289  
      61A      0.146184    62A      0.149620    63A      0.151308  
      64A      0.155339    65A      0.157172    66A      0.159436  
      67A      0.166897    68A      0.169667    69A      0.171088  
      70A      0.176667    71A      0.178137    72A      0.183301  
      73A      0.188503    74A      0.194357    75A      0.196305  
      76A      0.205523    77A      0.211543    78A      0.217525  
      79A      0.222965    80A      0.226211    81A      0.238064  
      82A      0.245279    83A      0.253093    84A      0.254577  
      85A      0.266279    86A      0.270692    87A      0.278087  
      88A      0.281651    89A      0.290191    90A      0.296650  
      91A      0.298452    92A      0.307062    93A      0.311070  
      94A      0.311661    95A      0.316235    96A      0.319799  
      97A      0.326600    98A      0.328918    99A      0.329720  
     100A      0.337948   101A      0.341338   102A      0.345620  
     103A      0.349223   104A      0.355167   105A      0.358393  
     106A      0.358887   107A      0.363668   108A      0.367295  
     109A      0.369243   110A      0.371734   111A      0.372982  
     112A      0.379892   113A      0.381782   114A      0.387867  
     115A      0.390660   116A      0.392467   117A      0.399616  
     118A      0.402219   119A      0.406831   120A      0.408365  
     121A      0.411815   122A      0.415916   123A      0.422724  
     124A      0.426838   125A      0.430965   126A      0.434555  
     127A      0.437902   128A      0.444512   129A      0.448164  
     130A      0.450004   131A      0.454856   132A      0.460317  
     133A      0.462940   134A      0.471010   135A      0.473564  
     136A      0.474894   137A      0.480412   138A      0.481663  
     139A      0.485297   140A      0.489966   141A      0.491295  
     142A      0.493129   143A      0.499094   144A      0.501601  
     145A      0.506428   146A      0.509216   147A      0.510985  
     148A      0.514901   149A      0.520802   150A      0.526114  
     151A      0.530013   152A      0.535801   153A      0.539701  
     154A      0.546133   155A      0.551380   156A      0.554883  
     157A      0.561797   158A      0.563071   159A      0.568169  
     160A      0.571691   161A      0.579061   162A      0.580657  
     163A      0.587424   164A      0.590719   165A      0.593537  
     166A      0.596727   167A      0.600876   168A      0.612382  
     169A      0.617095   170A      0.617946   171A      0.622704  
     172A      0.625001   173A      0.627370   174A      0.635944  
     175A      0.640128   176A      0.646112   177A      0.657916  
     178A      0.659636   179A      0.662001   180A      0.665097  
     181A      0.670367   182A      0.675253   183A      0.678566  
     184A      0.680461   185A      0.686395   186A      0.689792  
     187A      0.695372   188A      0.702212   189A      0.707585  
     190A      0.715043   191A      0.723071   192A      0.727616  
     193A      0.732911   194A      0.745055   195A      0.751708  
     196A      0.754887   197A      0.761263   198A      0.773381  
     199A      0.779488   200A      0.786960   201A      0.803952  
     202A      0.809768   203A      0.819497   204A      0.825607  
     205A      0.838021   206A      0.842679   207A      0.847402  
     208A      0.852832   209A      0.856340   210A      0.858656  
     211A      0.862953   212A      0.869358   213A      0.875780  
     214A      0.883863   215A      0.891035   216A      0.891303  
     217A      0.897532   218A      0.903653   219A      0.905733  
     220A      0.913885   221A      0.917316   222A      0.918958  
     223A      0.925119   224A      0.929847   225A      0.931245  
     226A      0.941644   227A      0.943804   228A      0.948320  
     229A      0.952358   230A      0.962738   231A      0.967991  
     232A      0.970177   233A      0.978142   234A      0.984036  
     235A      0.987681   236A      0.992131   237A      0.998164  
     238A      1.002441   239A      1.006537   240A      1.016268  
     241A      1.018781   242A      1.023202   243A      1.024841  
     244A      1.035625   245A      1.040688   246A      1.043438  
     247A      1.046319   248A      1.054226   249A      1.060246  
     250A      1.065171   251A      1.070133   252A      1.072567  
     253A      1.076312   254A      1.081422   255A      1.094406  
     256A      1.096135   257A      1.106093   258A      1.106569  
     259A      1.109587   260A      1.124061   261A      1.128683  
     262A      1.134826   263A      1.138106   264A      1.141555  
     265A      1.147123   266A      1.151959   267A      1.156654  
     268A      1.161490   269A      1.174838   270A      1.176165  
     271A      1.179988   272A      1.188094   273A      1.189145  
     274A      1.196581   275A      1.199862   276A      1.205034  
     277A      1.206854   278A      1.212095   279A      1.213790  
     280A      1.219457   281A      1.227913   282A      1.235120  
     283A      1.238002   284A      1.244204   285A      1.251204  
     286A      1.253512   287A      1.256383   288A      1.264255  
     289A      1.270974   290A      1.274767   291A      1.283878  
     292A      1.286787   293A      1.296834   294A      1.308142  
[...]
	 D(22,21,24,25)   =         1.035233	      59.314482
	 D(22,21,24,26)   =         3.045614	     174.500829
	 D(23,21,24,25)   =        -0.980844	     -56.198227
	 D(23,21,24,26)   =         1.029537	      58.988120
	 R(5,18)          =         6.407465	       3.390685

	Current energy   :      -314.9806259844

	Energy change for the previous step:
		Projected    :         0.0000000000
		Actual       :         0.0000000034

	Performing BFGS update.
	Previous computed or guess Hessian on step 1.
	Denominators (dg)(dq) or (dq)(dq) are very small.
	 Skipping Hessian update for step 14.
	Denominators (dg)(dq) or (dq)(dq) are very small.
	 Skipping Hessian update for step 13.
	Denominators (dg)(dq) or (dq)(dq) are very small.
	 Skipping Hessian update for step 12.
	Denominators (dg)(dq) or (dq)(dq) are very small.
	 Skipping Hessian update for step 11.
	Denominators (dg)(dq) or (dq)(dq) are very small.
	 Skipping Hessian update for step 10.
	Denominators (dg)(dq) or (dq)(dq) are very small.
	 Skipping Hessian update for step 9.
	Denominators (dg)(dq) or (dq)(dq) are very small.
	 Skipping Hessian update for step 8.
	Denominators (dg)(dq) or (dq)(dq) are very small.
	 Skipping Hessian update for step 7.
	Denominators (dg)(dq) or (dq)(dq) are very small.
	 Skipping Hessian update for step 6.
	Denominators (dg)(dq) or (dq)(dq) are very small.
	 Skipping Hessian update for step 5.
	Denominators (dg)(dq) or (dq)(dq) are very small.
	 Skipping Hessian update for step 4.
	Denominators (dg)(dq) or (dq)(dq) are very small.
	 Skipping Hessian update for step 3.
	Denominators (dg)(dq) or (dq)(dq) are very small.
	 Skipping Hessian update for step 2.
	Steps to be used in Hessian update: 1
	Taking RFO optimization step.
	Going to follow RFO solution 1.
	Using RFO vector 1.
	Norm of target step-size    0.00002
	Projected energy change by RFO approximation:        -0.0000000000

	Back-transformation to cartesian coordinates...
	Successfully converged to displaced geometry.

	--- Internal Coordinate Step in ANG or DEG, aJ/ANG or AJ/DEG ---
	 ---------------------------------------------------------------------------
	   Coordinate                Previous        Force       Change         New 
	   ----------                --------       ------       ------       ------
	    1 R(1,2)          =      1.089423    -0.000006    -0.000000     1.089423
	    2 R(1,3)          =      1.091423    -0.000006    -0.000000     1.091423
	    3 R(1,4)          =      1.089735    -0.000005    -0.000000     1.089735
	    4 R(1,9)          =      1.525115    -0.000001    -0.000000     1.525115
	    5 R(5,6)          =      1.090846    -0.000004    -0.000000     1.090846
	    6 R(5,7)          =      1.090265    -0.000004    -0.000000     1.090264
	    7 R(5,8)          =      1.088764    -0.000005    -0.000000     1.088764
	    8 R(5,12)         =      1.526576    -0.000001    -0.000000     1.526576
	    9 R(9,10)         =      1.093541    -0.000006    -0.000000     1.093541
	   10 R(9,11)         =      1.092264    -0.000004    -0.000000     1.092264
	   11 R(9,15)         =      1.527011    -0.000002    -0.000000     1.527011
	   12 R(12,13)        =      1.091681    -0.000002     0.000000     1.091681
	   13 R(12,14)        =      1.094027    -0.000005    -0.000000     1.094027
	   14 R(12,24)        =      1.535399    -0.000002     0.000000     1.535399
	   15 R(15,16)        =      1.093777    -0.000006    -0.000000     1.093777
	   16 R(15,17)        =      1.095145    -0.000007    -0.000000     1.095145
	   17 R(15,18)        =      1.524567    -0.000004    -0.000000     1.524567
	   18 R(18,19)        =      1.091589    -0.000008    -0.000000     1.091589
	   19 R(18,20)        =      1.095744    -0.000010    -0.000000     1.095744
	   20 R(18,21)        =      1.524098    -0.000002     0.000000     1.524098
	   21 R(21,22)        =      1.095018    -0.000006    -0.000000     1.095018
	   22 R(21,23)        =      1.094191    -0.000006    -0.000000     1.094191
	   23 R(21,24)        =      1.528389    -0.000002    -0.000000     1.528389
	   24 R(24,25)        =      1.092186    -0.000004    -0.000000     1.092186
	   25 R(24,26)        =      1.094689    -0.000006    -0.000000     1.094689
	   26 B(1,9,10)       =    109.604758    -0.000000    -0.000005   109.604753
	   27 B(1,9,11)       =    109.158920     0.000000     0.000011   109.158931
	   28 B(1,9,15)       =    113.311066     0.000000    -0.000008   113.311058
	   29 B(2,1,3)        =    107.817327     0.000000     0.000000   107.817327
	   30 B(2,1,4)        =    107.573524     0.000000     0.000007   107.573531
	   31 B(2,1,9)        =    111.617811    -0.000000    -0.000018   111.617793
	   32 B(3,1,4)        =    107.869862     0.000000     0.000006   107.869867
	   33 B(3,1,9)        =    110.616800    -0.000000    -0.000005   110.616795
	   34 B(4,1,9)        =    111.181344     0.000000     0.000011   111.181355
	   35 B(5,12,13)      =    108.247761     0.000000    -0.000001   108.247759
	   36 B(5,12,14)      =    109.946931     0.000000    -0.000001   109.946930
	   37 B(5,12,24)      =    113.721158    -0.000000     0.000009   113.721167
	   38 B(6,5,7)        =    107.803515    -0.000000     0.000001   107.803516
	   39 B(6,5,8)        =    107.554320     0.000000     0.000005   107.554325
	   40 B(6,5,12)       =    110.196703    -0.000000     0.000005   110.196708
	   41 B(7,5,8)        =    107.990367    -0.000000     0.000000   107.990367
	   42 B(7,5,12)       =    111.307239     0.000000     0.000003   111.307241
	   43 B(8,5,12)       =    111.821477    -0.000000    -0.000013   111.821464
	   44 B(9,15,16)      =    109.254714    -0.000000    -0.000012   109.254703
	   45 B(9,15,17)      =    109.216438     0.000000     0.000014   109.216453
	   46 B(9,15,18)      =    113.799447     0.000000     0.000015   113.799462
	   47 B(10,9,11)      =    106.461708     0.000000     0.000007   106.461715
	   48 B(10,9,15)      =    109.072064    -0.000000    -0.000015   109.072049
	   49 B(11,9,15)      =    109.002118     0.000000     0.000011   109.002129
	   50 B(12,24,21)     =    114.354355     0.000000    -0.000004   114.354351
	   51 B(12,24,25)     =    109.463012    -0.000000    -0.000009   109.463004
	   52 B(12,24,26)     =    109.158101     0.000000     0.000016   109.158118
	   53 B(13,12,14)     =    106.095105    -0.000000    -0.000000   106.095104
	   54 B(13,12,24)     =    109.394556     0.000000    -0.000005   109.394551
	   55 B(14,12,24)     =    109.151660     0.000000    -0.000002   109.151659
	   56 B(15,18,19)     =    109.534422     0.000000     0.000017   109.534439
	   57 B(15,18,20)     =    109.246072     0.000000    -0.000005   109.246067
	   58 B(15,18,21)     =    112.194379    -0.000000    -0.000051   112.194327
	   59 B(16,15,17)     =    106.463309     0.000000     0.000011   106.463319
	   60 B(16,15,18)     =    108.761239    -0.000000    -0.000033   108.761205
	   61 B(17,15,18)     =    109.086907    -0.000000     0.000005   109.086912
	   62 B(18,21,22)     =    108.701217    -0.000000     0.000022   108.701239
	   63 B(18,21,23)     =    108.770617    -0.000000    -0.000025   108.770592
	   64 B(18,21,24)     =    114.973552     0.000000    -0.000005   114.973547
	   65 B(19,18,20)     =    106.779229     0.000000     0.000032   106.779261
	   66 B(19,18,21)     =    109.413219     0.000000     0.000032   109.413251
	   67 B(20,18,21)     =    109.524330     0.000000    -0.000021   109.524309
	   68 B(21,24,25)     =    107.918284     0.000000     0.000010   107.918293
	   69 B(21,24,26)     =    109.378414    -0.000000    -0.000027   109.378387
	   70 B(22,21,23)     =    106.334076     0.000000     0.000003   106.334080
	   71 B(22,21,24)     =    108.743846     0.000000     0.000008   108.743854
	   72 B(23,21,24)     =    108.972738    -0.000000    -0.000002   108.972735
	   73 B(25,24,26)     =    106.254178     0.000000     0.000014   106.254193
	   74 D(1,9,15,16)    =    175.061454     0.000000    -0.000022   175.061432
	   75 D(1,9,15,17)    =     58.979204     0.000000    -0.000036    58.979168
	   76 D(1,9,15,18)    =    -63.175713    -0.000000    -0.000064   -63.175776
	   77 D(2,1,9,10)     =    -57.592240     0.000000    -0.000141   -57.592381
	   78 D(2,1,9,11)     =   -173.836510    -0.000000    -0.000153  -173.836663
	   79 D(2,1,9,15)     =     64.492453    -0.000000    -0.000169    64.492284
	   80 D(3,1,9,10)     =   -177.641374     0.000000    -0.000126  -177.641500
	   81 D(3,1,9,11)     =     66.114356     0.000000    -0.000138    66.114218
	   82 D(3,1,9,15)     =    -55.556681    -0.000000    -0.000154   -55.556835
	   83 D(4,1,9,10)     =     62.531265     0.000000    -0.000137    62.531129
	   84 D(4,1,9,11)     =    -53.713005    -0.000000    -0.000148   -53.713153
	   85 D(4,1,9,15)     =   -175.384042    -0.000000    -0.000165  -175.384207
	   86 D(5,12,24,21)   =    -94.665119    -0.000000    -0.000048   -94.665167
	   87 D(5,12,24,25)   =    144.126877    -0.000000    -0.000051   144.126825
	   88 D(5,12,24,26)   =     28.211548    -0.000000    -0.000073    28.211475
	   89 D(6,5,12,13)    =     60.406373    -0.000000     0.000117    60.406489
	   90 D(6,5,12,14)    =    175.886630     0.000000     0.000115   175.886745
	   91 D(6,5,12,24)    =    -61.383045     0.000000     0.000118   -61.382927
	   92 D(7,5,12,13)    =    -59.142480    -0.000000     0.000111   -59.142369
	   93 D(7,5,12,14)    =     56.337777     0.000000     0.000109    56.337887
	   94 D(7,5,12,24)    =    179.068102     0.000000     0.000112   179.068214
	   95 D(8,5,12,13)    =    179.975234    -0.000000     0.000118   179.975352
	   96 D(8,5,12,14)    =    -64.544508    -0.000000     0.000116   -64.544392
	   97 D(8,5,12,24)    =     58.185817     0.000000     0.000119    58.185936
	   98 D(9,15,18,19)   =     61.411623     0.000000     0.000282    61.411905
	   99 D(9,15,18,20)   =    -55.224426    -0.000000     0.000236   -55.224190
	  100 D(9,15,18,21)   =   -176.876437     0.000000     0.000300  -176.876136
	  101 D(10,9,15,16)   =    -62.557361     0.000000    -0.000045   -62.557406
	  102 D(10,9,15,17)   =   -178.639611    -0.000000    -0.000059  -178.639670
	  103 D(10,9,15,18)   =     59.205472    -0.000000    -0.000086    59.205386
	  104 D(11,9,15,16)   =     53.302650     0.000000    -0.000039    53.302611
	  105 D(11,9,15,17)   =    -62.779600    -0.000000    -0.000053   -62.779653
	  106 D(11,9,15,18)   =    175.065483    -0.000000    -0.000080   175.065402
	  107 D(12,24,21,18)  =     59.368743     0.000000     0.000225    59.368968
	  108 D(12,24,21,22)  =    -62.741932     0.000000     0.000194   -62.741738
	  109 D(12,24,21,23)  =   -178.254641     0.000000     0.000187  -178.254454
	  110 D(13,12,24,21)  =    144.184073    -0.000000    -0.000049   144.184024
	  111 D(13,12,24,25)  =     22.976069    -0.000000    -0.000052    22.976017
	  112 D(13,12,24,26)  =    -92.939260    -0.000000    -0.000074   -92.939334
	  113 D(14,12,24,21)  =     28.500916    -0.000000    -0.000045    28.500871
	  114 D(14,12,24,25)  =    -92.707088    -0.000000    -0.000048   -92.707136
	  115 D(14,12,24,26)  =    151.377583    -0.000000    -0.000070   151.377513
	  116 D(15,18,21,22)  =    -61.327709    -0.000000    -0.000059   -61.327768
	  117 D(15,18,21,23)  =     54.053250    -0.000000    -0.000057    54.053193
	  118 D(15,18,21,24)  =    176.538604    -0.000000    -0.000083   176.538522
	  119 D(16,15,18,19)  =   -176.552430     0.000000     0.000253  -176.552177
	  120 D(16,15,18,20)  =     66.811522    -0.000000     0.000207    66.811729
	  121 D(16,15,18,21)  =    -54.840489     0.000000     0.000271   -54.840218
	  122 D(17,15,18,19)  =    -60.814756     0.000000     0.000250   -60.814506
	  123 D(17,15,18,20)  =   -177.450804    -0.000000     0.000204  -177.450601
	  124 D(17,15,18,21)  =     60.897185     0.000000     0.000268    60.897453
	  125 D(18,21,24,25)  =   -178.574843     0.000000     0.000218  -178.574625
	  126 D(18,21,24,26)  =    -63.388497     0.000000     0.000227   -63.388270
	  127 D(19,18,21,22)  =     60.453498    -0.000000    -0.000049    60.453449
	  128 D(19,18,21,23)  =    175.834457    -0.000000    -0.000047   175.834410
	  129 D(19,18,21,24)  =    -61.680188    -0.000000    -0.000073   -61.680261
	  130 D(20,18,21,22)  =    177.179602     0.000000    -0.000004   177.179598
	  131 D(20,18,21,23)  =    -67.439439     0.000000    -0.000001   -67.439440
	  132 D(20,18,21,24)  =     55.045916     0.000000    -0.000027    55.045888
	  133 D(22,21,24,25)  =     59.314482     0.000000     0.000187    59.314670
	  134 D(22,21,24,26)  =    174.500829     0.000000     0.000196   174.501024
	  135 D(23,21,24,25)  =    -56.198227    -0.000000     0.000180   -56.198046
	  136 D(23,21,24,26)  =     58.988120    -0.000000     0.000189    58.988309
	  137 R(5,18)         =      3.390685     0.000001     0.000002     3.390687
	 ---------------------------------------------------------------------------

  ==> Convergence Check <==

  Measures of convergence in internal coordinates in au.
  Criteria marked as inactive (o), active & met (*), and active & unmet ( ).
  ---------------------------------------------------------------------------------------------
   Step     Total Energy     Delta E     MAX Force     RMS Force      MAX Disp      RMS Disp   
  ---------------------------------------------------------------------------------------------
    Convergence Criteria             o    2.00e-06 *    1.00e-06 *    6.00e-06 *    4.00e-06 *
  ---------------------------------------------------------------------------------------------
     15    -314.98062598    3.41e-09 o    1.16e-06 *    2.84e-07 *    5.24e-06 *    1.77e-06 *  ~
  ---------------------------------------------------------------------------------------------


  **** Optimization is complete! (in 15 steps) ****

  ==> Optimization Summary <==

  Measures of convergence in internal coordinates in au.
  --------------------------------------------------------------------------------------------------------------- ~
   Step         Total Energy             Delta E       MAX Force       RMS Force        MAX Disp        RMS Disp  ~
  --------------------------------------------------------------------------------------------------------------- ~
      1    -314.980625985286   -314.980625985286      0.00000086      0.00000023      0.00004538      0.00001274  ~
      2    -314.980625985179      0.000000000107      0.00000129      0.00000036      0.00002991      0.00001026  ~
      3    -314.980625985630     -0.000000000451      0.00000092      0.00000023      0.00001307      0.00000445  ~
      4    -314.980625986386     -0.000000000756      0.00000101      0.00000021      0.00004140      0.00001075  ~
      5    -314.980625984441      0.000000001945      0.00000134      0.00000032      0.00003675      0.00001286  ~
      6    -314.980625985309     -0.000000000868      0.00000119      0.00000030      0.00002077      0.00000787  ~
      7    -314.980625985419     -0.000000000110      0.00000086      0.00000021      0.00004730      0.00001438  ~
      8    -314.980625988077     -0.000000002659      0.00000139      0.00000037      0.00003584      0.00001045  ~
      9    -314.980625984964      0.000000003114      0.00000061      0.00000015      0.00004097      0.00001280  ~
     10    -314.980625987549     -0.000000002585      0.00000144      0.00000032      0.00003686      0.00001188  ~
     11    -314.980625985853      0.000000001696      0.00000148      0.00000035      0.00001775      0.00000538  ~
     12    -314.980625985084      0.000000000769      0.00000045      0.00000013      0.00000887      0.00000279  ~
     13    -314.980625986250     -0.000000001166      0.00000055      0.00000014      0.00000946      0.00000296  ~
     14    -314.980625987760     -0.000000001510      0.00000147      0.00000032      0.00001008      0.00000385  ~
     15    -314.980625984351      0.000000003409      0.00000116      0.00000028      0.00000524      0.00000177  ~
  --------------------------------------------------------------------------------------------------------------- ~

	Writing optimization data to binary file.
	Final energy is   -314.9806259843508
	Final (previous) structure:
	Cartesian Geometry (in Angstrom)
	    C    -2.8875816791  -1.3187148260  -0.3754697384
	    H    -1.9997679307  -1.9085328809  -0.1502072226
	    H    -2.9213848857  -1.1652532281  -1.4555211680
	    H    -3.7570839962  -1.9125749313  -0.0947237479
	    C     2.3620325331  -1.6491262704   0.3874962717
	    H     2.9564750929  -1.5739697225   1.2990529315
	    H     2.6545144291  -2.5649818789  -0.1266434379
	    H     1.3187935124  -1.7478572546   0.6829816476
	    C    -2.8741449566   0.0190057887   0.3568545145
	    H    -2.7978897235  -0.1531542924   1.4340633769
	    H    -3.8263718269   0.5278474599   0.1913730791
	    C     2.5889521286  -0.4224012781  -0.4923267988
	    H     3.6482432173  -0.3797824090  -0.7528117131
	    H     2.0486547299  -0.5354520502  -1.4368868773
	    C    -1.7364885959   0.9375202385  -0.0834093123
	    H    -1.8405912342   1.9052712836   0.4155592910
	    H    -1.8247300024   1.1311371536  -1.1576851379
	    C    -0.3478114768   0.3811820907   0.2104764852
	    H    -0.2078239017  -0.5559381991  -0.3315343147
	    H    -0.2722070185   0.1437855770   1.2775204064
	    C     0.7569901904   1.3583606419  -0.1734650463
	    H     0.7002285823   1.5469140547  -1.2506324424
	    H     0.5651055259   2.3172946211   0.3173306835
	    C     2.1733901235   0.8986440610   0.1706939692
	    H     2.8651826217   1.6892077516  -0.1281412908
	    H     2.2698861164   0.8014443687   1.2567810276
	Saving final (previous) structure.
			--------------------------
			 OPTKING Finished Execution 
			--------------------------

    Final optimized geometry and variables:
    Molecular point group: c1
    Full point group: C1

    Geometry (in Angstrom), charge = 0, multiplicity = 1:

    C           -2.887581679142    -1.318714825980    -0.375469738364
    H           -1.999767930744    -1.908532880853    -0.150207222606
    H           -2.921384885661    -1.165253228094    -1.455521167961
    H           -3.757083996164    -1.912574931263    -0.094723747857
    C            2.362032533110    -1.649126270382     0.387496271716
    H            2.956475092892    -1.573969722539     1.299052931473
    H            2.654514429083    -2.564981878932    -0.126643437930
    H            1.318793512397    -1.747857254565     0.682981647609
    C           -2.874144956564     0.019005788740     0.356854514496
    H           -2.797889723514    -0.153154292388     1.434063376916
    H           -3.826371826911     0.527847459903     0.191373079067
    C            2.588952128565    -0.422401278129    -0.492326798845
    H            3.648243217273    -0.379782409036    -0.752811713113
    H            2.048654729933    -0.535452050211    -1.436886877282
    C           -1.736488595913     0.937520238519    -0.083409312343
    H           -1.840591234178     1.905271283553     0.415559291044
    H           -1.824730002429     1.131137153562    -1.157685137867
    C           -0.347811476817     0.381182090709     0.210476485167
    H           -0.207823901681    -0.555938199070    -0.331534314668
    H           -0.272207018515     0.143785577001     1.277520406412
    C            0.756990190360     1.358360641932    -0.173465046344
    H            0.700228582274     1.546914054697    -1.250632442405
    H            0.565105525879     2.317294621126     0.317330683471
    C            2.173390123467     0.898644061047     0.170693969242
    H            2.865182621710     1.689207751585    -0.128141290825
    H            2.269886116433     0.801444368684     1.256781027567

	Cleaning optimization helper files.

*** Psi4 exiting successfully. Buy a developer a beer!
