    -----------------------------------------------------------------------
          Psi4: An Open-Source Ab Initio Electronic Structure Package
                              Psi4 1.0.0 Driver

                          Git: Rev {master} 6a9a71b dirty

    J. M. Turney, A. C. Simmonett, R. M. Parrish, E. G. Hohenstein,
    F. A. Evangelista, J. T. Fermann, B. J. Mintz, L. A. Burns, J. J. Wilke,
    M. L. Abrams, N. J. Russ, M. L. Leininger, C. L. Janssen, E. T. Seidl,
    W. D. Allen, H. F. Schaefer, R. A. King, E. F. Valeev, C. D. Sherrill,
    and T. D. Crawford, WIREs Comput. Mol. Sci. 2, 556-565 (2012)
    (doi: 10.1002/wcms.93)

                         Additional Contributions by
    A. E. DePrince, U. Bozkaya, A. Yu. Sokolov, D. G. A. Smith, R. Di Remigio,
    R. M. Richard, J. F. Gonthier, H. R. McAlexander, M. Saitow, and
    B. P. Pritchard
    -----------------------------------------------------------------------


    Psi4 started on: Tue Sep 20 22:40:02 2016

    Process ID:  46429
    PSI4DATADIR: /usr/local/hpc5/psi4conda/share/psi4
    Memory level set to 256.000 MB

  ==> Input File <==

--------------------------------------------------------------------------
memory 60 Gb

molecule molecule_08_psi {
0 1
C            3.501549419731     0.741734291610     0.121007237957
H            3.160860270906     1.739181047691     0.402290541809
H            4.252162066137     0.852460970674    -0.661195517954
H            3.986244441711     0.299398403209     0.992232707539
C           -3.312883356817    -0.001830681034     0.420119239156
H           -3.021807584304    -1.042387103939     0.562508418538
H           -3.880645140840     0.060232517999    -0.509918174437
H           -3.979678259868     0.269079891666     1.238371241427
C            2.329650775820    -0.116505235793    -0.339733656450
H            2.687719629429    -1.107585069683    -0.633339487901
H            1.883291645299     0.328599402772    -1.231694967188
C           -2.097475441449     0.917593712440     0.372320973186
H           -2.432212905712     1.956606276348     0.333203695033
H           -1.526053568546     0.816373177714     1.298053797844
C            1.271529018814    -0.269408723848     0.746657450842
H            0.881163446009     0.719337091852     1.005659097601
H            1.750478253578    -0.653071029319     1.652385605012
C            0.123634211508    -1.201424967444     0.362181281658
H           -0.571458762278    -1.278204426116     1.202485423438
H            0.523424674032    -2.207389796060     0.204614555764
C           -0.638295596457    -0.773694778011    -0.892991549703
H            0.015289003354    -0.858685483650    -1.764239756927
H           -1.456961523922    -1.476459958206    -1.064853570001
C           -1.190882872890     0.650511198466    -0.828532828418
H           -0.361902021926     1.363212331868    -0.817039522577
H           -1.753054986344     0.850663532398    -1.745492924479
}

set globals {
  reference rhf
  g_convergence gau_verytight
  basis aug-cc-pvtz
  freeze_core true
  scf_type df
  mp_type df
}
optimize('mp2')
--------------------------------------------------------------------------
/usr/local/hpc5/psi4conda/lib/python2.7/site-packages/v2rdm_casscf/v2rdm_casscf.so loaded.

  Memory set to  60.000 GiB by Python script.
gradient() will perform analytic gradient computation.

*** tstart() called on wr37
*** at Tue Sep 20 22:40:02 2016


         ---------------------------------------------------------
                                   SCF
            by Justin Turney, Rob Parrish, and Andy Simmonett
                              RHF Reference
                       12 Threads,  60000 MiB Core
         ---------------------------------------------------------

  ==> Geometry <==

    Molecular point group: c1
    Full point group: C1

    Geometry (in Angstrom), charge = 0, multiplicity = 1:

       Center              X                  Y                   Z               Mass       
    ------------   -----------------  -----------------  -----------------  -----------------
           C          3.501549419731     0.741734291610     0.121007237957    12.000000000000
           H          3.160860270906     1.739181047691     0.402290541809     1.007825032070
           H          4.252162066137     0.852460970674    -0.661195517954     1.007825032070
           H          3.986244441711     0.299398403209     0.992232707539     1.007825032070
           C         -3.312883356817    -0.001830681034     0.420119239156    12.000000000000
           H         -3.021807584304    -1.042387103939     0.562508418538     1.007825032070
           H         -3.880645140840     0.060232517999    -0.509918174437     1.007825032070
           H         -3.979678259868     0.269079891666     1.238371241427     1.007825032070
           C          2.329650775820    -0.116505235793    -0.339733656450    12.000000000000
           H          2.687719629429    -1.107585069683    -0.633339487901     1.007825032070
           H          1.883291645299     0.328599402772    -1.231694967188     1.007825032070
           C         -2.097475441449     0.917593712440     0.372320973186    12.000000000000
           H         -2.432212905712     1.956606276348     0.333203695033     1.007825032070
           H         -1.526053568546     0.816373177714     1.298053797844     1.007825032070
           C          1.271529018814    -0.269408723848     0.746657450842    12.000000000000
           H          0.881163446009     0.719337091852     1.005659097601     1.007825032070
           H          1.750478253578    -0.653071029319     1.652385605012     1.007825032070
           C          0.123634211508    -1.201424967444     0.362181281658    12.000000000000
           H         -0.571458762278    -1.278204426116     1.202485423438     1.007825032070
           H          0.523424674032    -2.207389796060     0.204614555764     1.007825032070
           C         -0.638295596457    -0.773694778011    -0.892991549703    12.000000000000
           H          0.015289003354    -0.858685483650    -1.764239756927     1.007825032070
           H         -1.456961523922    -1.476459958206    -1.064853570001     1.007825032070
           C         -1.190882872890     0.650511198466    -0.828532828418    12.000000000000
           H         -0.361902021926     1.363212331868    -0.817039522577     1.007825032070
           H         -1.753054986344     0.850663532398    -1.745492924479     1.007825032070

  Running in c1 symmetry.

  Rotational constants: A =      0.13655  B =      0.02791  C =      0.02705 [cm^-1]
  Rotational constants: A =   4093.53181  B =    836.61411  C =    810.94885 [MHz]
  Nuclear repulsion =  402.721590963478604

  Charge       = 0
  Multiplicity = 1
  Electrons    = 66
  Nalpha       = 33
  Nbeta        = 33

  ==> Algorithm <==

  SCF Algorithm Type is DF.
  DIIS enabled.
  MOM disabled.
  Fractional occupation disabled.
  Guess Type is SAD.
  Energy threshold   = 1.00e-10
  Density threshold  = 1.00e-10
  Integral threshold = 0.00e+00

  ==> Primary Basis <==

  Basis Set: AUG-CC-PVTZ
    Number of shells: 274
    Number of basis function: 782
    Number of Cartesian functions: 890
    Spherical Harmonics?: true
    Max angular momentum: 3

  ==> Pre-Iterations <==

   -------------------------------------------------------
    Irrep   Nso     Nmo     Nalpha   Nbeta   Ndocc  Nsocc
   -------------------------------------------------------
     A        782     782       0       0       0       0
   -------------------------------------------------------
    Total     782     782      33      33      33       0
   -------------------------------------------------------

  ==> Integral Setup <==

  ==> DFJK: Density-Fitted J/K Matrices <==

    J tasked:                  Yes
    K tasked:                  Yes
    wK tasked:                  No
    OpenMP threads:             12
    Integrals threads:          12
    Memory (MB):             42915
    Algorithm:                Core
    Integral Cache:           NONE
    Schwarz Cutoff:          1E-12
    Fitting Condition:       1E-12

   => Auxiliary Basis Set <=

  Basis Set: 
    Number of shells: 492
    Number of basis function: 1660
    Number of Cartesian functions: 2038
    Spherical Harmonics?: true
    Max angular momentum: 4

  Minimum eigenvalue in the overlap matrix is 1.5966689447E-06.
  Using Symmetric Orthogonalization.
  SCF Guess: Superposition of Atomic Densities via on-the-fly atomic UHF.

  ==> Iterations <==

                           Total Energy        Delta E     RMS |[F,P]|

   @DF-RHF iter   0:  -316.94825259415785   -3.16948e+02   7.00796e-03 
   @DF-RHF iter   1:  -313.29028972307657    3.65796e+00   7.20669e-04 
   @DF-RHF iter   2:  -313.50588893169714   -2.15599e-01   2.67529e-04 DIIS
   @DF-RHF iter   3:  -313.53417050776414   -2.82816e-02   1.01776e-04 DIIS
   @DF-RHF iter   4:  -313.53946270830414   -5.29220e-03   1.66201e-05 DIIS
   @DF-RHF iter   5:  -313.53963310850514   -1.70400e-04   5.47066e-06 DIIS
   @DF-RHF iter   6:  -313.53964873867409   -1.56302e-05   1.36440e-06 DIIS
   @DF-RHF iter   7:  -313.53964985564681   -1.11697e-06   2.73818e-07 DIIS
   @DF-RHF iter   8:  -313.53964990938374   -5.37369e-08   8.36116e-08 DIIS
   @DF-RHF iter   9:  -313.53964991353092   -4.14718e-09   2.37635e-08 DIIS
   @DF-RHF iter  10:  -313.53964991393030   -3.99382e-10   5.95968e-09 DIIS
   @DF-RHF iter  11:  -313.53964991395725   -2.69438e-11   1.55460e-09 DIIS
   @DF-RHF iter  12:  -313.53964991395929   -2.04636e-12   4.32862e-10 DIIS
   @DF-RHF iter  13:  -313.53964991395907    2.27374e-13   1.11667e-10 DIIS
   @DF-RHF iter  14:  -313.53964991395895    1.13687e-13   2.96623e-11 DIIS

  ==> Post-Iterations <==

    Orbital Energies (a.u.)
    -----------------------

    Doubly Occupied:                                                      

       1A    -11.212374     2A    -11.212174     3A    -11.210502  
       4A    -11.210344     5A    -11.209720     6A    -11.208964  
       7A    -11.207236     8A    -11.206874     9A     -1.097168  
      10A     -1.057950    11A     -1.005651    12A     -0.946955  
      13A     -0.889264    14A     -0.836562    15A     -0.789699  
      16A     -0.739839    17A     -0.652547    18A     -0.639025  
      19A     -0.611472    20A     -0.581184    21A     -0.577418  
      22A     -0.569798    23A     -0.543899    24A     -0.523977  
      25A     -0.518188    26A     -0.506676    27A     -0.487088  
      28A     -0.474562    29A     -0.468964    30A     -0.462304  
      31A     -0.443214    32A     -0.436892    33A     -0.434461  

    Virtual:                                                              

      34A      0.029958    35A      0.033298    36A      0.033749  
      37A      0.034576    38A      0.045643    39A      0.048917  
      40A      0.050062    41A      0.053317    42A      0.055951  
      43A      0.066733    44A      0.067497    45A      0.071446  
      46A      0.072679    47A      0.079369    48A      0.087201  
      49A      0.091898    50A      0.095150    51A      0.100021  
      52A      0.112804    53A      0.115027    54A      0.117783  
      55A      0.125039    56A      0.127475    57A      0.129972  
      58A      0.134698    59A      0.134725    60A      0.138684  
      61A      0.145407    62A      0.146466    63A      0.149981  
      64A      0.156404    65A      0.160316    66A      0.162919  
      67A      0.164774    68A      0.168305    69A      0.173085  
      70A      0.174477    71A      0.177857    72A      0.181403  
      73A      0.185197    74A      0.190819    75A      0.192559  
      76A      0.199138    77A      0.216204    78A      0.217751  
      79A      0.225414    80A      0.232486    81A      0.240458  
      82A      0.249924    83A      0.256595    84A      0.259715  
      85A      0.268203    86A      0.274639    87A      0.276078  
      88A      0.280120    89A      0.288236    90A      0.290269  
      91A      0.295590    92A      0.307332    93A      0.312730  
      94A      0.314181    95A      0.314854    96A      0.319715  
      97A      0.322617    98A      0.330887    99A      0.333366  
     100A      0.337930   101A      0.343143   102A      0.345533  
     103A      0.348673   104A      0.353016   105A      0.357999  
     106A      0.358774   107A      0.362768   108A      0.366456  
     109A      0.370516   110A      0.371824   111A      0.375359  
     112A      0.379860   113A      0.382147   114A      0.386242  
     115A      0.391140   116A      0.393592   117A      0.406524  
     118A      0.407590   119A      0.409123   120A      0.415011  
     121A      0.418181   122A      0.428866   123A      0.430448  
     124A      0.431297   125A      0.434248   126A      0.439884  
     127A      0.447404   128A      0.451138   129A      0.452088  
     130A      0.453426   131A      0.458260   132A      0.464182  
     133A      0.465789   134A      0.470263   135A      0.471185  
     136A      0.474779   137A      0.480497   138A      0.483067  
     139A      0.486421   140A      0.491171   141A      0.492659  
     142A      0.499170   143A      0.501219   144A      0.504983  
     145A      0.508223   146A      0.514833   147A      0.515511  
     148A      0.519515   149A      0.525960   150A      0.531371  
     151A      0.535684   152A      0.542655   153A      0.545171  
     154A      0.553236   155A      0.554168   156A      0.556886  
     157A      0.562742   158A      0.567324   159A      0.571899  
     160A      0.573838   161A      0.576687   162A      0.581416  
     163A      0.587442   164A      0.591636   165A      0.593594  
     166A      0.601867   167A      0.608832   168A      0.611702  
     169A      0.613210   170A      0.616856   171A      0.627848  
     172A      0.631435   173A      0.636561   174A      0.642865  
     175A      0.645511   176A      0.647836   177A      0.653489  
     178A      0.657749   179A      0.663427   180A      0.671226  
     181A      0.674567   182A      0.684469   183A      0.686348  
     184A      0.692493   185A      0.696144   186A      0.698701  
     187A      0.706518   188A      0.710819   189A      0.718302  
     190A      0.726892   191A      0.731735   192A      0.737580  
     193A      0.745643   194A      0.751427   195A      0.753865  
     196A      0.759978   197A      0.763725   198A      0.766227  
     199A      0.773265   200A      0.789368   201A      0.790285  
     202A      0.807732   203A      0.815535   204A      0.828233  
     205A      0.834095   206A      0.836029   207A      0.841828  
     208A      0.849257   209A      0.859261   210A      0.861412  
     211A      0.870796   212A      0.875878   213A      0.878416  
     214A      0.886082   215A      0.892312   216A      0.896011  
     217A      0.905269   218A      0.910867   219A      0.915064  
     220A      0.917208   221A      0.920961   222A      0.923441  
     223A      0.932471   224A      0.933760   225A      0.940646  
     226A      0.942838   227A      0.947546   228A      0.956550  
     229A      0.960953   230A      0.965681   231A      0.969890  
     232A      0.976252   233A      0.978221   234A      0.981189  
     235A      0.993167   236A      0.996507   237A      0.998914  
     238A      1.001170   239A      1.008622   240A      1.010546  
     241A      1.017166   242A      1.021369   243A      1.027575  
     244A      1.030081   245A      1.036392   246A      1.040840  
     247A      1.049758   248A      1.058716   249A      1.063277  
     250A      1.066703   251A      1.068365   252A      1.073425  
     253A      1.081394   254A      1.087140   255A      1.090095  
     256A      1.093066   257A      1.094633   258A      1.098762  
     259A      1.106528   260A      1.117932   261A      1.120109  
     262A      1.126692   263A      1.130655   264A      1.131923  
     265A      1.139617   266A      1.155045   267A      1.162892  
     268A      1.164474   269A      1.175128   270A      1.177406  
     271A      1.183976   272A      1.186735   273A      1.191949  
     274A      1.197940   275A      1.201993   276A      1.208972  
     277A      1.212338   278A      1.215735   279A      1.219892  
     280A      1.233045   281A      1.233318   282A      1.241749  
     283A      1.247487   284A      1.251448   285A      1.257912  
     286A      1.263381   287A      1.272590   288A      1.276570  
     289A      1.280963   290A      1.291250   291A      1.295518  
     292A      1.301446   293A      1.303295   294A      1.304792  
     295A      1.310427   296A      1.313579   297A      1.319168  
     298A      1.327178   299A      1.328421   300A      1.333474  
     301A      1.340642   302A      1.349180   303A      1.355730  
     304A      1.361348   305A      1.368503   306A      1.369368  
     307A      1.382165   308A      1.387411   309A      1.403266  
     310A      1.406675   311A      1.410755   312A      1.426943  
     313A      1.432038   314A      1.445328   315A      1.450046  
     316A      1.454209   317A      1.473113   318A      1.479222  
     319A      1.483632   320A      1.488355   321A      1.500155  
     322A      1.503012   323A      1.508923   324A      1.517779  
     325A      1.525017   326A      1.527576   327A      1.540704  
     328A      1.545466   329A      1.548568   330A      1.554216  
     331A      1.565840   332A      1.568954   333A      1.577392  
     334A      1.587088   335A      1.595800   336A      1.600227  
     337A      1.609401   338A      1.614021   339A      1.623503  
     340A      1.626526   341A      1.631895   342A      1.639213  
     343A      1.640815   344A      1.654354   345A      1.660294  
     346A      1.665869   347A      1.668764   348A      1.683788  
     349A      1.691314   350A      1.692313   351A      1.700371  
     352A      1.705345   353A      1.706651   354A      1.715319  
     355A      1.722044   356A      1.725300   357A      1.727946  
     358A      1.738815   359A      1.746201   360A      1.757712  
     361A      1.764150   362A      1.768890   363A      1.774445  
     364A      1.777753   365A      1.783954   366A      1.797037  
     367A      1.801416   368A      1.806718   369A      1.808891  
     370A      1.817182   371A      1.829391   372A      1.832441  
     373A      1.835665   374A      1.848527   375A      1.853520  
     376A      1.860408   377A      1.863842   378A      1.869799  
     379A      1.874249   380A      1.884618   381A      1.885619  
     382A      1.890874   383A      1.899462   384A      1.907094  
     385A      1.908614   386A      1.914277   387A      1.924002  
     388A      1.932015   389A      1.934803   390A      1.939150  
     391A      1.952465   392A      1.956293   393A      1.960889  
     394A      1.971923   395A      1.976423   396A      1.984674  
     397A      1.990670   398A      2.000385   399A      2.006136  
     400A      2.012175   401A      2.015598   402A      2.024336  
     403A      2.038121   404A      2.047614   405A      2.050740  
     406A      2.058542   407A      2.067349   408A      2.068516  
     409A      2.074952   410A      2.083426   411A      2.088852  
     412A      2.103758   413A      2.106276   414A      2.110834  
     415A      2.124116   416A      2.126841   417A      2.133858  
     418A      2.138919   419A      2.143236   420A      2.145392  
     421A      2.154728   422A      2.167426   423A      2.175595  
     424A      2.188658   425A      2.196958   426A      2.199180  
     427A      2.206217   428A      2.216612   429A      2.227125  
     430A      2.243278   431A      2.257915   432A      2.258905  
     433A      2.270549   434A      2.281273   435A      2.294590  
     436A      2.296559   437A      2.302617   438A      2.312207  
     439A      2.315913   440A      2.330122   441A      2.336340  
     442A      2.348341   443A      2.362027   444A      2.365328  
     445A      2.372607   446A      2.383829   447A      2.389799  
     448A      2.396747   449A      2.408301   450A      2.418194  
     451A      2.427839   452A      2.431672   453A      2.445258  
     454A      2.460889   455A      2.466287   456A      2.472064  
     457A      2.475450   458A      2.493356   459A      2.500715  
     460A      2.506263   461A      2.521019   462A      2.540071  
     463A      2.542494   464A      2.557279   465A      2.566868  
     466A      2.577817   467A      2.582807   468A      2.596312  
     469A      2.620683   470A      2.630860   471A      2.647784  
     472A      2.654218   473A      2.667390   474A      2.678097  
     475A      2.689336   476A      2.715633   477A      2.728106  
     478A      2.733190   479A      2.741317   480A      2.764036  
     481A      2.771718   482A      2.830634   483A      2.860973  
     484A      2.914239   485A      2.946743   486A      2.954844  
     487A      2.996819   488A      3.030039   489A      3.094661  
     490A      3.112582   491A      3.235815   492A      3.255653  
     493A      3.288872   494A      3.324327   495A      3.328102  
     496A      3.399313   497A      3.416364   498A      3.449053  
     499A      3.453819   500A      3.479869   501A      3.486419  
     502A      3.500101   503A      3.507737   504A      3.516921  
     505A      3.522467   506A      3.547449   507A      3.570633  
     508A      3.574930   509A      3.591091   510A      3.606506  
     511A      3.614141   512A      3.624133   513A      3.632031  
     514A      3.645611   515A      3.650166   516A      3.662437  
     517A      3.665172   518A      3.685280   519A      3.696168  
     520A      3.704804   521A      3.706514   522A      3.718723  
     523A      3.726801   524A      3.746381   525A      3.761696  
     526A      3.768513   527A      3.772427   528A      3.782744  
     529A      3.788127   530A      3.796649   531A      3.803947  
     532A      3.806926   533A      3.823079   534A      3.832903  
     535A      3.843413   536A      3.853226   537A      3.853805  
     538A      3.858606   539A      3.868598   540A      3.883611  
     541A      3.885226   542A      3.888706   543A      3.896190  
     544A      3.907094   545A      3.921694   546A      3.941135  
     547A      3.948879   548A      3.955860   549A      3.966729  
     550A      3.972525   551A      3.980321   552A      3.987957  
     553A      3.993450   554A      3.996574   555A      4.012500  
     556A      4.015814   557A      4.018987   558A      4.026131  
     559A      4.029801   560A      4.036869   561A      4.043135  
     562A      4.050645   563A      4.054386   564A      4.058009  
     565A      4.068605   566A      4.083042   567A      4.085933  
     568A      4.095074   569A      4.100975   570A      4.104528  
     571A      4.127767   572A      4.129052   573A      4.134255  
     574A      4.150014   575A      4.158292   576A      4.159694  
     577A      4.167232   578A      4.172442   579A      4.187014  
     580A      4.196393   581A      4.205735   582A      4.219889  
     583A      4.223268   584A      4.229616   585A      4.230586  
     586A      4.249556   587A      4.254838   588A      4.262296  
     589A      4.265871   590A      4.287579   591A      4.294250  
     592A      4.300466   593A      4.312827   594A      4.319613  
     595A      4.331855   596A      4.337694   597A      4.354121  
     598A      4.360307   599A      4.369486   600A      4.370663  
     601A      4.381704   602A      4.406872   603A      4.409518  
     604A      4.415713   605A      4.432340   606A      4.441901  
     607A      4.452881   608A      4.459126   609A      4.478438  
     610A      4.488844   611A      4.495519   612A      4.515364  
     613A      4.525404   614A      4.531016   615A      4.555603  
     616A      4.558473   617A      4.603812   618A      4.605773  
     619A      4.611270   620A      4.628160   621A      4.650542  
     622A      4.666363   623A      4.679225   624A      4.688470  
     625A      4.693563   626A      4.707054   627A      4.716719  
     628A      4.718738   629A      4.727078   630A      4.732153  
     631A      4.750579   632A      4.761547   633A      4.762307  
     634A      4.781962   635A      4.788307   636A      4.797324  
     637A      4.803030   638A      4.816091   639A      4.829528  
     640A      4.837767   641A      4.841543   642A      4.856457  
     643A      4.869494   644A      4.877190   645A      4.890437  
     646A      4.893960   647A      4.913486   648A      4.921588  
     649A      4.933214   650A      4.955657   651A      4.965406  
     652A      4.968700   653A      4.990697   654A      4.993300  
     655A      5.002705   656A      5.009117   657A      5.021297  
     658A      5.045705   659A      5.062969   660A      5.081291  
     661A      5.090197   662A      5.107987   663A      5.127877  
     664A      5.148820   665A      5.163976   666A      5.176600  
     667A      5.186569   668A      5.194000   669A      5.211126  
     670A      5.217123   671A      5.225268   672A      5.234797  
     673A      5.253978   674A      5.255227   675A      5.260720  
     676A      5.280360   677A      5.286800   678A      5.297246  
     679A      5.302996   680A      5.312143   681A      5.322373  
     682A      5.334949   683A      5.339172   684A      5.358496  
     685A      5.378876   686A      5.383805   687A      5.403633  
     688A      5.406206   689A      5.418161   690A      5.418905  
     691A      5.431845   692A      5.434484   693A      5.448591  
     694A      5.454243   695A      5.459846   696A      5.470876  
     697A      5.474770   698A      5.487335   699A      5.492485  
     700A      5.512521   701A      5.529072   702A      5.542820  
     703A      5.556100   704A      5.578996   705A      5.583777  
     706A      5.611568   707A      5.618826   708A      5.636919  
     709A      5.647535   710A      5.658722   711A      5.668710  
     712A      5.679927   713A      5.692228   714A      5.693693  
     715A      5.697028   716A      5.714673   717A      5.724185  
     718A      5.735200   719A      5.750244   720A      5.757345  
     721A      5.773535   722A      5.783495   723A      5.810985  
     724A      5.824950   725A      5.831961   726A      5.840831  
     727A      5.863325   728A      5.885832   729A      5.894635  
     730A      5.927496   731A      5.945401   732A      5.961413  
     733A      5.982477   734A      5.999943   735A      6.002519  
     736A      6.030150   737A      6.057110   738A      6.065890  
     739A      6.078737   740A      6.123464   741A      6.139989  
     742A      6.159075   743A      6.173549   744A      6.210471  
     745A      6.221125   746A      6.232619   747A      6.240816  
     748A      6.255533   749A      6.290771   750A      6.307188  
     751A      6.312565   752A      6.322076   753A      6.359978  
     754A      6.369978   755A      6.380585   756A      6.397062  
     757A      6.420268   758A      6.438901   759A      6.583453  
     760A      6.612636   761A      6.644598   762A      6.680879  
     763A      6.779417   764A      6.793698   765A      6.815208  
     766A      6.869316   767A      6.882631   768A      6.918372  
     769A      6.964179   770A      7.049449   771A      7.077601  
     772A      7.104978   773A      7.168161   774A      7.187245  
     775A     18.123281   776A     18.163273   777A     18.347922  
     778A     18.435773   779A     18.575690   780A     18.874438  
     781A     19.511907   782A     19.881062  

    Final Occupation by Irrep:
              A 
    DOCC [    33 ]

  Energy converged.

  @DF-RHF Final Energy:  -313.53964991395895

   => Energetics <=

    Nuclear Repulsion Energy =            402.7215909634786044
    One-Electron Energy =               -1220.5765892987199095
    Two-Electron Energy =                 504.3153484212821240
    DFT Exchange-Correlation Energy =       0.0000000000000000
    Empirical Dispersion Energy =           0.0000000000000000
    PCM Polarization Energy =               0.0000000000000000
    EFP Energy =                            0.0000000000000000
    Total Energy =                       -313.5396499139592379


  Saving occupied orbitals to File 180.

*** tstop() called on wr37 at Tue Sep 20 22:41:25 2016
Module time:
	user time   =     900.90 seconds =      15.02 minutes
	system time =      10.41 seconds =       0.17 minutes
	total time  =         83 seconds =       1.38 minutes
Total time:
	user time   =     900.90 seconds =      15.02 minutes
	system time =      10.41 seconds =       0.17 minutes
	total time  =         83 seconds =       1.38 minutes


Properties will be evaluated at   0.000000,   0.000000,   0.000000 Bohr

Properties computed using the SCF density matrix

  Nuclear Dipole Moment: (a.u.)
     X:     0.1471      Y:     0.5919      Z:     0.4350

  Electronic Dipole Moment: (a.u.)
     X:    -0.1496      Y:    -0.5960      Z:    -0.4486

  Dipole Moment: (a.u.)
     X:    -0.0026      Y:    -0.0041      Z:    -0.0136     Total:     0.0144

  Dipole Moment: (Debye)
     X:    -0.0066      Y:    -0.0105      Z:    -0.0345     Total:     0.0367


  //>>>>>>>>>>>>>>>>>>>>>>>>>>>>>>>>>>>//
  //               DFMP2               //
  //<<<<<<<<<<<<<<<<<<<<<<<<<<<<<<<<<<<//


*** tstart() called on wr37
*** at Tue Sep 20 22:41:25 2016


*** tstop() called on wr37 at Tue Sep 20 22:41:26 2016
Module time:
	user time   =       4.83 seconds =       0.08 minutes
	system time =       0.23 seconds =       0.00 minutes
	total time  =          1 seconds =       0.02 minutes
Total time:
	user time   =     906.57 seconds =      15.11 minutes
	system time =      10.68 seconds =       0.18 minutes
	total time  =         84 seconds =       1.40 minutes
	 --------------------------------------------------------
	                          DF-MP2                         
	      2nd-Order Density-Fitted Moller-Plesset Theory     
	              RMP2 Wavefunction,  12 Threads             
	                                                         
	        Rob Parrish, Justin Turney, Andy Simmonett,      
	           Ed Hohenstein, and C. David Sherrill          
	 --------------------------------------------------------

   => Auxiliary Basis Set <=

  Basis Set: 
    Number of shells: 476
    Number of basis function: 1676
    Number of Cartesian functions: 2078
    Spherical Harmonics?: true
    Max angular momentum: 4

	 --------------------------------------------------------
	                 NBF =   782, NAUX =  1676
	 --------------------------------------------------------
	   CLASS    FOCC     OCC    AOCC    AVIR     VIR    FVIR
	   PAIRS       8      33      25     749     749       0
	 --------------------------------------------------------

DGAS Warning! /src/lib/libfock/apps.cc:80 is not currently checking restricted

         ------------------------------------------------------------
                                     CPHF                           
                                  Rob Parrish                       
         ------------------------------------------------------------

  ==> Geometry <==

    Molecular point group: c1
    Full point group: C1

    Geometry (in Angstrom), charge = 0, multiplicity = 1:

       Center              X                  Y                   Z               Mass       
    ------------   -----------------  -----------------  -----------------  -----------------
           C          3.501549419731     0.741734291610     0.121007237957    12.000000000000
           H          3.160860270906     1.739181047691     0.402290541809     1.007825032070
           H          4.252162066137     0.852460970674    -0.661195517954     1.007825032070
           H          3.986244441711     0.299398403209     0.992232707539     1.007825032070
           C         -3.312883356817    -0.001830681034     0.420119239156    12.000000000000
           H         -3.021807584304    -1.042387103939     0.562508418538     1.007825032070
           H         -3.880645140840     0.060232517999    -0.509918174437     1.007825032070
           H         -3.979678259868     0.269079891666     1.238371241427     1.007825032070
           C          2.329650775820    -0.116505235793    -0.339733656450    12.000000000000
           H          2.687719629429    -1.107585069683    -0.633339487901     1.007825032070
           H          1.883291645299     0.328599402772    -1.231694967188     1.007825032070
           C         -2.097475441449     0.917593712440     0.372320973186    12.000000000000
           H         -2.432212905712     1.956606276348     0.333203695033     1.007825032070
           H         -1.526053568546     0.816373177714     1.298053797844     1.007825032070
           C          1.271529018814    -0.269408723848     0.746657450842    12.000000000000
           H          0.881163446009     0.719337091852     1.005659097601     1.007825032070
           H          1.750478253578    -0.653071029319     1.652385605012     1.007825032070
           C          0.123634211508    -1.201424967444     0.362181281658    12.000000000000
           H         -0.571458762278    -1.278204426116     1.202485423438     1.007825032070
           H          0.523424674032    -2.207389796060     0.204614555764     1.007825032070
           C         -0.638295596457    -0.773694778011    -0.892991549703    12.000000000000
           H          0.015289003354    -0.858685483650    -1.764239756927     1.007825032070
           H         -1.456961523922    -1.476459958206    -1.064853570001     1.007825032070
           C         -1.190882872890     0.650511198466    -0.828532828418    12.000000000000
           H         -0.361902021926     1.363212331868    -0.817039522577     1.007825032070
           H         -1.753054986344     0.850663532398    -1.745492924479     1.007825032070

  Nuclear repulsion =  402.721590963478604
  Reference energy  = -313.539649913958954

  ==> Basis Set <==

  Basis Set: AUG-CC-PVTZ
    Number of shells: 274
    Number of basis function: 782
    Number of Cartesian functions: 890
    Spherical Harmonics?: true
    Max angular momentum: 3

  ==> CGRSolver (by Rob Parrish) <==

   Number of roots    =         1
   Preconditioning    =    JACOBI
   Convergence cutoff =     1E-06
   Maximum iterations =       100

  ==> CPHFRHamiltonian (by Rob Parrish) <== 

  ==> DFJK: Density-Fitted J/K Matrices <==

    J tasked:                  Yes
    K tasked:                  Yes
    wK tasked:                  No
    OpenMP threads:             12
    Integrals threads:          12
    Memory (MB):             42915
    Algorithm:                Core
    Integral Cache:           NONE
    Schwarz Cutoff:          1E-12
    Fitting Condition:       1E-12

   => Auxiliary Basis Set <=

  Basis Set: 
    Number of shells: 492
    Number of basis function: 1660
    Number of Cartesian functions: 2038
    Spherical Harmonics?: true
    Max angular momentum: 4

  ==> CPHF Iterations <==

  => Iterations <=

             Iter  Converged  Remaining    Residual
  CGR           1          0          1   9.351E-02
  CGR           2          0          1   1.355E-02
  CGR           3          0          1   4.154E-03
  CGR           4          0          1   9.122E-04
  CGR           5          0          1   2.139E-04
  CGR           6          0          1   5.028E-05
  CGR           7          0          1   1.351E-05
  CGR           8          0          1   3.159E-06
  CGR           9          1          0   8.279E-07

    CGRSolver converged.

  ==> DFCorrGrad: Density-Fitted Correlated Gradients <==

    OpenMP threads:             12
    Integrals threads:          12
    Memory (MB):             42915
    Schwarz Cutoff:          0E+00
    Fitting Condition:       1E-12

   => Auxiliary Basis Set <=

  Basis Set: 
    Number of shells: 492
    Number of basis function: 1660
    Number of Cartesian functions: 2038
    Spherical Harmonics?: true
    Max angular momentum: 4

	-----------------------------------------------------------
	 ==================> DF-MP2 Energies <==================== 
	-----------------------------------------------------------
	 Reference Energy          =    -313.5396499139589537 [Eh]
	 Singles Energy            =      -0.0000000000000001 [Eh]
	 Same-Spin Energy          =      -0.3175960907842502 [Eh]
	 Opposite-Spin Energy      =      -1.1268731099888980 [Eh]
	 Correlation Energy        =      -1.4444692007731481 [Eh]
	 Total Energy              =    -314.9841191147320956 [Eh]
	-----------------------------------------------------------
	 ================> DF-SCS-MP2 Energies <================== 
	-----------------------------------------------------------
	 SCS Same-Spin Scale       =       0.3333333333333333 [-]
	 SCS Opposite-Spin Scale   =       1.2000000000000000 [-]
	 SCS Same-Spin Energy      =      -0.1058653635947500 [Eh]
	 SCS Opposite-Spin Energy  =      -1.3522477319866775 [Eh]
	 SCS Correlation Energy    =      -1.4581130955814274 [Eh]
	 SCS Total Energy          =    -314.9977630095403924 [Eh]
	-----------------------------------------------------------


  -Total Gradient:
     Atom            X                  Y                   Z
    ------   -----------------  -----------------  -----------------
       1        0.000000114467     0.000000082522    -0.000000006192
       2        0.000000059154    -0.000000221387    -0.000000062719
       3       -0.000000166783    -0.000000034902     0.000000211151
       4       -0.000000122660     0.000000076866    -0.000000183269
       5        0.000000066154     0.000000151610     0.000000088305
       6        0.000000000885    -0.000000133551    -0.000000001658
       7       -0.000000074793    -0.000000023017    -0.000000071057
       8       -0.000000087092     0.000000004001     0.000000108390
       9       -0.000000296354    -0.000000060213    -0.000000040759
      10       -0.000000195364     0.000000427312     0.000000125142
      11        0.000000236838    -0.000000208707     0.000000289719
      12       -0.000000168662    -0.000000037303    -0.000000122165
      13       -0.000000035904     0.000000005833     0.000000035957
      14        0.000000161028     0.000000029661     0.000000179388
      15       -0.000000071924    -0.000000008407    -0.000000034739
      16        0.000000185539    -0.000000126462    -0.000000167951
      17       -0.000000121375     0.000000008536    -0.000000009512
      18        0.000000565233     0.000000019885    -0.000000400029
      19        0.000000004340     0.000000054307     0.000000062352
      20       -0.000000099548     0.000000036890     0.000000066898
      21        0.000000167182    -0.000000287672    -0.000000409481
      22       -0.000000180811     0.000000023555     0.000000241891
      23        0.000000119342     0.000000027454     0.000000071224
      24       -0.000000097731     0.000000183930    -0.000000048334
      25        0.000000011406    -0.000000040175    -0.000000031790
      26        0.000000027437     0.000000049432     0.000000109238


			-----------------------------------------
			 OPTKING 2.0: for geometry optimizations 
			  - R.A. King,  Bethel University        
			-----------------------------------------

	Internal coordinates to be generated automatically.
	Detected frag 1 with atoms:  1 2 3 4 5 6 7 8 9 10 11 12 13 14 15 16 17 18 19 20
	 21 22 23 24 25 26
	---Fragment 1 Bond Connectivity---
	 1 : 2 3 4 9
	 2 : 1
	 3 : 1
	 4 : 1
	 5 : 6 7 8 12
	 6 : 5
	 7 : 5
	 8 : 5
	 9 : 1 10 11 15
	 10 : 9
	 11 : 9
	 12 : 5 13 14 24
	 13 : 12
	 14 : 12
	 15 : 9 16 17 18
	 16 : 15
	 17 : 15
	 18 : 15 19 20 21
	 19 : 18
	 20 : 18
	 21 : 18 22 23 24
	 22 : 21
	 23 : 21
	 24 : 12 21 25 26
	 25 : 24
	 26 : 24

	---Fragment 1 Geometry and Gradient---
	 C           6.6169694441        1.4016746745        0.2286705398
	 H           5.9731602563        3.2865758756        0.7602189499
	 H           8.0354217776        1.6109177735       -1.2494784492
	 H           7.5329102936        0.5657809867        1.8750480773
	 C          -6.2604422546       -0.0034594858        0.7939103052
	 H          -5.7103887606       -1.9698261509        1.0629868585
	 H          -7.3333565351        0.1138229633       -0.9636056999
	 H          -7.5205020081        0.5084873031        2.3401824971
	 C           4.4024019516       -0.2201629887       -0.6420035688
	 H           5.0790540216       -2.0930324506       -1.1968381813
	 H           3.5589054380        0.6209628787       -2.3275661672
	 C          -3.9636541548        1.7340008178        0.7035846729
	 H          -4.5962162887        3.6974500122        0.6296637301
	 H          -2.8838233087        1.5427217281        2.4529661837
	 C           2.4028416156       -0.5091087059        1.4109780972
	 H           1.6651575913        1.3593501008        1.9004202775
	 H           3.3079245008       -1.2341253907        3.1225562594
	 C           0.2336348004       -2.2703641577        0.6844234328
	 H          -1.0799005569       -2.4154563072        2.2723681291
	 H           0.9891292851       -4.1713621831        0.3866654732
	 C          -1.2062038691       -1.4620712409       -1.6875094679
	 H           0.0288920292       -1.6226803984       -3.3339299733
	 H          -2.7532582664       -2.7901049672       -2.0122816189
	 C          -2.2504424861        1.2292880115       -1.5657001378
	 H          -0.6838957084        2.5760979682       -1.5439809374
	 H          -3.3127938201        1.6075211075       -3.2985035942
	             0.0000001145        0.0000000825       -0.0000000062
	             0.0000000592       -0.0000002214       -0.0000000627
	            -0.0000001668       -0.0000000349        0.0000002112
	            -0.0000001227        0.0000000769       -0.0000001833
	             0.0000000662        0.0000001516        0.0000000883
	             0.0000000009       -0.0000001336       -0.0000000017
	            -0.0000000748       -0.0000000230       -0.0000000711
	            -0.0000000871        0.0000000040        0.0000001084
	            -0.0000002964       -0.0000000602       -0.0000000408
	            -0.0000001954        0.0000004273        0.0000001251
	             0.0000002368       -0.0000002087        0.0000002897
	            -0.0000001687       -0.0000000373       -0.0000001222
	            -0.0000000359        0.0000000058        0.0000000360
	             0.0000001610        0.0000000297        0.0000001794
	            -0.0000000719       -0.0000000084       -0.0000000347
	             0.0000001855       -0.0000001265       -0.0000001680
	            -0.0000001214        0.0000000085       -0.0000000095
	             0.0000005652        0.0000000199       -0.0000004000
	             0.0000000043        0.0000000543        0.0000000624
	            -0.0000000995        0.0000000369        0.0000000669
	             0.0000001672       -0.0000002877       -0.0000004095
	            -0.0000001808        0.0000000236        0.0000002419
	             0.0000001193        0.0000000275        0.0000000712
	            -0.0000000977        0.0000001839       -0.0000000483
	             0.0000000114       -0.0000000402       -0.0000000318
	             0.0000000274        0.0000000494        0.0000001092

	Previous optimization step data not found.  Starting new optimization.

	---Fragment 1 Intrafragment Coordinates---
	 - Coordinate -           - BOHR/RAD -       - ANG/DEG -
	 R(1,2)           =         2.061525	       1.090912
	 R(1,3)           =         2.059299	       1.089734
	 R(1,4)           =         2.061122	       1.090699
	 R(1,9)           =         2.879712	       1.523878
	 R(5,6)           =         2.059505	       1.089843
	 R(5,7)           =         2.062465	       1.091410
	 R(5,8)           =         2.059320	       1.089745
	 R(5,12)          =         2.881347	       1.524743
	 R(9,10)          =         2.067206	       1.093918
	 R(9,11)          =         2.064001	       1.092222
	 R(9,15)          =         2.880358	       1.524220
	 R(12,13)         =         2.064154	       1.092303
	 R(12,14)         =         2.064693	       1.092589
	 R(12,24)         =         2.887816	       1.528167
	 R(15,16)         =         2.067576	       1.094114
	 R(15,17)         =         2.067444	       1.094044
	 R(15,18)         =         2.887102	       1.527789
	 R(18,19)         =         2.065913	       1.093234
	 R(18,20)         =         2.067178	       1.093904
	 R(18,21)         =         2.890076	       1.529362
	 R(21,22)         =         2.064451	       1.092460
	 R(21,23)         =         2.064589	       1.092533
	 R(21,24)         =         2.889409	       1.529010
	 R(24,25)         =         2.066020	       1.093291
	 R(24,26)         =         2.067428	       1.094036
	 B(1,9,10)        =         1.917369	     109.857158
	 B(1,9,11)        =         1.908875	     109.370473
	 B(1,9,15)        =         1.955041	     112.015599
	 B(2,1,3)         =         1.883135	     107.895709
	 B(2,1,4)         =         1.879296	     107.675733
	 B(2,1,9)         =         1.931289	     110.654734
	 B(3,1,4)         =         1.884377	     107.966863
	 B(3,1,9)         =         1.949707	     111.710010
	 B(4,1,9)         =         1.933549	     110.784221
	 B(5,12,13)       =         1.907553	     109.294709
	 B(5,12,14)       =         1.911838	     109.540250
	 B(5,12,24)       =         1.973756	     113.087880
	 B(6,5,7)         =         1.880278	     107.731987
	 B(6,5,8)         =         1.878297	     107.618499
	 B(6,5,12)        =         1.946506	     111.526566
	 B(7,5,8)         =         1.883258	     107.902714
	 B(7,5,12)        =         1.932286	     110.711822
	 B(8,5,12)        =         1.940540	     111.184775
	 B(9,15,16)       =         1.902604	     109.011203
	 B(9,15,17)       =         1.897938	     108.743861
	 B(9,15,18)       =         1.986043	     113.791908
	 B(10,9,11)       =         1.858544	     106.486719
	 B(10,9,15)       =         1.904610	     109.126101
	 B(11,9,15)       =         1.916913	     109.831023
	 B(12,24,21)      =         1.993607	     114.225247
	 B(12,24,25)      =         1.904600	     109.125526
	 B(12,24,26)      =         1.898432	     108.772155
	 B(13,12,14)      =         1.853277	     106.184965
	 B(13,12,24)      =         1.896429	     108.657405
	 B(14,12,24)      =         1.917016	     109.836931
	 B(15,18,19)      =         1.904057	     109.094448
	 B(15,18,20)      =         1.899330	     108.823582
	 B(15,18,21)      =         1.993516	     114.220036
	 B(16,15,17)      =         1.851600	     106.088869
	 B(16,15,18)      =         1.920687	     110.047286
	 B(17,15,18)      =         1.900042	     108.864387
	 B(18,21,22)      =         1.912097	     109.555113
	 B(18,21,23)      =         1.899185	     108.815269
	 B(18,21,24)      =         1.988826	     113.951327
	 B(19,18,20)      =         1.853030	     106.170802
	 B(19,18,21)      =         1.911039	     109.494443
	 B(20,18,21)      =         1.897642	     108.726862
	 B(21,24,25)      =         1.910933	     109.488400
	 B(21,24,26)      =         1.897351	     108.710221
	 B(22,21,23)      =         1.847102	     105.831158
	 B(22,21,24)      =         1.898956	     108.802153
	 B(23,21,24)      =         1.912376	     109.571099
	 B(25,24,26)      =         1.853730	     106.210927
	 D(1,9,15,16)     =         1.060315	      60.751561
	 D(1,9,15,17)     =        -0.951045	     -54.490839
	 D(1,9,15,18)     =        -3.071922	    -176.008159
	 D(2,1,9,10)      =         3.126036	     179.108689
	 D(2,1,9,11)      =         1.092044	      62.569493
	 D(2,1,9,15)      =        -1.037406	     -59.438975
	 D(3,1,9,10)      =         1.027532	      58.873226
	 D(3,1,9,11)      =        -1.006461	     -57.665970
	 D(3,1,9,15)      =        -3.135911	    -179.674438
	 D(4,1,9,10)      =        -1.074091	     -61.540868
	 D(4,1,9,11)      =        -3.108083	    -178.080064
	 D(4,1,9,15)      =         1.045652	      59.911468
	 D(5,12,24,21)    =        -1.028201	     -58.911574
	 D(5,12,24,25)    =         3.109901	     178.184181
	 D(5,12,24,26)    =         1.094666	      62.719747
	 D(6,5,12,13)     =        -3.040079	    -174.183672
	 D(6,5,12,14)     =        -1.016325	     -58.231150
	 D(6,5,12,24)     =         1.128152	      64.638373
	 D(7,5,12,13)     =         1.149675	      65.871529
	 D(7,5,12,14)     =        -3.109757	    -178.175949
	 D(7,5,12,24)     =        -0.965279	     -55.306426
	 D(8,5,12,13)     =        -0.943568	     -54.062480
	 D(8,5,12,14)     =         1.080185	      61.890041
	 D(8,5,12,24)     =        -3.058523	    -175.240435
	 D(9,15,18,19)    =         3.112730	     178.346318
	 D(9,15,18,20)    =         1.098133	      62.918368
	 D(9,15,18,21)    =        -1.025710	     -58.768846
	 D(10,9,15,16)    =        -3.095804	    -177.376509
	 D(10,9,15,17)    =         1.176022	      67.381090
	 D(10,9,15,18)    =        -0.944855	     -54.136229
	 D(11,9,15,16)    =        -1.064532	     -60.993186
	 D(11,9,15,17)    =        -3.075891	    -176.235587
	 D(11,9,15,18)    =         1.086417	      62.247094
	 D(12,24,21,18)   =        -0.975898	     -55.914832
	 D(12,24,21,22)   =        -3.114920	    -178.471768
	 D(12,24,21,23)   =         1.156414	      66.257618
	 D(13,12,24,21)   =         3.133754	     179.550858
	 D(13,12,24,25)   =         0.988670	      56.646612
	 D(13,12,24,26)   =        -1.026565	     -58.817821
	 D(14,12,24,21)   =         1.113400	      63.793139
	 D(14,12,24,25)   =        -1.031683	     -59.111107
	 D(14,12,24,26)   =        -3.046918	    -174.575540
	 D(15,18,21,22)   =         1.165731	      66.791439
	 D(15,18,21,23)   =        -3.105628	    -177.939388
	 D(15,18,21,24)   =        -0.966075	     -55.352021
	 D(16,15,18,19)   =        -1.029399	     -58.980234
	 D(16,15,18,20)   =        -3.043997	    -174.408184
	 D(16,15,18,21)   =         1.115346	      63.904602
	 D(17,15,18,19)   =         0.993023	      56.896012
	 D(17,15,18,20)   =        -1.021575	     -58.531938
	 D(17,15,18,21)   =         3.137768	     179.780848
	 D(18,21,24,25)   =         1.165744	      66.792195
	 D(18,21,24,26)   =        -3.099360	    -177.580245
	 D(19,18,21,22)   =        -2.976506	    -170.541214
	 D(19,18,21,23)   =        -0.964679	     -55.272040
	 D(19,18,21,24)   =         1.174874	      67.315327
	 D(20,18,21,22)   =        -0.959041	     -54.948983
	 D(20,18,21,23)   =         1.052786	      60.320191
	 D(20,18,21,24)   =        -3.090846	    -177.092443
	 D(22,21,24,25)   =        -0.973278	     -55.764742
	 D(22,21,24,26)   =         1.044803	      59.862819
	 D(23,21,24,25)   =        -2.985130	    -171.035355
	 D(23,21,24,26)   =        -0.967048	     -55.407795
	 R(5,18)          =         6.879235	       3.640335
	 R(9,24)          =         6.871278	       3.636124
	 R(12,15)         =         6.787062	       3.591559

	Current energy   :      -314.9841191147

	Generating empirical Hessian (Schlegel '84) for each fragment.
	Taking RFO optimization step.
	Going to follow RFO solution 1.
	Using RFO vector 1.
	Norm of target step-size    0.00007
	Projected energy change by RFO approximation:        -0.0000000001

	Back-transformation to cartesian coordinates...
	Successfully converged to displaced geometry.

	--- Internal Coordinate Step in ANG or DEG, aJ/ANG or AJ/DEG ---
	 ---------------------------------------------------------------------------
	   Coordinate                Previous        Force       Change         New 
	   ----------                --------       ------       ------       ------
	    1 R(1,2)          =      1.090912     0.000002     0.000000     1.090913
	    2 R(1,3)          =      1.089734     0.000002     0.000000     1.089735
	    3 R(1,4)          =      1.090699     0.000002     0.000000     1.090699
	    4 R(1,9)          =      1.523878     0.000001     0.000000     1.523878
	    5 R(5,6)          =      1.089843    -0.000001    -0.000000     1.089843
	    6 R(5,7)          =      1.091410    -0.000001    -0.000000     1.091409
	    7 R(5,8)          =      1.089745    -0.000001    -0.000000     1.089745
	    8 R(5,12)         =      1.524743     0.000000    -0.000000     1.524743
	    9 R(9,10)         =      1.093918     0.000004     0.000001     1.093919
	   10 R(9,11)         =      1.092222     0.000003     0.000001     1.092223
	   11 R(9,15)         =      1.524220     0.000005     0.000001     1.524221
	   12 R(12,13)        =      1.092303    -0.000000    -0.000000     1.092303
	   13 R(12,14)        =      1.092589    -0.000002    -0.000000     1.092588
	   14 R(12,24)        =      1.528167    -0.000002    -0.000001     1.528166
	   15 R(15,16)        =      1.094114     0.000002     0.000000     1.094114
	   16 R(15,17)        =      1.094044     0.000001     0.000000     1.094044
	   17 R(15,18)        =      1.527789     0.000002     0.000001     1.527789
	   18 R(18,19)        =      1.093234    -0.000000    -0.000000     1.093234
	   19 R(18,20)        =      1.093904     0.000001     0.000000     1.093904
	   20 R(18,21)        =      1.529362     0.000001     0.000000     1.529362
	   21 R(21,22)        =      1.092460     0.000003     0.000000     1.092461
	   22 R(21,23)        =      1.092533     0.000001     0.000000     1.092534
	   23 R(21,24)        =      1.529010    -0.000002    -0.000001     1.529009
	   24 R(24,25)        =      1.093291     0.000000     0.000000     1.093291
	   25 R(24,26)        =      1.094036     0.000001     0.000000     1.094036
	   26 B(1,9,10)       =    109.857158    -0.000000     0.000015   109.857173
	   27 B(1,9,11)       =    109.370473    -0.000000    -0.000029   109.370444
	   28 B(1,9,15)       =    112.015599     0.000000     0.000015   112.015614
	   29 B(2,1,3)        =    107.895709    -0.000000    -0.000012   107.895697
	   30 B(2,1,4)        =    107.675733    -0.000000    -0.000002   107.675731
	   31 B(2,1,9)        =    110.654734     0.000000     0.000004   110.654738
	   32 B(3,1,4)        =    107.966863    -0.000000     0.000003   107.966866
	   33 B(3,1,9)        =    111.710010    -0.000000    -0.000015   111.709995
	   34 B(4,1,9)        =    110.784221     0.000000     0.000021   110.784242
	   35 B(5,12,13)      =    109.294709     0.000000     0.000041   109.294751
	   36 B(5,12,14)      =    109.540250     0.000000    -0.000016   109.540234
	   37 B(5,12,24)      =    113.087880    -0.000000    -0.000096   113.087784
	   38 B(6,5,7)        =    107.731987     0.000000     0.000016   107.732003
	   39 B(6,5,8)        =    107.618499     0.000000     0.000008   107.618507
	   40 B(6,5,12)       =    111.526566    -0.000000    -0.000014   111.526552
	   41 B(7,5,8)        =    107.902714     0.000000     0.000007   107.902722
	   42 B(7,5,12)       =    110.711822    -0.000000    -0.000012   110.711810
	   43 B(8,5,12)       =    111.184775    -0.000000    -0.000004   111.184771
	   44 B(9,15,16)      =    109.011203     0.000000     0.000074   109.011278
	   45 B(9,15,17)      =    108.743861    -0.000000    -0.000058   108.743804
	   46 B(9,15,18)      =    113.791908     0.000000     0.000026   113.791934
	   47 B(10,9,11)      =    106.486719     0.000000     0.000022   106.486741
	   48 B(10,9,15)      =    109.126101     0.000000     0.000052   109.126153
	   49 B(11,9,15)      =    109.831023    -0.000000    -0.000076   109.830947
	   50 B(12,24,21)     =    114.225247    -0.000000    -0.000110   114.225138
	   51 B(12,24,25)     =    109.125526     0.000000     0.000009   109.125535
	   52 B(12,24,26)     =    108.772155     0.000000     0.000035   108.772190
	   53 B(13,12,14)     =    106.184965    -0.000000     0.000034   106.184999
	   54 B(13,12,24)     =    108.657405     0.000000     0.000011   108.657416
	   55 B(14,12,24)     =    109.836931     0.000000     0.000034   109.836965
	   56 B(15,18,19)     =    109.094448     0.000000     0.000123   109.094571
	   57 B(15,18,20)     =    108.823582     0.000000    -0.000086   108.823496
	   58 B(15,18,21)     =    114.220036    -0.000000    -0.000066   114.219970
	   59 B(16,15,17)     =    106.088869    -0.000000    -0.000017   106.088852
	   60 B(16,15,18)     =    110.047286    -0.000000    -0.000045   110.047240
	   61 B(17,15,18)     =    108.864387     0.000000     0.000016   108.864403
	   62 B(18,21,22)     =    109.555113    -0.000000    -0.000012   109.555101
	   63 B(18,21,23)     =    108.815269     0.000000     0.000045   108.815313
	   64 B(18,21,24)     =    113.951327     0.000000     0.000018   113.951345
	   65 B(19,18,20)     =    106.170802    -0.000000     0.000027   106.170829
	   66 B(19,18,21)     =    109.494443     0.000000     0.000087   109.494530
	   67 B(20,18,21)     =    108.726862     0.000000    -0.000080   108.726782
	   68 B(21,24,25)     =    109.488400     0.000000     0.000052   109.488452
	   69 B(21,24,26)     =    108.710221     0.000000    -0.000010   108.710211
	   70 B(22,21,23)     =    105.831158     0.000000    -0.000010   105.831149
	   71 B(22,21,24)     =    108.802153    -0.000000    -0.000014   108.802139
	   72 B(23,21,24)     =    109.571099    -0.000000    -0.000029   109.571070
	   73 B(25,24,26)     =    106.210927     0.000000     0.000033   106.210960
	   74 D(1,9,15,16)    =     60.751561    -0.000000    -0.000240    60.751321
	   75 D(1,9,15,17)    =    -54.490839    -0.000000    -0.000229   -54.491068
	   76 D(1,9,15,18)    =   -176.008159    -0.000000    -0.000225  -176.008383
	   77 D(2,1,9,10)     =    179.108689    -0.000000     0.000240   179.108929
	   78 D(2,1,9,11)     =     62.569493    -0.000000     0.000221    62.569714
	   79 D(2,1,9,15)     =    -59.438975     0.000000     0.000327   -59.438647
	   80 D(3,1,9,10)     =     58.873226    -0.000000     0.000262    58.873488
	   81 D(3,1,9,11)     =    -57.665970    -0.000000     0.000243   -57.665726
	   82 D(3,1,9,15)     =   -179.674438     0.000000     0.000350  -179.674088
	   83 D(4,1,9,10)     =    -61.540868    -0.000000     0.000254   -61.540615
	   84 D(4,1,9,11)     =   -178.080064    -0.000000     0.000235  -178.079829
	   85 D(4,1,9,15)     =     59.911468     0.000000     0.000341    59.911809
	   86 D(5,12,24,21)   =    -58.911574    -0.000000    -0.000084   -58.911658
	   87 D(5,12,24,25)   =    178.184181    -0.000000    -0.000082   178.184099
	   88 D(5,12,24,26)   =     62.719747    -0.000000    -0.000145    62.719602
	   89 D(6,5,12,13)    =   -174.183672    -0.000000     0.000112  -174.183560
	   90 D(6,5,12,14)    =    -58.231150     0.000000     0.000168   -58.230983
	   91 D(6,5,12,24)    =     64.638373     0.000000     0.000133    64.638506
	   92 D(7,5,12,13)    =     65.871529    -0.000000     0.000109    65.871638
	   93 D(7,5,12,14)    =   -178.175949     0.000000     0.000164  -178.175785
	   94 D(7,5,12,24)    =    -55.306426     0.000000     0.000129   -55.306297
	   95 D(8,5,12,13)    =    -54.062480    -0.000000     0.000110   -54.062370
	   96 D(8,5,12,14)    =     61.890041     0.000000     0.000166    61.890207
	   97 D(8,5,12,24)    =   -175.240435     0.000000     0.000131  -175.240304
	   98 D(9,15,18,19)   =    178.346318    -0.000000     0.000963   178.347281
	   99 D(9,15,18,20)   =     62.918368    -0.000000     0.000911    62.919279
	  100 D(9,15,18,21)   =    -58.768846     0.000000     0.001123   -58.767723
	  101 D(10,9,15,16)   =   -177.376509     0.000000    -0.000174  -177.376684
	  102 D(10,9,15,17)   =     67.381090     0.000000    -0.000163    67.380927
	  103 D(10,9,15,18)   =    -54.136229    -0.000000    -0.000159   -54.136389
	  104 D(11,9,15,16)   =    -60.993186     0.000000    -0.000161   -60.993347
	  105 D(11,9,15,17)   =   -176.235587     0.000000    -0.000149  -176.235736
	  106 D(11,9,15,18)   =     62.247094    -0.000000    -0.000145    62.246948
	  107 D(12,24,21,18)  =    -55.914832    -0.000000    -0.000314   -55.915146
	  108 D(12,24,21,22)  =   -178.471768    -0.000000    -0.000300  -178.472069
	  109 D(12,24,21,23)  =     66.257618     0.000000    -0.000265    66.257353
	  110 D(13,12,24,21)  =    179.550858     0.000000    -0.000082   179.550776
	  111 D(13,12,24,25)  =     56.646612    -0.000000    -0.000079    56.646533
	  112 D(13,12,24,26)  =    -58.817821    -0.000000    -0.000143   -58.817964
	  113 D(14,12,24,21)  =     63.793139    -0.000000    -0.000148    63.792991
	  114 D(14,12,24,25)  =    -59.111107    -0.000000    -0.000145   -59.111252
	  115 D(14,12,24,26)  =   -174.575540    -0.000000    -0.000209  -174.575749
	  116 D(15,18,21,22)  =     66.791439    -0.000000    -0.000468    66.790971
	  117 D(15,18,21,23)  =   -177.939388    -0.000000    -0.000461  -177.939849
	  118 D(15,18,21,24)  =    -55.352021    -0.000000    -0.000453   -55.352475
	  119 D(16,15,18,19)  =    -58.980234     0.000000     0.001044   -58.979190
	  120 D(16,15,18,20)  =   -174.408184    -0.000000     0.000992  -174.407192
	  121 D(16,15,18,21)  =     63.904602     0.000000     0.001204    63.905806
	  122 D(17,15,18,19)  =     56.896012     0.000000     0.001008    56.897020
	  123 D(17,15,18,20)  =    -58.531938    -0.000000     0.000956   -58.530982
	  124 D(17,15,18,21)  =    179.780848     0.000000     0.001168   179.782016
	  125 D(18,21,24,25)  =     66.792195    -0.000000    -0.000340    66.791854
	  126 D(18,21,24,26)  =   -177.580245    -0.000000    -0.000278  -177.580523
	  127 D(19,18,21,22)  =   -170.541214     0.000000    -0.000288  -170.541501
	  128 D(19,18,21,23)  =    -55.272040     0.000000    -0.000281   -55.272321
	  129 D(19,18,21,24)  =     67.315327     0.000000    -0.000273    67.315053
	  130 D(20,18,21,22)  =    -54.948983     0.000000    -0.000253   -54.949236
	  131 D(20,18,21,23)  =     60.320191     0.000000    -0.000246    60.319944
	  132 D(20,18,21,24)  =   -177.092443     0.000000    -0.000238  -177.092681
	  133 D(22,21,24,25)  =    -55.764742    -0.000000    -0.000327   -55.765069
	  134 D(22,21,24,26)  =     59.862819    -0.000000    -0.000264    59.862555
	  135 D(23,21,24,25)  =   -171.035355     0.000000    -0.000292  -171.035647
	  136 D(23,21,24,26)  =    -55.407795     0.000000    -0.000229   -55.408024
	  137 R(5,18)         =      3.640335    -0.000001     0.000002     3.640337
	  138 R(9,24)         =      3.636124    -0.000001    -0.000012     3.636112
	  139 R(12,15)        =      3.591559     0.000002     0.000011     3.591570
	 ---------------------------------------------------------------------------

  ==> Convergence Check <==

  Measures of convergence in internal coordinates in au.
  Criteria marked as inactive (o), active & met (*), and active & unmet ( ).
  --------------------------------------------------------------------------------------------- ~
   Step     Total Energy     Delta E     MAX Force     RMS Force      MAX Disp      RMS Disp    ~
  --------------------------------------------------------------------------------------------- ~
    Convergence Criteria             o    2.00e-06 *    1.00e-06 *    6.00e-06 *    4.00e-06 *  ~
  --------------------------------------------------------------------------------------------- ~
      1    -314.98411911   -3.15e+02 o    5.83e-07 *    1.20e-07 *    2.24e-05      5.98e-06    ~
  ---------------------------------------------------------------------------------------------

	Writing optimization data to binary file.
	Structure for next step:
	Cartesian Geometry (in Angstrom)
	    C     3.5015492499   0.7417351625   0.1209960748
	    H     3.1608619114   1.7391786331   0.4022946489
	    H     4.2521502743   0.8524717350  -0.6612170069
	    H     3.9862584269   0.2993914497   0.9922101316
	    C    -3.3128878047  -0.0018306681   0.4201046307
	    H    -3.0218140819  -1.0423872834   0.5624952049
	    H    -3.8806396276   0.0602345920  -0.5099385406
	    H    -3.9796908658   0.2690791009   1.2383499802
	    C     2.3296456262  -0.1165024039  -0.3397367508
	    H     2.6877118427  -1.1075805789  -0.6333541559
	    H     1.8832751636   0.3286089376  -1.2316898420
	    C    -2.0974788368   0.9175928165   0.3723204958
	    H    -2.4322143502   1.9566059811   0.3332033483
	    H    -1.5260654652   0.8163680291   1.2980576936
	    C     1.2715351909  -0.2694131238   0.7466658910
	    H     0.8811739708   0.7193310343   1.0056818382
	    H     1.7504949288  -0.6530844968   1.6523847661
	    C     0.1236331928  -1.2014237259   0.3621951914
	    H    -0.5714603088  -1.2781965595   1.2024994057
	    H     0.5234184623  -2.2073912263   0.2046314555
	    C    -0.6382922313  -0.7736943843  -0.8929806464
	    H     0.0152953945  -0.8586872934  -1.7642269549
	    H    -1.4569589521  -1.4764583908  -1.0648448217
	    C    -1.1908775693   0.6505119034  -0.8285262916
	    H    -0.3618962993   1.3632124717  -0.8170255552
	    H    -1.7530424070   0.8506648820  -1.7454908800
			--------------------------
			 OPTKING Finished Execution 
			--------------------------

    Structure for next step:
    Molecular point group: c1
    Full point group: C1

    Geometry (in Angstrom), charge = 0, multiplicity = 1:

    C            3.501549186377     0.741735089313     0.120995068748
    H            3.160861847907     1.739178559897     0.402293642893
    H            4.252150210766     0.852471661792    -0.661218012965
    H            3.986258363427     0.299391376487     0.992209125578
    C           -3.312887868205    -0.001830741326     0.420103624681
    H           -3.021814145367    -1.042387356544     0.562494198798
    H           -3.880639691062     0.060234518786    -0.509939546705
    H           -3.979690929341     0.269079027686     1.238348974117
    C            2.329645562673    -0.116502477093    -0.339737756876
    H            2.687711779174    -1.107580652086    -0.633355161940
    H            1.883275100071     0.328608864434    -1.231690848048
    C           -2.097478900299     0.917592743267     0.372319489795
    H           -2.432214413722     1.956605907869     0.333202342284
    H           -1.526065528744     0.816367955917     1.298056687502
    C            1.271535127377    -0.269413196955     0.746664884984
    H            0.881173907288     0.719330961119     1.005680832138
    H            1.750494865266    -0.653084569979     1.652383760024
    C            0.123633129330    -1.201423799071     0.362194185322
    H           -0.571460372258    -1.278196632728     1.202498399664
    H            0.523418398769    -2.207391299502     0.204630449476
    C           -0.638292294773    -0.773694457498    -0.892981652498
    H            0.015295331041    -0.858687366597    -1.764227960936
    H           -1.456959015618    -1.476458464025    -1.064845827749
    C           -1.190877632845     0.650511830224    -0.828527297665
    H           -0.361896362849     1.363212398482    -0.817026561207
    H           -1.753042470454     0.850664808764    -1.745491886085

gradient() will perform analytic gradient computation.

*** tstart() called on wr37
*** at Tue Sep 20 22:47:24 2016


         ---------------------------------------------------------
                                   SCF
            by Justin Turney, Rob Parrish, and Andy Simmonett
                              RHF Reference
                       12 Threads,  60000 MiB Core
         ---------------------------------------------------------

  ==> Geometry <==

    Molecular point group: c1
    Full point group: C1

    Geometry (in Angstrom), charge = 0, multiplicity = 1:

       Center              X                  Y                   Z               Mass       
    ------------   -----------------  -----------------  -----------------  -----------------
           C          3.501549186377     0.741735089313     0.120995068748    12.000000000000
           H          3.160861847907     1.739178559897     0.402293642893     1.007825032070
           H          4.252150210766     0.852471661792    -0.661218012965     1.007825032070
           H          3.986258363427     0.299391376487     0.992209125578     1.007825032070
           C         -3.312887868205    -0.001830741326     0.420103624681    12.000000000000
           H         -3.021814145367    -1.042387356544     0.562494198798     1.007825032070
           H         -3.880639691062     0.060234518786    -0.509939546705     1.007825032070
           H         -3.979690929341     0.269079027686     1.238348974117     1.007825032070
           C          2.329645562673    -0.116502477093    -0.339737756876    12.000000000000
           H          2.687711779174    -1.107580652086    -0.633355161940     1.007825032070
           H          1.883275100071     0.328608864434    -1.231690848048     1.007825032070
           C         -2.097478900299     0.917592743267     0.372319489795    12.000000000000
           H         -2.432214413722     1.956605907869     0.333202342284     1.007825032070
           H         -1.526065528744     0.816367955917     1.298056687502     1.007825032070
           C          1.271535127377    -0.269413196955     0.746664884984    12.000000000000
           H          0.881173907288     0.719330961119     1.005680832138     1.007825032070
           H          1.750494865266    -0.653084569979     1.652383760024     1.007825032070
           C          0.123633129330    -1.201423799071     0.362194185322    12.000000000000
           H         -0.571460372258    -1.278196632728     1.202498399664     1.007825032070
           H          0.523418398769    -2.207391299502     0.204630449476     1.007825032070
           C         -0.638292294773    -0.773694457498    -0.892981652498    12.000000000000
           H          0.015295331041    -0.858687366597    -1.764227960936     1.007825032070
           H         -1.456959015618    -1.476458464025    -1.064845827749     1.007825032070
           C         -1.190877632845     0.650511830224    -0.828527297665    12.000000000000
           H         -0.361896362849     1.363212398482    -0.817026561207     1.007825032070
           H         -1.753042470454     0.850664808764    -1.745491886085     1.007825032070

  Running in c1 symmetry.

  Rotational constants: A =      0.13655  B =      0.02791  C =      0.02705 [cm^-1]
  Rotational constants: A =   4093.54281  B =    836.61413  C =    810.94853 [MHz]
  Nuclear repulsion =  402.721614803797024

  Charge       = 0
  Multiplicity = 1
  Electrons    = 66
  Nalpha       = 33
  Nbeta        = 33

  ==> Algorithm <==

  SCF Algorithm Type is DF.
  DIIS enabled.
  MOM disabled.
  Fractional occupation disabled.
  Guess Type is READ.
  Energy threshold   = 1.00e-10
  Density threshold  = 1.00e-10
  Integral threshold = 0.00e+00

  ==> Primary Basis <==

  Basis Set: AUG-CC-PVTZ
    Number of shells: 274
    Number of basis function: 782
    Number of Cartesian functions: 890
    Spherical Harmonics?: true
    Max angular momentum: 3

  ==> Pre-Iterations <==

   -------------------------------------------------------
    Irrep   Nso     Nmo     Nalpha   Nbeta   Ndocc  Nsocc
   -------------------------------------------------------
     A        782     782       0       0       0       0
   -------------------------------------------------------
    Total     782     782      33      33      33       0
   -------------------------------------------------------

  ==> Integral Setup <==

  ==> DFJK: Density-Fitted J/K Matrices <==

    J tasked:                  Yes
    K tasked:                  Yes
    wK tasked:                  No
    OpenMP threads:             12
    Integrals threads:          12
    Memory (MB):             42915
    Algorithm:                Core
    Integral Cache:           NONE
    Schwarz Cutoff:          1E-12
    Fitting Condition:       1E-12

   => Auxiliary Basis Set <=

  Basis Set: 
    Number of shells: 492
    Number of basis function: 1660
    Number of Cartesian functions: 2038
    Spherical Harmonics?: true
    Max angular momentum: 4

  Minimum eigenvalue in the overlap matrix is 1.5966477645E-06.
  Using Symmetric Orthogonalization.
  SCF Guess: Reading in previously saved MOs, projecting if necessary.

  Using orbitals from previous SCF, no projection.
  Recomputing DOCC and SOCC from number of alpha and beta electrons from previous calculation.
              A 
    DOCC [    33 ]

  ==> Iterations <==

                           Total Energy        Delta E     RMS |[F,P]|

   @DF-RHF iter   0:  -313.53965011926437   -3.13540e+02   4.24266e-08 
   @DF-RHF iter   1:  -313.53964984088429    2.78380e-07   8.36236e-09 
   @DF-RHF iter   2:  -313.53964984092806   -4.37694e-11   3.00189e-09 DIIS
   @DF-RHF iter   3:  -313.53964984093511   -7.04858e-12   1.14924e-09 DIIS
   @DF-RHF iter   4:  -313.53964984093591   -7.95808e-13   1.81795e-10 DIIS
   @DF-RHF iter   5:  -313.53964984093534    5.68434e-13   4.60438e-11 DIIS

  ==> Post-Iterations <==

    Orbital Energies (a.u.)
    -----------------------

    Doubly Occupied:                                                      

       1A    -11.212374     2A    -11.212175     3A    -11.210503  
       4A    -11.210344     5A    -11.209720     6A    -11.208964  
       7A    -11.207236     8A    -11.206874     9A     -1.097168  
      10A     -1.057950    11A     -1.005651    12A     -0.946955  
      13A     -0.889264    14A     -0.836562    15A     -0.789699  
      16A     -0.739838    17A     -0.652547    18A     -0.639025  
      19A     -0.611472    20A     -0.581184    21A     -0.577418  
      22A     -0.569798    23A     -0.543899    24A     -0.523977  
      25A     -0.518188    26A     -0.506676    27A     -0.487087  
      28A     -0.474562    29A     -0.468964    30A     -0.462303  
      31A     -0.443214    32A     -0.436891    33A     -0.434461  

    Virtual:                                                              

      34A      0.029958    35A      0.033298    36A      0.033749  
      37A      0.034576    38A      0.045643    39A      0.048917  
      40A      0.050062    41A      0.053317    42A      0.055951  
      43A      0.066733    44A      0.067497    45A      0.071446  
      46A      0.072679    47A      0.079369    48A      0.087201  
      49A      0.091897    50A      0.095149    51A      0.100021  
      52A      0.112804    53A      0.115027    54A      0.117783  
      55A      0.125039    56A      0.127475    57A      0.129973  
      58A      0.134698    59A      0.134725    60A      0.138684  
      61A      0.145407    62A      0.146466    63A      0.149982  
      64A      0.156404    65A      0.160316    66A      0.162919  
      67A      0.164774    68A      0.168306    69A      0.173085  
      70A      0.174477    71A      0.177857    72A      0.181403  
      73A      0.185198    74A      0.190819    75A      0.192559  
      76A      0.199138    77A      0.216205    78A      0.217751  
      79A      0.225414    80A      0.232486    81A      0.240459  
      82A      0.249924    83A      0.256595    84A      0.259715  
      85A      0.268203    86A      0.274639    87A      0.276079  
      88A      0.280120    89A      0.288237    90A      0.290269  
      91A      0.295590    92A      0.307332    93A      0.312730  
      94A      0.314181    95A      0.314854    96A      0.319715  
      97A      0.322617    98A      0.330887    99A      0.333366  
     100A      0.337930   101A      0.343144   102A      0.345532  
     103A      0.348673   104A      0.353016   105A      0.357999  
     106A      0.358774   107A      0.362767   108A      0.366456  
     109A      0.370516   110A      0.371823   111A      0.375359  
     112A      0.379860   113A      0.382147   114A      0.386242  
     115A      0.391141   116A      0.393592   117A      0.406524  
     118A      0.407590   119A      0.409123   120A      0.415011  
     121A      0.418181   122A      0.428866   123A      0.430448  
     124A      0.431297   125A      0.434248   126A      0.439884  
     127A      0.447404   128A      0.451138   129A      0.452088  
     130A      0.453426   131A      0.458260   132A      0.464183  
     133A      0.465791   134A      0.470263   135A      0.471186  
     136A      0.474779   137A      0.480497   138A      0.483067  
     139A      0.486420   140A      0.491171   141A      0.492659  
     142A      0.499170   143A      0.501219   144A      0.504982  
     145A      0.508224   146A      0.514833   147A      0.515511  
     148A      0.519516   149A      0.525960   150A      0.531371  
     151A      0.535685   152A      0.542656   153A      0.545170  
     154A      0.553236   155A      0.554168   156A      0.556885  
     157A      0.562742   158A      0.567324   159A      0.571899  
     160A      0.573838   161A      0.576687   162A      0.581415  
     163A      0.587442   164A      0.591636   165A      0.593594  
     166A      0.601867   167A      0.608832   168A      0.611703  
     169A      0.613210   170A      0.616857   171A      0.627848  
     172A      0.631435   173A      0.636561   174A      0.642865  
     175A      0.645511   176A      0.647836   177A      0.653490  
     178A      0.657749   179A      0.663427   180A      0.671227  
     181A      0.674568   182A      0.684469   183A      0.686347  
     184A      0.692493   185A      0.696144   186A      0.698701  
     187A      0.706517   188A      0.710819   189A      0.718303  
     190A      0.726891   191A      0.731736   192A      0.737580  
     193A      0.745642   194A      0.751427   195A      0.753865  
     196A      0.759977   197A      0.763725   198A      0.766227  
     199A      0.773265   200A      0.789367   201A      0.790285  
     202A      0.807733   203A      0.815535   204A      0.828234  
     205A      0.834094   206A      0.836028   207A      0.841827  
     208A      0.849256   209A      0.859261   210A      0.861412  
     211A      0.870796   212A      0.875878   213A      0.878416  
     214A      0.886082   215A      0.892312   216A      0.896011  
     217A      0.905269   218A      0.910867   219A      0.915063  
     220A      0.917207   221A      0.920961   222A      0.923442  
     223A      0.932471   224A      0.933759   225A      0.940646  
     226A      0.942838   227A      0.947546   228A      0.956550  
     229A      0.960953   230A      0.965682   231A      0.969891  
     232A      0.976253   233A      0.978221   234A      0.981190  
     235A      0.993166   236A      0.996508   237A      0.998915  
     238A      1.001170   239A      1.008622   240A      1.010546  
     241A      1.017166   242A      1.021369   243A      1.027576  
     244A      1.030082   245A      1.036392   246A      1.040840  
     247A      1.049758   248A      1.058715   249A      1.063278  
     250A      1.066703   251A      1.068365   252A      1.073425  
     253A      1.081393   254A      1.087140   255A      1.090096  
     256A      1.093067   257A      1.094634   258A      1.098761  
     259A      1.106529   260A      1.117932   261A      1.120109  
     262A      1.126692   263A      1.130655   264A      1.131923  
     265A      1.139618   266A      1.155044   267A      1.162892  
     268A      1.164474   269A      1.175128   270A      1.177407  
     271A      1.183976   272A      1.186735   273A      1.191948  
     274A      1.197939   275A      1.201994   276A      1.208973  
     277A      1.212339   278A      1.215734   279A      1.219892  
     280A      1.233045   281A      1.233317   282A      1.241748  
     283A      1.247486   284A      1.251448   285A      1.257912  
[...]
	 D(22,21,24,26)   =         1.044803	      59.862786
	 D(23,21,24,25)   =        -2.985131	    -171.035416
	 D(23,21,24,26)   =        -0.967049	     -55.407800
	 R(5,18)          =         6.879226	       3.640330
	 R(9,24)          =         6.871273	       3.636121
	 R(12,15)         =         6.787069	       3.591562

	Current energy   :      -314.9841191177

	Energy change for the previous step:
		Projected    :        -0.0000000001
		Actual       :         0.0000000009

	Performing BFGS update.
	Previous computed or guess Hessian on step 1.
	Denominators (dg)(dq) or (dq)(dq) are very small.
	 Skipping Hessian update for step 13.
	Denominators (dg)(dq) or (dq)(dq) are very small.
	 Skipping Hessian update for step 12.
	Denominators (dg)(dq) or (dq)(dq) are very small.
	 Skipping Hessian update for step 11.
	Denominators (dg)(dq) or (dq)(dq) are very small.
	 Skipping Hessian update for step 10.
	Denominators (dg)(dq) or (dq)(dq) are very small.
	 Skipping Hessian update for step 9.
	Denominators (dg)(dq) or (dq)(dq) are very small.
	 Skipping Hessian update for step 8.
	Denominators (dg)(dq) or (dq)(dq) are very small.
	 Skipping Hessian update for step 7.
	Denominators (dg)(dq) or (dq)(dq) are very small.
	 Skipping Hessian update for step 6.
	Denominators (dg)(dq) or (dq)(dq) are very small.
	 Skipping Hessian update for step 5.
	Denominators (dg)(dq) or (dq)(dq) are very small.
	 Skipping Hessian update for step 4.
	Denominators (dg)(dq) or (dq)(dq) are very small.
	 Skipping Hessian update for step 3.
	Denominators (dg)(dq) or (dq)(dq) are very small.
	 Skipping Hessian update for step 2.
	Steps to be used in Hessian update: 1
	Taking RFO optimization step.
	Going to follow RFO solution 1.
	Using RFO vector 1.
	Norm of target step-size    0.00002
	Projected energy change by RFO approximation:        -0.0000000000

	Back-transformation to cartesian coordinates...
	Successfully converged to displaced geometry.

	--- Internal Coordinate Step in ANG or DEG, aJ/ANG or AJ/DEG ---
	 ---------------------------------------------------------------------------
	   Coordinate                Previous        Force       Change         New 
	   ----------                --------       ------       ------       ------
	    1 R(1,2)          =      1.090913    -0.000000    -0.000000     1.090912
	    2 R(1,3)          =      1.089735    -0.000001    -0.000000     1.089735
	    3 R(1,4)          =      1.090699    -0.000001    -0.000000     1.090699
	    4 R(1,9)          =      1.523878    -0.000001    -0.000000     1.523878
	    5 R(5,6)          =      1.089843     0.000002     0.000000     1.089843
	    6 R(5,7)          =      1.091409     0.000003     0.000000     1.091409
	    7 R(5,8)          =      1.089745     0.000002     0.000000     1.089745
	    8 R(5,12)         =      1.524743    -0.000001    -0.000000     1.524743
	    9 R(9,10)         =      1.093919    -0.000002    -0.000000     1.093919
	   10 R(9,11)         =      1.092223    -0.000001    -0.000000     1.092223
	   11 R(9,15)         =      1.524221    -0.000001    -0.000000     1.524221
	   12 R(12,13)        =      1.092303     0.000003     0.000000     1.092303
	   13 R(12,14)        =      1.092588     0.000005     0.000000     1.092588
	   14 R(12,24)        =      1.528166    -0.000000    -0.000000     1.528166
	   15 R(15,16)        =      1.094114     0.000000    -0.000000     1.094114
	   16 R(15,17)        =      1.094044     0.000000    -0.000000     1.094044
	   17 R(15,18)        =      1.527789     0.000000     0.000000     1.527789
	   18 R(18,19)        =      1.093234     0.000001    -0.000000     1.093234
	   19 R(18,20)        =      1.093904    -0.000001    -0.000000     1.093904
	   20 R(18,21)        =      1.529362     0.000000     0.000000     1.529362
	   21 R(21,22)        =      1.092461     0.000001    -0.000000     1.092461
	   22 R(21,23)        =      1.092534     0.000001    -0.000000     1.092534
	   23 R(21,24)        =      1.529009     0.000003     0.000000     1.529009
	   24 R(24,25)        =      1.093290     0.000006     0.000001     1.093290
	   25 R(24,26)        =      1.094035     0.000003     0.000000     1.094036
	   26 B(1,9,10)       =    109.857175    -0.000000    -0.000011   109.857164
	   27 B(1,9,11)       =    109.370468    -0.000000     0.000002   109.370470
	   28 B(1,9,15)       =    112.015584     0.000000     0.000017   112.015600
	   29 B(2,1,3)        =    107.895695    -0.000000     0.000003   107.895698
	   30 B(2,1,4)        =    107.675727     0.000000     0.000002   107.675729
	   31 B(2,1,9)        =    110.654735     0.000000     0.000002   110.654736
	   32 B(3,1,4)        =    107.966865     0.000000     0.000002   107.966867
	   33 B(3,1,9)        =    111.709992     0.000000     0.000010   111.710002
	   34 B(4,1,9)        =    110.784257    -0.000000    -0.000018   110.784239
	   35 B(5,12,13)      =    109.294743     0.000000    -0.000004   109.294740
	   36 B(5,12,14)      =    109.540234     0.000000     0.000003   109.540238
	   37 B(5,12,24)      =    113.087842    -0.000000    -0.000010   113.087833
	   38 B(6,5,7)        =    107.732002    -0.000000    -0.000004   107.731998
	   39 B(6,5,8)        =    107.618501     0.000000     0.000007   107.618508
	   40 B(6,5,12)       =    111.526557     0.000000     0.000004   111.526561
	   41 B(7,5,8)        =    107.902723    -0.000000    -0.000002   107.902721
	   42 B(7,5,12)       =    110.711799     0.000000     0.000008   110.711808
	   43 B(8,5,12)       =    111.184781    -0.000000    -0.000013   111.184769
	   44 B(9,15,16)      =    109.011254    -0.000000    -0.000022   109.011233
	   45 B(9,15,17)      =    108.743821    -0.000000     0.000014   108.743835
	   46 B(9,15,18)      =    113.791898     0.000000     0.000018   113.791916
	   47 B(10,9,11)      =    106.486761    -0.000000    -0.000016   106.486746
	   48 B(10,9,15)      =    109.126137    -0.000000    -0.000025   109.126113
	   49 B(11,9,15)      =    109.830950     0.000000     0.000031   109.830982
	   50 B(12,24,21)     =    114.225140     0.000000     0.000042   114.225182
	   51 B(12,24,25)     =    109.125514     0.000000     0.000007   109.125520
	   52 B(12,24,26)     =    108.772207    -0.000000    -0.000028   108.772179
	   53 B(13,12,14)     =    106.184970     0.000000     0.000016   106.184985
	   54 B(13,12,24)     =    108.657431     0.000000    -0.000011   108.657419
	   55 B(14,12,24)     =    109.836923     0.000000     0.000008   109.836930
	   56 B(15,18,19)     =    109.094514     0.000000    -0.000007   109.094507
	   57 B(15,18,20)     =    108.823516     0.000000     0.000014   108.823530
	   58 B(15,18,21)     =    114.220052    -0.000000    -0.000004   114.220049
	   59 B(16,15,17)     =    106.088866     0.000000    -0.000004   106.088862
	   60 B(16,15,18)     =    110.047275    -0.000000    -0.000003   110.047271
	   61 B(17,15,18)     =    108.864399    -0.000000    -0.000003   108.864396
	   62 B(18,21,22)     =    109.555089     0.000000     0.000001   109.555090
	   63 B(18,21,23)     =    108.815289    -0.000000     0.000000   108.815289
	   64 B(18,21,24)     =    113.951343     0.000000     0.000009   113.951352
	   65 B(19,18,20)     =    106.170807    -0.000000    -0.000006   106.170801
	   66 B(19,18,21)     =    109.494477     0.000000    -0.000019   109.494458
	   67 B(20,18,21)     =    108.726805     0.000000     0.000022   108.726827
	   68 B(21,24,25)     =    109.488465    -0.000000    -0.000029   109.488436
	   69 B(21,24,26)     =    108.710213    -0.000000     0.000003   108.710216
	   70 B(22,21,23)     =    105.831128     0.000000     0.000017   105.831144
	   71 B(22,21,24)     =    108.802195    -0.000000    -0.000024   108.802171
	   72 B(23,21,24)     =    109.571072    -0.000000    -0.000002   109.571070
	   73 B(25,24,26)     =    106.210948     0.000000     0.000003   106.210950
	   74 D(1,9,15,16)    =     60.751668     0.000000    -0.000104    60.751564
	   75 D(1,9,15,17)    =    -54.490735     0.000000    -0.000095   -54.490830
	   76 D(1,9,15,18)    =   -176.008035     0.000000    -0.000113  -176.008147
	   77 D(2,1,9,10)     =    179.108769     0.000000     0.000063   179.108832
	   78 D(2,1,9,11)     =     62.569515     0.000000     0.000087    62.569602
	   79 D(2,1,9,15)     =    -59.438847    -0.000000     0.000035   -59.438812
	   80 D(3,1,9,10)     =     58.873336    -0.000000     0.000052    58.873387
	   81 D(3,1,9,11)     =    -57.665919     0.000000     0.000076   -57.665843
	   82 D(3,1,9,15)     =   -179.674280    -0.000000     0.000024  -179.674257
	   83 D(4,1,9,10)     =    -61.540773     0.000000     0.000055   -61.540718
	   84 D(4,1,9,11)     =   -178.080027     0.000000     0.000079  -178.079948
	   85 D(4,1,9,15)     =     59.911611    -0.000000     0.000027    59.911638
	   86 D(5,12,24,21)   =    -58.911457     0.000000    -0.000015   -58.911472
	   87 D(5,12,24,25)   =    178.184299     0.000000    -0.000012   178.184286
	   88 D(5,12,24,26)   =     62.719819     0.000000    -0.000004    62.719815
	   89 D(6,5,12,13)    =   -174.183540    -0.000000    -0.000081  -174.183621
	   90 D(6,5,12,14)    =    -58.231002     0.000000    -0.000063   -58.231065
	   91 D(6,5,12,24)    =     64.638473     0.000000    -0.000058    64.638415
	   92 D(7,5,12,13)    =     65.871663    -0.000000    -0.000084    65.871579
	   93 D(7,5,12,14)    =   -178.175799     0.000000    -0.000066  -178.175865
	   94 D(7,5,12,24)    =    -55.306325    -0.000000    -0.000060   -55.306385
	   95 D(8,5,12,13)    =    -54.062346    -0.000000    -0.000078   -54.062425
	   96 D(8,5,12,14)    =     61.890192     0.000000    -0.000060    61.890132
	   97 D(8,5,12,24)    =   -175.240334     0.000000    -0.000055  -175.240388
	   98 D(9,15,18,19)   =    178.346667     0.000000    -0.000035   178.346632
	   99 D(9,15,18,20)   =     62.918712    -0.000000    -0.000032    62.918680
	  100 D(9,15,18,21)   =    -58.768391    -0.000000    -0.000069   -58.768460
	  101 D(10,9,15,16)   =   -177.376366    -0.000000    -0.000124  -177.376490
	  102 D(10,9,15,17)   =     67.381231    -0.000000    -0.000116    67.381115
	  103 D(10,9,15,18)   =    -54.136069    -0.000000    -0.000133   -54.136202
	  104 D(11,9,15,16)   =    -60.993012    -0.000000    -0.000140   -60.993152
	  105 D(11,9,15,17)   =   -176.235415    -0.000000    -0.000131  -176.235546
	  106 D(11,9,15,18)   =     62.247285    -0.000000    -0.000148    62.247137
	  107 D(12,24,21,18)  =    -55.914866     0.000000    -0.000102   -55.914968
	  108 D(12,24,21,22)  =   -178.471813     0.000000    -0.000091  -178.471904
	  109 D(12,24,21,23)  =     66.257601    -0.000000    -0.000097    66.257504
	  110 D(13,12,24,21)  =    179.550938     0.000000     0.000004   179.550942
	  111 D(13,12,24,25)  =     56.646693     0.000000     0.000007    56.646700
	  112 D(13,12,24,26)  =    -58.817787     0.000000     0.000016   -58.817771
	  113 D(14,12,24,21)  =     63.793203     0.000000    -0.000012    63.793191
	  114 D(14,12,24,25)  =    -59.111042     0.000000    -0.000009   -59.111051
	  115 D(14,12,24,26)  =   -174.575521     0.000000    -0.000000  -174.575522
	  116 D(15,18,21,22)  =     66.791240     0.000000     0.000232    66.791472
	  117 D(15,18,21,23)  =   -177.939625     0.000000     0.000253  -177.939372
	  118 D(15,18,21,24)  =    -55.352268     0.000000     0.000256   -55.352011
	  119 D(16,15,18,19)  =    -58.979833     0.000000    -0.000054   -58.979887
	  120 D(16,15,18,20)  =   -174.407788    -0.000000    -0.000051  -174.407839
	  121 D(16,15,18,21)  =     63.905109    -0.000000    -0.000087    63.905021
	  122 D(17,15,18,19)  =     56.896411     0.000000    -0.000063    56.896348
	  123 D(17,15,18,20)  =    -58.531545    -0.000000    -0.000059   -58.531604
	  124 D(17,15,18,21)  =    179.781352    -0.000000    -0.000096   179.781256
	  125 D(18,21,24,25)  =     66.792117     0.000000    -0.000085    66.792032
	  126 D(18,21,24,26)  =   -177.580267     0.000000    -0.000096  -177.580363
	  127 D(19,18,21,22)  =   -170.541289    -0.000000     0.000205  -170.541084
	  128 D(19,18,21,23)  =    -55.272154     0.000000     0.000226   -55.271928
	  129 D(19,18,21,24)  =     67.315203    -0.000000     0.000229    67.315433
	  130 D(20,18,21,22)  =    -54.949066    -0.000000     0.000200   -54.948866
	  131 D(20,18,21,23)  =     60.320069     0.000000     0.000220    60.320290
	  132 D(20,18,21,24)  =   -177.092573     0.000000     0.000224  -177.092350
	  133 D(22,21,24,25)  =    -55.764830     0.000000    -0.000075   -55.764905
	  134 D(22,21,24,26)  =     59.862786     0.000000    -0.000086    59.862700
	  135 D(23,21,24,25)  =   -171.035416     0.000000    -0.000081  -171.035496
	  136 D(23,21,24,26)  =    -55.407800     0.000000    -0.000091   -55.407891
	  137 R(5,18)         =      3.640330     0.000002     0.000003     3.640333
	  138 R(9,24)         =      3.636121    -0.000001    -0.000003     3.636118
	  139 R(12,15)        =      3.591562     0.000000    -0.000002     3.591561
	 ---------------------------------------------------------------------------

  ==> Convergence Check <==

  Measures of convergence in internal coordinates in au.
  Criteria marked as inactive (o), active & met (*), and active & unmet ( ).
  ---------------------------------------------------------------------------------------------
   Step     Total Energy     Delta E     MAX Force     RMS Force      MAX Disp      RMS Disp   
  ---------------------------------------------------------------------------------------------
    Convergence Criteria             o    2.00e-06 *    1.00e-06 *    6.00e-06 *    4.00e-06 *
  ---------------------------------------------------------------------------------------------
     14    -314.98411912    9.35e-10 o    7.67e-07 *    1.20e-07 *    6.00e-06 *    1.52e-06 *  ~
  ---------------------------------------------------------------------------------------------


  **** Optimization is complete! (in 14 steps) ****

  ==> Optimization Summary <==

  Measures of convergence in internal coordinates in au.
  --------------------------------------------------------------------------------------------------------------- ~
   Step         Total Energy             Delta E       MAX Force       RMS Force        MAX Disp        RMS Disp  ~
  --------------------------------------------------------------------------------------------------------------- ~
      1    -314.984119114732   -314.984119114732      0.00000058      0.00000012      0.00002242      0.00000598  ~
      2    -314.984119118950     -0.000000004218      0.00000120      0.00000031      0.00004181      0.00001071  ~
      3    -314.984119115723      0.000000003227      0.00000174      0.00000046      0.00004813      0.00001151  ~
      4    -314.984119115779     -0.000000000056      0.00000031      0.00000008      0.00001043      0.00000359  ~
      5    -314.984119120117     -0.000000004338      0.00000070      0.00000015      0.00001391      0.00000340  ~
      6    -314.984119114488      0.000000005629      0.00000122      0.00000025      0.00001322      0.00000405  ~
      7    -314.984119118856     -0.000000004368      0.00000062      0.00000013      0.00003212      0.00000622  ~
      8    -314.984119114881      0.000000003975      0.00000098      0.00000018      0.00002852      0.00000474  ~
      9    -314.984119114253      0.000000000628      0.00000090      0.00000018      0.00001159      0.00000351  ~
     10    -314.984119115747     -0.000000001494      0.00000080      0.00000018      0.00001259      0.00000390  ~
     11    -314.984119116717     -0.000000000969      0.00000118      0.00000030      0.00000776      0.00000216  ~
     12    -314.984119119605     -0.000000002889      0.00000049      0.00000012      0.00000881      0.00000239  ~
     13    -314.984119118672      0.000000000933      0.00000279      0.00000062      0.00000912      0.00000239  ~
     14    -314.984119117738      0.000000000935      0.00000077      0.00000012      0.00000600      0.00000152  ~
  --------------------------------------------------------------------------------------------------------------- ~

	Writing optimization data to binary file.
	Final energy is   -314.9841191177377
	Final (previous) structure:
	Cartesian Geometry (in Angstrom)
	    C     3.5015521203   0.7417305413   0.1210045862
	    H     3.1608668792   1.7391768043   0.4022959272
	    H     4.2521606913   0.8524603926  -0.6612023343
	    H     3.9862515720   0.2993883400   0.9922248765
	    C    -3.3128827681  -0.0018346410   0.4201153192
	    H    -3.0218040596  -1.0423896449   0.5625074104
	    H    -3.8806414510   0.0602252097  -0.5099239202
	    H    -3.9796810336   0.2690753256   1.2383645567
	    C     2.3296486340  -0.1165033854  -0.3397352318
	    H     2.6877131783  -1.1075836078  -0.6333480003
	    H     1.8832857875   0.3286079489  -1.2316921692
	    C    -2.0974775776   0.9175934779   0.3723189988
	    H    -2.4322174592   1.9566049648   0.3332010285
	    H    -1.5260573040   0.8163744446   1.2980522860
	    C     1.2715306379  -0.2694081188   0.7466604349
	    H     0.8811673745   0.7193375457   1.0056673885
	    H     1.7504836419  -0.6530741110   1.6523850896
	    C     0.1236324093  -1.2014216301   0.3621861651
	    H    -0.5714613522  -1.2781981965   1.2024901255
	    H     0.5234209090  -2.2073878622   0.2046211933
	    C    -0.6382951324  -0.7736929210  -0.8929885939
	    H     0.0152913001  -0.8586855882  -1.7642355390
	    H    -1.4569609986  -1.4764581163  -1.0648515366
	    C    -1.1908824771   0.6505123771  -0.8285329614
	    H    -0.3619029768   1.3632141383  -0.8170376213
	    H    -1.7530523075   0.8506632703  -1.7454943718
	Saving final (previous) structure.
			--------------------------
			 OPTKING Finished Execution 
			--------------------------

    Final optimized geometry and variables:
    Molecular point group: c1
    Full point group: C1

    Geometry (in Angstrom), charge = 0, multiplicity = 1:

    C            3.501552120309     0.741730541303     0.121004586240
    H            3.160866879194     1.739176804326     0.402295927168
    H            4.252160691280     0.852460392640    -0.661202334329
    H            3.986251571990     0.299388339954     0.992224876471
    C           -3.312882768088    -0.001834640952     0.420115319232
    H           -3.021804059632    -1.042389644893     0.562507410396
    H           -3.880641450967     0.060225209706    -0.509923920239
    H           -3.979681033624     0.269075325649     1.238364556682
    C            2.329648634031    -0.116503385443    -0.339735231797
    H            2.687713178253    -1.107583607785    -0.633348000346
    H            1.883285787527     0.328607948869    -1.231692169180
    C           -2.097477577630     0.917593477858     0.372318998849
    H           -2.432217459164     1.956604964794     0.333201028463
    H           -1.526057303990     0.816374444624     1.298052285972
    C            1.271530637922    -0.269408118843     0.746660434884
    H            0.881167374458     0.719337545654     1.005667388544
    H            1.750483641911    -0.653074110998     1.652385089609
    C            0.123632409266    -1.201421630135     0.362186165053
    H           -0.571461352248    -1.278198196549     1.202490125462
    H            0.523420909008    -2.207387862231     0.204621193299
    C           -0.638295132379    -0.773692921014    -0.892988593935
    H            0.015291300111    -0.858685588182    -1.764235538964
    H           -1.456960998559    -1.476458116323    -1.064851536593
    C           -1.190882477139     0.650512377085    -0.828532961443
    H           -0.361902976772     1.363214138292    -0.817037621346
    H           -1.753052307529     0.850663270305    -1.745494371783

	Cleaning optimization helper files.

*** Psi4 exiting successfully. Buy a developer a beer!
