    -----------------------------------------------------------------------
          Psi4: An Open-Source Ab Initio Electronic Structure Package
                              Psi4 1.0.0 Driver

                          Git: Rev {master} 6a9a71b dirty

    J. M. Turney, A. C. Simmonett, R. M. Parrish, E. G. Hohenstein,
    F. A. Evangelista, J. T. Fermann, B. J. Mintz, L. A. Burns, J. J. Wilke,
    M. L. Abrams, N. J. Russ, M. L. Leininger, C. L. Janssen, E. T. Seidl,
    W. D. Allen, H. F. Schaefer, R. A. King, E. F. Valeev, C. D. Sherrill,
    and T. D. Crawford, WIREs Comput. Mol. Sci. 2, 556-565 (2012)
    (doi: 10.1002/wcms.93)

                         Additional Contributions by
    A. E. DePrince, U. Bozkaya, A. Yu. Sokolov, D. G. A. Smith, R. Di Remigio,
    R. M. Richard, J. F. Gonthier, H. R. McAlexander, M. Saitow, and
    B. P. Pritchard
    -----------------------------------------------------------------------


    Psi4 started on: Tue Sep 20 22:40:02 2016

    Process ID:  36292
    PSI4DATADIR: /usr/local/hpc5/psi4conda/share/psi4
    Memory level set to 256.000 MB

  ==> Input File <==

--------------------------------------------------------------------------
memory 60 Gb

molecule molecule_33_psi {
0 1
C            0.094806617670     3.816150588170    -0.600083544321
H           -0.260797615711     4.842895804484    -0.516843740017
H           -0.294267692175     3.408416991881    -1.532036982125
H            1.183168578703     3.844169393353    -0.675988482961
C           -0.094796914767    -3.816108860873    -0.599792762780
H            0.294351457627    -3.408348642636    -1.531706174028
H           -1.183152805449    -3.844126633100    -0.675786826182
H            0.260802875370    -4.842855781162    -0.516547398802
C           -0.337699567699     2.985556915849     0.603668623591
H           -1.429455239891     2.935615286863     0.642685895804
H           -0.018710487396     3.490232369554     1.518332793853
C            0.337607346395    -2.985540042588     0.604012483059
H            0.018468384023    -3.490174445700     1.518648349893
H            1.429361519477    -2.935669759322     0.643161756950
C            0.226350342670     1.565665731929     0.599367943450
H           -0.030621664279     1.083878569045     1.544870617417
H            1.320152003025     1.612927778837     0.559926443132
C           -0.275058619286     0.713034271104    -0.561742026969
H           -0.004373987885     1.192487552976    -1.504811831301
H           -1.369678860025     0.676913253369    -0.533818080081
C            0.275121484396    -0.713151689463    -0.561624667796
H            0.004473464876    -1.192751753842    -1.504632968889
H            1.369740314564    -0.677027931507    -0.533663343598
C           -0.226331286765    -1.565610079662     0.599591987711
H            0.030682903782    -1.083743177258     1.545043491556
H           -1.320136035664    -1.612801184368     0.560160352812
}

set globals {
  reference rhf
  g_convergence gau_verytight
  basis aug-cc-pvtz
  freeze_core true
  scf_type df
  mp_type df
}
optimize('mp2')
--------------------------------------------------------------------------
/usr/local/hpc5/psi4conda/lib/python2.7/site-packages/v2rdm_casscf/v2rdm_casscf.so loaded.

  Memory set to  60.000 GiB by Python script.
gradient() will perform analytic gradient computation.

*** tstart() called on wr30
*** at Tue Sep 20 22:40:03 2016


         ---------------------------------------------------------
                                   SCF
            by Justin Turney, Rob Parrish, and Andy Simmonett
                              RHF Reference
                       12 Threads,  60000 MiB Core
         ---------------------------------------------------------

  ==> Geometry <==

    Molecular point group: c1
    Full point group: C1

    Geometry (in Angstrom), charge = 0, multiplicity = 1:

       Center              X                  Y                   Z               Mass       
    ------------   -----------------  -----------------  -----------------  -----------------
           C          0.094806617670     3.816150588170    -0.600083544321    12.000000000000
           H         -0.260797615711     4.842895804484    -0.516843740017     1.007825032070
           H         -0.294267692175     3.408416991881    -1.532036982125     1.007825032070
           H          1.183168578703     3.844169393353    -0.675988482961     1.007825032070
           C         -0.094796914767    -3.816108860873    -0.599792762780    12.000000000000
           H          0.294351457627    -3.408348642636    -1.531706174028     1.007825032070
           H         -1.183152805449    -3.844126633100    -0.675786826182     1.007825032070
           H          0.260802875370    -4.842855781162    -0.516547398802     1.007825032070
           C         -0.337699567699     2.985556915849     0.603668623591    12.000000000000
           H         -1.429455239891     2.935615286863     0.642685895804     1.007825032070
           H         -0.018710487396     3.490232369554     1.518332793853     1.007825032070
           C          0.337607346395    -2.985540042588     0.604012483059    12.000000000000
           H          0.018468384023    -3.490174445700     1.518648349893     1.007825032070
           H          1.429361519477    -2.935669759322     0.643161756950     1.007825032070
           C          0.226350342670     1.565665731929     0.599367943450    12.000000000000
           H         -0.030621664279     1.083878569045     1.544870617417     1.007825032070
           H          1.320152003025     1.612927778837     0.559926443132     1.007825032070
           C         -0.275058619286     0.713034271104    -0.561742026969    12.000000000000
           H         -0.004373987885     1.192487552976    -1.504811831301     1.007825032070
           H         -1.369678860025     0.676913253369    -0.533818080081     1.007825032070
           C          0.275121484396    -0.713151689463    -0.561624667796    12.000000000000
           H          0.004473464876    -1.192751753842    -1.504632968889     1.007825032070
           H          1.369740314564    -0.677027931507    -0.533663343598     1.007825032070
           C         -0.226331286765    -1.565610079662     0.599591987711    12.000000000000
           H          0.030682903782    -1.083743177258     1.545043491556     1.007825032070
           H         -1.320136035664    -1.612801184368     0.560160352812     1.007825032070

  Running in c1 symmetry.

  Rotational constants: A =      0.22137  B =      0.02084  C =      0.01997 [cm^-1]
  Rotational constants: A =   6636.52538  B =    624.83921  C =    598.55092 [MHz]
  Nuclear repulsion =  388.062482653208178

  Charge       = 0
  Multiplicity = 1
  Electrons    = 66
  Nalpha       = 33
  Nbeta        = 33

  ==> Algorithm <==

  SCF Algorithm Type is DF.
  DIIS enabled.
  MOM disabled.
  Fractional occupation disabled.
  Guess Type is SAD.
  Energy threshold   = 1.00e-10
  Density threshold  = 1.00e-10
  Integral threshold = 0.00e+00

  ==> Primary Basis <==

  Basis Set: AUG-CC-PVTZ
    Number of shells: 274
    Number of basis function: 782
    Number of Cartesian functions: 890
    Spherical Harmonics?: true
    Max angular momentum: 3

  ==> Pre-Iterations <==

   -------------------------------------------------------
    Irrep   Nso     Nmo     Nalpha   Nbeta   Ndocc  Nsocc
   -------------------------------------------------------
     A        782     782       0       0       0       0
   -------------------------------------------------------
    Total     782     782      33      33      33       0
   -------------------------------------------------------

  ==> Integral Setup <==

  ==> DFJK: Density-Fitted J/K Matrices <==

    J tasked:                  Yes
    K tasked:                  Yes
    wK tasked:                  No
    OpenMP threads:             12
    Integrals threads:          12
    Memory (MB):             42915
    Algorithm:                Core
    Integral Cache:           NONE
    Schwarz Cutoff:          1E-12
    Fitting Condition:       1E-12

   => Auxiliary Basis Set <=

  Basis Set: 
    Number of shells: 492
    Number of basis function: 1660
    Number of Cartesian functions: 2038
    Spherical Harmonics?: true
    Max angular momentum: 4

  Minimum eigenvalue in the overlap matrix is 1.7417679716E-06.
  Using Symmetric Orthogonalization.
  SCF Guess: Superposition of Atomic Densities via on-the-fly atomic UHF.

  ==> Iterations <==

                           Total Energy        Delta E     RMS |[F,P]|

   @DF-RHF iter   0:  -317.58911312814251   -3.17589e+02   7.32521e-03 
   @DF-RHF iter   1:  -313.33138017047378    4.25773e+00   6.38412e-04 
   @DF-RHF iter   2:  -313.52115222997958   -1.89772e-01   1.99580e-04 DIIS
   @DF-RHF iter   3:  -313.53879242441241   -1.76402e-02   7.61161e-05 DIIS
   @DF-RHF iter   4:  -313.54161334304564   -2.82092e-03   1.60127e-05 DIIS
   @DF-RHF iter   5:  -313.54177868313496   -1.65340e-04   3.43345e-06 DIIS
   @DF-RHF iter   6:  -313.54178747005000   -8.78692e-06   1.03690e-06 DIIS
   @DF-RHF iter   7:  -313.54178805028670   -5.80237e-07   2.50353e-07 DIIS
   @DF-RHF iter   8:  -313.54178808820490   -3.79182e-08   5.36090e-08 DIIS
   @DF-RHF iter   9:  -313.54178809009051   -1.88561e-09   1.64350e-08 DIIS
   @DF-RHF iter  10:  -313.54178809024614   -1.55637e-10   4.58503e-09 DIIS
   @DF-RHF iter  11:  -313.54178809026035   -1.42109e-11   1.09420e-09 DIIS
   @DF-RHF iter  12:  -313.54178809026126   -9.09495e-13   3.04932e-10 DIIS
   @DF-RHF iter  13:  -313.54178809026104    2.27374e-13   8.22746e-11 DIIS

  ==> Post-Iterations <==

    Orbital Energies (a.u.)
    -----------------------

    Doubly Occupied:                                                      

       1A    -11.212666     2A    -11.212666     3A    -11.210102  
       4A    -11.209734     5A    -11.209326     6A    -11.209088  
       7A    -11.206287     8A    -11.206287     9A     -1.093574  
      10A     -1.060654    11A     -1.008302    12A     -0.942014  
      13A     -0.892080    14A     -0.828381    15A     -0.783429  
      16A     -0.760310    17A     -0.634025    18A     -0.622976  
      19A     -0.622023    20A     -0.601575    21A     -0.577985  
      22A     -0.555017    23A     -0.554251    24A     -0.518468  
      25A     -0.516357    26A     -0.511544    27A     -0.481176  
      28A     -0.471625    29A     -0.465794    30A     -0.460256  
      31A     -0.453617    32A     -0.437950    33A     -0.431271  

    Virtual:                                                              

      34A      0.031414    35A      0.032919    36A      0.033590  
      37A      0.036933    38A      0.043884    39A      0.046449  
      40A      0.050068    41A      0.054357    42A      0.055810  
      43A      0.062076    44A      0.068986    45A      0.070854  
      46A      0.071697    47A      0.077725    48A      0.086061  
      49A      0.092614    50A      0.097242    51A      0.111579  
      52A      0.113005    53A      0.117300    54A      0.122649  
      55A      0.123340    56A      0.125252    57A      0.129538  
      58A      0.131881    59A      0.136745    60A      0.136938  
      61A      0.141513    62A      0.144278    63A      0.146160  
      64A      0.153508    65A      0.157797    66A      0.159302  
      67A      0.164793    68A      0.170411    69A      0.173606  
      70A      0.177605    71A      0.179090    72A      0.186411  
      73A      0.188848    74A      0.192417    75A      0.195514  
      76A      0.200247    77A      0.221502    78A      0.223380  
      79A      0.235785    80A      0.236919    81A      0.240704  
      82A      0.250253    83A      0.251676    84A      0.253702  
      85A      0.262907    86A      0.281723    87A      0.284019  
      88A      0.284514    89A      0.287639    90A      0.287854  
      91A      0.290672    92A      0.299751    93A      0.317672  
      94A      0.318598    95A      0.318627    96A      0.322382  
      97A      0.330324    98A      0.331515    99A      0.335137  
     100A      0.340698   101A      0.341158   102A      0.344509  
     103A      0.347261   104A      0.353968   105A      0.354798  
     106A      0.359518   107A      0.360275   108A      0.361762  
     109A      0.366805   110A      0.369034   111A      0.371131  
     112A      0.376568   113A      0.378086   114A      0.383334  
     115A      0.385778   116A      0.391188   117A      0.392556  
     118A      0.397170   119A      0.401585   120A      0.401781  
     121A      0.406497   122A      0.420911   123A      0.423440  
     124A      0.424876   125A      0.433705   126A      0.439322  
     127A      0.440821   128A      0.442844   129A      0.449083  
     130A      0.449805   131A      0.452103   132A      0.456149  
     133A      0.459219   134A      0.461392   135A      0.473404  
     136A      0.476951   137A      0.478472   138A      0.480472  
     139A      0.481600   140A      0.489227   141A      0.491198  
     142A      0.492727   143A      0.495958   144A      0.497587  
     145A      0.503573   146A      0.504537   147A      0.509269  
     148A      0.509511   149A      0.516889   150A      0.519104  
     151A      0.526534   152A      0.528160   153A      0.533757  
     154A      0.537214   155A      0.543622   156A      0.545792  
     157A      0.550331   158A      0.556399   159A      0.565788  
     160A      0.568316   161A      0.569130   162A      0.574753  
     163A      0.579602   164A      0.582525   165A      0.585118  
     166A      0.589891   167A      0.593676   168A      0.595234  
     169A      0.600936   170A      0.619982   171A      0.620217  
     172A      0.624533   173A      0.625097   174A      0.629575  
     175A      0.636802   176A      0.648792   177A      0.649366  
     178A      0.656209   179A      0.661112   180A      0.664028  
     181A      0.669828   182A      0.672956   183A      0.677444  
     184A      0.681415   185A      0.686832   186A      0.701252  
     187A      0.707650   188A      0.711221   189A      0.711950  
     190A      0.715817   191A      0.723164   192A      0.734999  
     193A      0.738894   194A      0.747945   195A      0.753145  
     196A      0.759880   197A      0.766740   198A      0.773060  
     199A      0.781375   200A      0.787570   201A      0.804201  
     202A      0.814600   203A      0.814798   204A      0.828067  
     205A      0.828387   206A      0.841681   207A      0.847984  
     208A      0.848912   209A      0.855682   210A      0.857020  
     211A      0.857345   212A      0.873002   213A      0.880388  
     214A      0.882651   215A      0.886633   216A      0.889882  
     217A      0.890683   218A      0.898802   219A      0.904144  
     220A      0.908630   221A      0.910454   222A      0.915139  
     223A      0.917190   224A      0.924191   225A      0.925116  
     226A      0.929527   227A      0.935465   228A      0.938206  
     229A      0.953227   230A      0.959282   231A      0.960835  
     232A      0.964833   233A      0.976201   234A      0.977018  
     235A      0.980699   236A      0.985683   237A      0.985907  
     238A      0.989676   239A      0.998233   240A      0.999263  
     241A      1.003884   242A      1.005640   243A      1.019001  
     244A      1.021479   245A      1.027633   246A      1.028237  
     247A      1.033744   248A      1.039118   249A      1.051414  
     250A      1.060342   251A      1.060854   252A      1.066904  
     253A      1.071689   254A      1.075522   255A      1.079570  
     256A      1.086967   257A      1.089014   258A      1.099607  
     259A      1.105415   260A      1.111571   261A      1.113594  
     262A      1.118741   263A      1.121906   264A      1.122902  
     265A      1.137524   266A      1.140591   267A      1.144590  
     268A      1.148956   269A      1.152011   270A      1.159594  
     271A      1.169057   272A      1.176674   273A      1.179520  
     274A      1.180334   275A      1.184329   276A      1.194561  
     277A      1.196980   278A      1.210898   279A      1.214740  
     280A      1.215618   281A      1.216250   282A      1.222804  
     283A      1.225682   284A      1.232555   285A      1.235925  
     286A      1.238206   287A      1.249335   288A      1.251661  
     289A      1.257943   290A      1.270165   291A      1.270872  
     292A      1.279899   293A      1.280445   294A      1.288923  
     295A      1.291431   296A      1.295882   297A      1.296740  
     298A      1.308103   299A      1.313910   300A      1.318838  
     301A      1.320167   302A      1.334140   303A      1.346089  
     304A      1.356842   305A      1.358234   306A      1.363292  
     307A      1.375007   308A      1.385916   309A      1.390680  
     310A      1.398610   311A      1.406285   312A      1.421594  
     313A      1.430294   314A      1.432739   315A      1.435022  
     316A      1.437119   317A      1.442789   318A      1.449305  
     319A      1.452315   320A      1.470490   321A      1.472034  
     322A      1.480298   323A      1.496271   324A      1.496321  
     325A      1.512188   326A      1.513071   327A      1.519017  
     328A      1.523157   329A      1.523850   330A      1.538179  
     331A      1.546036   332A      1.558323   333A      1.566882  
     334A      1.569881   335A      1.572325   336A      1.579394  
     337A      1.598792   338A      1.599889   339A      1.605933  
     340A      1.619002   341A      1.623133   342A      1.631203  
     343A      1.637823   344A      1.649554   345A      1.653507  
     346A      1.659463   347A      1.667056   348A      1.673413  
     349A      1.681086   350A      1.682706   351A      1.685385  
     352A      1.693613   353A      1.699596   354A      1.705300  
     355A      1.710326   356A      1.717984   357A      1.717989  
     358A      1.724260   359A      1.730777   360A      1.735395  
     361A      1.736019   362A      1.743123   363A      1.749529  
     364A      1.757335   365A      1.761991   366A      1.773806  
     367A      1.774354   368A      1.778485   369A      1.782511  
     370A      1.789786   371A      1.800898   372A      1.801729  
     373A      1.806907   374A      1.814622   375A      1.824115  
     376A      1.825469   377A      1.838899   378A      1.848175  
     379A      1.848969   380A      1.852087   381A      1.855546  
     382A      1.864612   383A      1.881465   384A      1.882776  
     385A      1.889244   386A      1.900433   387A      1.902062  
     388A      1.906196   389A      1.913076   390A      1.921030  
     391A      1.927177   392A      1.932709   393A      1.938339  
     394A      1.947260   395A      1.953821   396A      1.960966  
     397A      1.964184   398A      1.968307   399A      1.969349  
     400A      1.974342   401A      1.996633   402A      2.003308  
     403A      2.014038   404A      2.017907   405A      2.026741  
     406A      2.031024   407A      2.035809   408A      2.041462  
     409A      2.043402   410A      2.054997   411A      2.056625  
     412A      2.066448   413A      2.068745   414A      2.078812  
     415A      2.082798   416A      2.089916   417A      2.099287  
     418A      2.111146   419A      2.117271   420A      2.127626  
     421A      2.140054   422A      2.148082   423A      2.151866  
     424A      2.163157   425A      2.172984   426A      2.177691  
     427A      2.190827   428A      2.199237   429A      2.208486  
     430A      2.214667   431A      2.242494   432A      2.248452  
     433A      2.249256   434A      2.255528   435A      2.261401  
     436A      2.273614   437A      2.274013   438A      2.277990  
     439A      2.291940   440A      2.306582   441A      2.315036  
     442A      2.322471   443A      2.325736   444A      2.328304  
     445A      2.336096   446A      2.336764   447A      2.357716  
     448A      2.364851   449A      2.377200   450A      2.377790  
     451A      2.392340   452A      2.398257   453A      2.405923  
     454A      2.415670   455A      2.423338   456A      2.436850  
     457A      2.439454   458A      2.450888   459A      2.457389  
     460A      2.470341   461A      2.473952   462A      2.489704  
     463A      2.499333   464A      2.520937   465A      2.547392  
     466A      2.559723   467A      2.571933   468A      2.595984  
     469A      2.604271   470A      2.614293   471A      2.623549  
     472A      2.639839   473A      2.661134   474A      2.672702  
     475A      2.681458   476A      2.690473   477A      2.696430  
     478A      2.716601   479A      2.734790   480A      2.772205  
     481A      2.774984   482A      2.811938   483A      2.813867  
     484A      2.846188   485A      2.916678   486A      2.923402  
     487A      2.929593   488A      2.998666   489A      3.036561  
     490A      3.095305   491A      3.159612   492A      3.160423  
     493A      3.288462   494A      3.291707   495A      3.352736  
     496A      3.412517   497A      3.431810   498A      3.440363  
     499A      3.461381   500A      3.468360   501A      3.471372  
     502A      3.492897   503A      3.496353   504A      3.517802  
     505A      3.530920   506A      3.539086   507A      3.553731  
     508A      3.564337   509A      3.574437   510A      3.577283  
     511A      3.603483   512A      3.603853   513A      3.619723  
     514A      3.630212   515A      3.634900   516A      3.649913  
     517A      3.669383   518A      3.669988   519A      3.671546  
     520A      3.678126   521A      3.687204   522A      3.705116  
     523A      3.729521   524A      3.729691   525A      3.739171  
     526A      3.744454   527A      3.744567   528A      3.748391  
     529A      3.753290   530A      3.772965   531A      3.790318  
     532A      3.794243   533A      3.802483   534A      3.805924  
     535A      3.812738   536A      3.830690   537A      3.841263  
     538A      3.845547   539A      3.848743   540A      3.867947  
     541A      3.869829   542A      3.877228   543A      3.885682  
     544A      3.892481   545A      3.899916   546A      3.904477  
     547A      3.916683   548A      3.942849   549A      3.943756  
     550A      3.948964   551A      3.965464   552A      3.971977  
     553A      3.972588   554A      3.974080   555A      3.984313  
     556A      3.992183   557A      3.999538   558A      4.000730  
     559A      4.005389   560A      4.014182   561A      4.018690  
     562A      4.030466   563A      4.031385   564A      4.043475  
     565A      4.050585   566A      4.051014   567A      4.056474  
     568A      4.061124   569A      4.074585   570A      4.079147  
     571A      4.084250   572A      4.093539   573A      4.104448  
     574A      4.105576   575A      4.118753   576A      4.119681  
     577A      4.134800   578A      4.141851   579A      4.145200  
     580A      4.157811   581A      4.165569   582A      4.172245  
     583A      4.178554   584A      4.182364   585A      4.190293  
     586A      4.216417   587A      4.233331   588A      4.245092  
     589A      4.250789   590A      4.271518   591A      4.280324  
     592A      4.283280   593A      4.292199   594A      4.302273  
     595A      4.316658   596A      4.322182   597A      4.322383  
     598A      4.329746   599A      4.348440   600A      4.361663  
     601A      4.375001   602A      4.377780   603A      4.384163  
     604A      4.404648   605A      4.418670   606A      4.421831  
     607A      4.430500   608A      4.447165   609A      4.472928  
     610A      4.479876   611A      4.490570   612A      4.531882  
     613A      4.536745   614A      4.539156   615A      4.561788  
     616A      4.571319   617A      4.581060   618A      4.593573  
     619A      4.605035   620A      4.621083   621A      4.625002  
     622A      4.636526   623A      4.656664   624A      4.673292  
     625A      4.684308   626A      4.690758   627A      4.693333  
     628A      4.719284   629A      4.720713   630A      4.739162  
     631A      4.743862   632A      4.754028   633A      4.759905  
     634A      4.775721   635A      4.787130   636A      4.795094  
     637A      4.798216   638A      4.801648   639A      4.828260  
     640A      4.834130   641A      4.835880   642A      4.855882  
     643A      4.860204   644A      4.876273   645A      4.879228  
     646A      4.887450   647A      4.896002   648A      4.909084  
     649A      4.925203   650A      4.941010   651A      4.951942  
     652A      4.957231   653A      4.960778   654A      4.966154  
     655A      5.006385   656A      5.009588   657A      5.026949  
     658A      5.034530   659A      5.041080   660A      5.043652  
     661A      5.058905   662A      5.064075   663A      5.082858  
     664A      5.085681   665A      5.093449   666A      5.129529  
     667A      5.134197   668A      5.136685   669A      5.156945  
     670A      5.160866   671A      5.172565   672A      5.173704  
     673A      5.192509   674A      5.206941   675A      5.216492  
     676A      5.239547   677A      5.240641   678A      5.260248  
     679A      5.277404   680A      5.294989   681A      5.311586  
     682A      5.319730   683A      5.323669   684A      5.341030  
     685A      5.358055   686A      5.358967   687A      5.387001  
     688A      5.395079   689A      5.401848   690A      5.415233  
     691A      5.419453   692A      5.428045   693A      5.437876  
     694A      5.442180   695A      5.459658   696A      5.466466  
     697A      5.468833   698A      5.479624   699A      5.501763  
     700A      5.504065   701A      5.519949   702A      5.538642  
     703A      5.541089   704A      5.580961   705A      5.590729  
     706A      5.595935   707A      5.597917   708A      5.613665  
     709A      5.621811   710A      5.632692   711A      5.644499  
     712A      5.646918   713A      5.657631   714A      5.659026  
     715A      5.679303   716A      5.689487   717A      5.707336  
     718A      5.714433   719A      5.717600   720A      5.737845  
     721A      5.755735   722A      5.759040   723A      5.766740  
     724A      5.779860   725A      5.797063   726A      5.834785  
     727A      5.846121   728A      5.846836   729A      5.860911  
     730A      5.871618   731A      5.885082   732A      5.938577  
     733A      5.947144   734A      5.986183   735A      6.001555  
     736A      6.030103   737A      6.034303   738A      6.054203  
     739A      6.062738   740A      6.119332   741A      6.152057  
     742A      6.159903   743A      6.165959   744A      6.177373  
     745A      6.218798   746A      6.219874   747A      6.243147  
     748A      6.257444   749A      6.284853   750A      6.301901  
     751A      6.303208   752A      6.326560   753A      6.337347  
     754A      6.344233   755A      6.353463   756A      6.381437  
     757A      6.407071   758A      6.408386   759A      6.568081  
     760A      6.588105   761A      6.631497   762A      6.666623  
     763A      6.741112   764A      6.742497   765A      6.793008  
     766A      6.798253   767A      6.886035   768A      6.888662  
     769A      6.924738   770A      6.928008   771A      6.985726  
     772A      6.991726   773A      7.067806   774A      7.096733  
     775A     17.880995   776A     17.913616   777A     18.324228  
     778A     18.441983   779A     18.595838   780A     18.611124  
     781A     19.211763   782A     19.578136  

    Final Occupation by Irrep:
              A 
    DOCC [    33 ]

  Energy converged.

  @DF-RHF Final Energy:  -313.54178809026104

   => Energetics <=

    Nuclear Repulsion Energy =            388.0624826532081784
    One-Electron Energy =               -1191.2869205220169988
    Two-Electron Energy =                 489.6826497785474430
    DFT Exchange-Correlation Energy =       0.0000000000000000
    Empirical Dispersion Energy =           0.0000000000000000
    PCM Polarization Energy =               0.0000000000000000
    EFP Energy =                            0.0000000000000000
    Total Energy =                       -313.5417880902613206


  Saving occupied orbitals to File 180.

*** tstop() called on wr30 at Tue Sep 20 22:41:19 2016
Module time:
	user time   =     818.94 seconds =      13.65 minutes
	system time =       9.53 seconds =       0.16 minutes
	total time  =         76 seconds =       1.27 minutes
Total time:
	user time   =     818.94 seconds =      13.65 minutes
	system time =       9.53 seconds =       0.16 minutes
	total time  =         76 seconds =       1.27 minutes


Properties will be evaluated at   0.000000,   0.000000,   0.000000 Bohr

Properties computed using the SCF density matrix

  Nuclear Dipole Moment: (a.u.)
     X:     0.0000      Y:     0.0000      Z:    -0.9309

  Electronic Dipole Moment: (a.u.)
     X:    -0.0000      Y:    -0.0000      Z:     0.9658

  Dipole Moment: (a.u.)
     X:    -0.0000      Y:    -0.0000      Z:     0.0348     Total:     0.0348

  Dipole Moment: (Debye)
     X:    -0.0000      Y:    -0.0000      Z:     0.0886     Total:     0.0886


  //>>>>>>>>>>>>>>>>>>>>>>>>>>>>>>>>>>>//
  //               DFMP2               //
  //<<<<<<<<<<<<<<<<<<<<<<<<<<<<<<<<<<<//


*** tstart() called on wr30
*** at Tue Sep 20 22:41:19 2016


*** tstop() called on wr30 at Tue Sep 20 22:41:20 2016
Module time:
	user time   =       4.50 seconds =       0.07 minutes
	system time =       0.22 seconds =       0.00 minutes
	total time  =          1 seconds =       0.02 minutes
Total time:
	user time   =     823.86 seconds =      13.73 minutes
	system time =       9.77 seconds =       0.16 minutes
	total time  =         77 seconds =       1.28 minutes
	 --------------------------------------------------------
	                          DF-MP2                         
	      2nd-Order Density-Fitted Moller-Plesset Theory     
	              RMP2 Wavefunction,  12 Threads             
	                                                         
	        Rob Parrish, Justin Turney, Andy Simmonett,      
	           Ed Hohenstein, and C. David Sherrill          
	 --------------------------------------------------------

   => Auxiliary Basis Set <=

  Basis Set: 
    Number of shells: 476
    Number of basis function: 1676
    Number of Cartesian functions: 2078
    Spherical Harmonics?: true
    Max angular momentum: 4

	 --------------------------------------------------------
	                 NBF =   782, NAUX =  1676
	 --------------------------------------------------------
	   CLASS    FOCC     OCC    AOCC    AVIR     VIR    FVIR
	   PAIRS       8      33      25     749     749       0
	 --------------------------------------------------------

DGAS Warning! /src/lib/libfock/apps.cc:80 is not currently checking restricted

         ------------------------------------------------------------
                                     CPHF                           
                                  Rob Parrish                       
         ------------------------------------------------------------

  ==> Geometry <==

    Molecular point group: c1
    Full point group: C1

    Geometry (in Angstrom), charge = 0, multiplicity = 1:

       Center              X                  Y                   Z               Mass       
    ------------   -----------------  -----------------  -----------------  -----------------
           C          0.094806617670     3.816150588170    -0.600083544321    12.000000000000
           H         -0.260797615711     4.842895804484    -0.516843740017     1.007825032070
           H         -0.294267692175     3.408416991881    -1.532036982125     1.007825032070
           H          1.183168578703     3.844169393353    -0.675988482961     1.007825032070
           C         -0.094796914767    -3.816108860873    -0.599792762780    12.000000000000
           H          0.294351457627    -3.408348642636    -1.531706174028     1.007825032070
           H         -1.183152805449    -3.844126633100    -0.675786826182     1.007825032070
           H          0.260802875370    -4.842855781162    -0.516547398802     1.007825032070
           C         -0.337699567699     2.985556915849     0.603668623591    12.000000000000
           H         -1.429455239891     2.935615286863     0.642685895804     1.007825032070
           H         -0.018710487396     3.490232369554     1.518332793853     1.007825032070
           C          0.337607346395    -2.985540042588     0.604012483059    12.000000000000
           H          0.018468384023    -3.490174445700     1.518648349893     1.007825032070
           H          1.429361519477    -2.935669759322     0.643161756950     1.007825032070
           C          0.226350342670     1.565665731929     0.599367943450    12.000000000000
           H         -0.030621664279     1.083878569045     1.544870617417     1.007825032070
           H          1.320152003025     1.612927778837     0.559926443132     1.007825032070
           C         -0.275058619286     0.713034271104    -0.561742026969    12.000000000000
           H         -0.004373987885     1.192487552976    -1.504811831301     1.007825032070
           H         -1.369678860025     0.676913253369    -0.533818080081     1.007825032070
           C          0.275121484396    -0.713151689463    -0.561624667796    12.000000000000
           H          0.004473464876    -1.192751753842    -1.504632968889     1.007825032070
           H          1.369740314564    -0.677027931507    -0.533663343598     1.007825032070
           C         -0.226331286765    -1.565610079662     0.599591987711    12.000000000000
           H          0.030682903782    -1.083743177258     1.545043491556     1.007825032070
           H         -1.320136035664    -1.612801184368     0.560160352812     1.007825032070

  Nuclear repulsion =  388.062482653208178
  Reference energy  = -313.541788090261036

  ==> Basis Set <==

  Basis Set: AUG-CC-PVTZ
    Number of shells: 274
    Number of basis function: 782
    Number of Cartesian functions: 890
    Spherical Harmonics?: true
    Max angular momentum: 3

  ==> CGRSolver (by Rob Parrish) <==

   Number of roots    =         1
   Preconditioning    =    JACOBI
   Convergence cutoff =     1E-06
   Maximum iterations =       100

  ==> CPHFRHamiltonian (by Rob Parrish) <== 

  ==> DFJK: Density-Fitted J/K Matrices <==

    J tasked:                  Yes
    K tasked:                  Yes
    wK tasked:                  No
    OpenMP threads:             12
    Integrals threads:          12
    Memory (MB):             42915
    Algorithm:                Core
    Integral Cache:           NONE
    Schwarz Cutoff:          1E-12
    Fitting Condition:       1E-12

   => Auxiliary Basis Set <=

  Basis Set: 
    Number of shells: 492
    Number of basis function: 1660
    Number of Cartesian functions: 2038
    Spherical Harmonics?: true
    Max angular momentum: 4

  ==> CPHF Iterations <==

  => Iterations <=

             Iter  Converged  Remaining    Residual
  CGR           1          0          1   9.035E-02
  CGR           2          0          1   1.246E-02
  CGR           3          0          1   2.778E-03
  CGR           4          0          1   7.429E-04
  CGR           5          0          1   1.778E-04
  CGR           6          0          1   3.883E-05
  CGR           7          0          1   8.431E-06
  CGR           8          0          1   2.040E-06
  CGR           9          1          0   5.461E-07

    CGRSolver converged.

  ==> DFCorrGrad: Density-Fitted Correlated Gradients <==

    OpenMP threads:             12
    Integrals threads:          12
    Memory (MB):             42915
    Schwarz Cutoff:          0E+00
    Fitting Condition:       1E-12

   => Auxiliary Basis Set <=

  Basis Set: 
    Number of shells: 492
    Number of basis function: 1660
    Number of Cartesian functions: 2038
    Spherical Harmonics?: true
    Max angular momentum: 4

	-----------------------------------------------------------
	 ==================> DF-MP2 Energies <==================== 
	-----------------------------------------------------------
	 Reference Energy          =    -313.5417880902610364 [Eh]
	 Singles Energy            =      -0.0000000000000004 [Eh]
	 Same-Spin Energy          =      -0.3158834412407697 [Eh]
	 Opposite-Spin Energy      =      -1.1248284214889828 [Eh]
	 Correlation Energy        =      -1.4407118627297528 [Eh]
	 Total Energy              =    -314.9824999529907927 [Eh]
	-----------------------------------------------------------
	 ================> DF-SCS-MP2 Energies <================== 
	-----------------------------------------------------------
	 SCS Same-Spin Scale       =       0.3333333333333333 [-]
	 SCS Opposite-Spin Scale   =       1.2000000000000000 [-]
	 SCS Same-Spin Energy      =      -0.1052944804135899 [Eh]
	 SCS Opposite-Spin Energy  =      -1.3497941057867793 [Eh]
	 SCS Correlation Energy    =      -1.4550885862003695 [Eh]
	 SCS Total Energy          =    -314.9968766764613974 [Eh]
	-----------------------------------------------------------


  -Total Gradient:
     Atom            X                  Y                   Z
    ------   -----------------  -----------------  -----------------
       1        0.000000272445     0.000001151740     0.000000427510
       2        0.000000246036    -0.000000012946     0.000000085902
       3       -0.000000103646     0.000001062334     0.000001023263
       4        0.000000156505    -0.000000036028    -0.000000234741
       5        0.000000340091     0.000001060325    -0.000000025188
       6        0.000000088471     0.000001376412    -0.000001346411
       7       -0.000000152187    -0.000000005415     0.000000216108
       8        0.000000373949    -0.000000326712    -0.000000023361
       9       -0.000001853871    -0.000000214200    -0.000000755771
      10       -0.000000279013     0.000000389014     0.000000047947
      11       -0.000000110487    -0.000000046244    -0.000000561634
      12       -0.000002358657    -0.000000075726     0.000000448021
      13       -0.000000209548    -0.000000267709     0.000000662562
      14        0.000000076475     0.000000404021    -0.000000102922
      15        0.000001731079    -0.000000158396    -0.000000593781
      16        0.000000111292     0.000000411690    -0.000000420380
      17        0.000000279302    -0.000000366059     0.000000047574
      18       -0.000000187878    -0.000000903711     0.000000267126
      19        0.000000156055    -0.000001266030     0.000000881164
      20       -0.000000464645     0.000000052589    -0.000000203783
      21       -0.000000346623    -0.000000394975     0.000000411756
      22       -0.000000096136    -0.000001687763    -0.000001346842
      23        0.000000007025     0.000000167641     0.000000313712
      24        0.000002080301    -0.000000311315     0.000000307355
      25        0.000000186225     0.000000288476     0.000000443038
      26        0.000000057440    -0.000000291018     0.000000031776


			-----------------------------------------
			 OPTKING 2.0: for geometry optimizations 
			  - R.A. King,  Bethel University        
			-----------------------------------------

	Internal coordinates to be generated automatically.
	Detected frag 1 with atoms:  1 2 3 4 5 6 7 8 9 10 11 12 13 14 15 16 17 18 19 20
	 21 22 23 24 25 26
	---Fragment 1 Bond Connectivity---
	 1 : 2 3 4 9
	 2 : 1
	 3 : 1
	 4 : 1
	 5 : 6 7 8 12
	 6 : 5
	 7 : 5
	 8 : 5
	 9 : 1 10 11 15
	 10 : 9
	 11 : 9
	 12 : 5 13 14 24
	 13 : 12
	 14 : 12
	 15 : 9 16 17 18
	 16 : 15
	 17 : 15
	 18 : 15 19 20 21
	 19 : 18
	 20 : 18
	 21 : 18 22 23 24
	 22 : 21
	 23 : 21
	 24 : 12 21 25 26
	 25 : 24
	 26 : 24

	---Fragment 1 Geometry and Gradient---
	 C           0.1791585430        7.2114794935       -1.1339935556
	 H          -0.4928360698        9.1517467606       -0.9766931221
	 H          -0.5560853480        6.4409746613       -2.8951303217
	 H           2.2358645828        7.2644273619       -1.2774331018
	 C          -0.1791402072       -7.2114006403       -1.1334440581
	 H           0.5562436417       -6.4408455000       -2.8945051850
	 H          -2.2358347757       -7.2643465567       -1.2770520257
	 H           0.4928460091       -9.1516711275       -0.9761331184
	 C          -0.6381596981        5.6418849251        1.1407683736
	 H          -2.7012789226        5.5475089237        1.2145003325
	 H          -0.0353576970        6.5955833186        2.8692331590
	 C           0.6379854251       -5.6418530393        1.1414181738
	 H           0.0349001879       -6.5954738584        2.8698294735
	 H           2.7011018167       -5.5476118617        1.2153995798
	 C           0.4277401577        2.9586794490        1.1326412660
	 H          -0.0578665592        2.0482336568        2.9193823777
	 H           2.4947257395        3.0479917741        1.0581076321
	 C          -0.5197854609        1.3474394957       -1.0615385883
	 H          -0.0082656392        2.2534748920       -2.8436822427
	 H          -2.5883179355        1.2791806646       -1.0087699761
	 C           0.5199042588       -1.3476613843       -1.0613168116
	 H           0.0084536235       -2.2539741593       -2.8433442417
	 H           2.5884340677       -1.2793973749       -1.0084775666
	 C          -0.4277041473       -2.9585742814        1.1330646482
	 H           0.0579822851       -2.0479778034        2.9197090624
	 H          -2.4946955656       -3.0477525452        1.0585496573
	             0.0000002724        0.0000011517        0.0000004275
	             0.0000002460       -0.0000000129        0.0000000859
	            -0.0000001036        0.0000010623        0.0000010233
	             0.0000001565       -0.0000000360       -0.0000002347
	             0.0000003401        0.0000010603       -0.0000000252
	             0.0000000885        0.0000013764       -0.0000013464
	            -0.0000001522       -0.0000000054        0.0000002161
	             0.0000003739       -0.0000003267       -0.0000000234
	            -0.0000018539       -0.0000002142       -0.0000007558
	            -0.0000002790        0.0000003890        0.0000000479
	            -0.0000001105       -0.0000000462       -0.0000005616
	            -0.0000023587       -0.0000000757        0.0000004480
	            -0.0000002095       -0.0000002677        0.0000006626
	             0.0000000765        0.0000004040       -0.0000001029
	             0.0000017311       -0.0000001584       -0.0000005938
	             0.0000001113        0.0000004117       -0.0000004204
	             0.0000002793       -0.0000003661        0.0000000476
	            -0.0000001879       -0.0000009037        0.0000002671
	             0.0000001561       -0.0000012660        0.0000008812
	            -0.0000004646        0.0000000526       -0.0000002038
	            -0.0000003466       -0.0000003950        0.0000004118
	            -0.0000000961       -0.0000016878       -0.0000013468
	             0.0000000070        0.0000001676        0.0000003137
	             0.0000020803       -0.0000003113        0.0000003074
	             0.0000001862        0.0000002885        0.0000004430
	             0.0000000574       -0.0000002910        0.0000000318

	Previous optimization step data not found.  Starting new optimization.

	---Fragment 1 Intrafragment Coordinates---
	 - Coordinate -           - BOHR/RAD -       - ANG/DEG -
	 R(1,2)           =         2.059358	       1.089766
	 R(1,3)           =         2.058121	       1.089111
	 R(1,4)           =         2.062382	       1.091365
	 R(1,9)           =         2.882044	       1.525112
	 R(5,6)           =         2.058126	       1.089113
	 R(5,7)           =         2.062382	       1.091365
	 R(5,8)           =         2.059360	       1.089766
	 R(5,12)          =         2.882043	       1.525111
	 R(9,10)          =         2.066592	       1.093594
	 R(9,11)          =         2.064098	       1.092274
	 R(9,15)          =         2.887179	       1.527829
	 R(12,13)         =         2.064100	       1.092275
	 R(12,14)         =         2.066592	       1.093594
	 R(12,24)         =         2.887170	       1.527824
	 R(15,16)         =         2.063291	       1.091847
	 R(15,17)         =         2.070256	       1.095532
	 R(15,18)         =         2.882416	       1.525309
	 R(18,19)         =         2.063635	       1.092029
	 R(18,20)         =         2.070331	       1.095572
	 R(18,21)         =         2.888689	       1.528628
	 R(21,22)         =         2.063639	       1.092031
	 R(21,23)         =         2.070330	       1.095572
	 R(21,24)         =         2.882414	       1.525308
	 R(24,25)         =         2.063292	       1.091847
	 R(24,26)         =         2.070256	       1.095532
	 B(1,9,10)        =         1.913616	     109.642145
	 B(1,9,11)        =         1.903387	     109.056014
	 B(1,9,15)        =         1.981459	     113.529261
	 B(2,1,3)         =         1.877075	     107.548461
	 B(2,1,4)         =         1.882351	     107.850752
	 B(2,1,9)         =         1.939375	     111.117997
	 B(3,1,4)         =         1.882157	     107.839649
	 B(3,1,9)         =         1.950017	     111.727758
	 B(4,1,9)         =         1.930168	     110.590507
	 B(5,12,13)       =         1.903405	     109.057050
	 B(5,12,14)       =         1.913609	     109.641735
	 B(5,12,24)       =         1.981441	     113.528222
	 B(6,5,7)         =         1.882155	     107.839537
	 B(6,5,8)         =         1.877079	     107.548682
	 B(6,5,12)        =         1.950015	     111.727606
	 B(7,5,8)         =         1.882352	     107.850835
	 B(7,5,12)        =         1.930166	     110.590373
	 B(8,5,12)        =         1.939377	     111.118102
	 B(9,15,16)       =         1.897326	     108.708771
	 B(9,15,17)       =         1.905627	     109.184373
	 B(9,15,18)       =         1.982619	     113.595701
	 B(10,9,11)       =         1.857481	     106.425846
	 B(10,9,15)       =         1.903101	     109.039670
	 B(11,9,15)       =         1.900687	     108.901317
	 B(12,24,21)      =         1.982601	     113.594669
	 B(12,24,25)      =         1.897342	     108.709674
	 B(12,24,26)      =         1.905618	     109.183847
	 B(13,12,14)      =         1.857486	     106.426103
	 B(13,12,24)      =         1.900701	     108.902146
	 B(14,12,24)      =         1.903091	     109.039089
	 B(15,18,19)      =         1.907617	     109.298380
	 B(15,18,20)      =         1.904419	     109.115180
	 B(15,18,21)      =         1.985759	     113.775588
	 B(16,15,17)      =         1.860008	     106.570593
	 B(16,15,18)      =         1.912585	     109.583036
	 B(17,15,18)      =         1.901719	     108.960493
	 B(18,21,22)      =         1.897034	     108.692059
	 B(18,21,23)      =         1.905875	     109.198603
	 B(18,21,24)      =         1.985760	     113.775649
	 B(19,18,20)      =         1.858910	     106.507726
	 B(19,18,21)      =         1.897030	     108.691804
	 B(20,18,21)      =         1.905874	     109.198529
	 B(21,24,25)      =         1.912600	     109.583928
	 B(21,24,26)      =         1.901712	     108.960080
	 B(22,21,23)      =         1.858910	     106.507680
	 B(22,21,24)      =         1.907612	     109.298118
	 B(23,21,24)      =         1.904418	     109.115090
	 B(25,24,26)      =         1.860012	     106.570844
	 D(1,9,15,16)     =         3.024891	     173.313490
	 D(1,9,15,17)     =         1.002235	      57.423859
	 D(1,9,15,18)     =        -1.124080	     -64.405014
	 D(2,1,9,10)      =         1.089677	      62.433887
	 D(2,1,9,11)      =        -0.937763	     -53.729869
	 D(2,1,9,15)      =        -3.060338	    -175.344455
	 D(3,1,9,10)      =        -1.006862	     -57.688948
	 D(3,1,9,11)      =        -3.034302	    -173.852704
	 D(3,1,9,15)      =         1.126308	      64.532710
	 D(4,1,9,10)      =        -3.103572	    -177.821605
	 D(4,1,9,11)      =         1.152173	      66.014640
	 D(4,1,9,15)      =        -0.970402	     -55.599946
	 D(5,12,24,21)    =        -1.123885	     -64.393847
	 D(5,12,24,25)    =         3.025067	     173.323550
	 D(5,12,24,26)    =         1.002402	      57.433409
	 D(6,5,12,13)     =        -3.034400	    -173.858295
	 D(6,5,12,14)     =        -1.006948	     -57.693873
	 D(6,5,12,24)     =         1.126191	      64.526007
	 D(7,5,12,13)     =         1.152081	      66.009382
	 D(7,5,12,14)     =        -3.103653	    -177.826195
	 D(7,5,12,24)     =        -0.970513	     -55.606316
	 D(8,5,12,13)     =        -0.937856	     -53.735210
	 D(8,5,12,14)     =         1.089595	      62.429212
	 D(8,5,12,24)     =        -3.060451	    -175.350908
	 D(9,15,18,19)    =         1.028503	      58.928907
	 D(9,15,18,20)    =        -0.997879	     -57.174242
	 D(9,15,18,21)    =        -3.130807	    -179.382008
	 D(10,9,15,16)    =        -1.119306	     -64.131481
	 D(10,9,15,17)    =         3.141224	     179.978887
	 D(10,9,15,18)    =         1.014909	      58.150014
	 D(11,9,15,16)    =         0.900810	      51.612620
	 D(11,9,15,17)    =        -1.121845	     -64.277011
	 D(11,9,15,18)    =         3.035025	     173.894116
	 D(12,24,21,18)   =        -3.130922	    -179.388624
	 D(12,24,21,22)   =         1.028385	      58.922114
	 D(12,24,21,23)   =        -0.997993	     -57.180785
	 D(13,12,24,21)   =         3.035198	     173.904055
	 D(13,12,24,25)   =         0.900964	      51.621452
	 D(13,12,24,26)   =        -1.121700	     -64.268689
	 D(14,12,24,21)   =         1.015075	      58.159511
	 D(14,12,24,25)   =        -1.119159	     -64.123093
	 D(14,12,24,26)   =         3.141362	     179.986767
	 D(15,18,21,22)   =        -2.976770	    -170.556345
	 D(15,18,21,23)   =        -0.955447	     -54.743081
	 D(15,18,21,24)   =         1.176678	      67.418661
	 D(16,15,18,19)   =        -3.128932	    -179.274612
	 D(16,15,18,20)   =         1.127871	      64.622239
	 D(16,15,18,21)   =        -1.005057	     -57.585527
	 D(17,15,18,19)   =        -1.099983	     -63.024366
	 D(17,15,18,20)   =        -3.126365	    -179.127515
	 D(17,15,18,21)   =         1.023893	      58.664719
	 D(18,21,24,25)   =        -1.005153	     -57.591033
	 D(18,21,24,26)   =         1.023806	      58.659779
	 D(19,18,21,22)   =        -0.847030	     -48.531242
	 D(19,18,21,23)   =         1.174293	      67.282023
	 D(19,18,21,24)   =        -2.976768	    -170.556236
	 D(20,18,21,22)   =         1.174291	      67.281896
	 D(20,18,21,23)   =        -3.087572	    -176.904840
	 D(20,18,21,24)   =        -0.955447	     -54.743099
	 D(22,21,24,25)   =        -3.129031	    -179.280296
	 D(22,21,24,26)   =        -1.100072	     -63.029483
	 D(23,21,24,25)   =         1.127776	      64.616806
	 D(23,21,24,26)   =        -3.126450	    -179.132382

	Current energy   :      -314.9824999530

	Generating empirical Hessian (Schlegel '84) for each fragment.
	Taking RFO optimization step.
	Going to follow RFO solution 1.
	Using RFO vector 1.
	Norm of target step-size    0.00162
	Projected energy change by RFO approximation:         0.0000000080

	Back-transformation to cartesian coordinates...
	Successfully converged to displaced geometry.

	--- Internal Coordinate Step in ANG or DEG, aJ/ANG or AJ/DEG ---
	 ---------------------------------------------------------------------------
	   Coordinate                Previous        Force       Change         New 
	   ----------                --------       ------       ------       ------
	    1 R(1,2)          =      1.089766     0.000001     0.000000     1.089766
	    2 R(1,3)          =      1.089111     0.000010     0.000002     1.089113
	    3 R(1,4)          =      1.091365    -0.000001    -0.000000     1.091365
	    4 R(1,9)          =      1.525112    -0.000003    -0.000001     1.525111
	    5 R(5,6)          =      1.089113    -0.000014    -0.000003     1.089111
	    6 R(5,7)          =      1.091365    -0.000001    -0.000000     1.091365
	    7 R(5,8)          =      1.089766    -0.000004    -0.000001     1.089765
	    8 R(5,12)         =      1.525111     0.000004     0.000001     1.525112
	    9 R(9,10)         =      1.093594    -0.000002    -0.000000     1.093593
	   10 R(9,11)         =      1.092274     0.000004     0.000001     1.092275
	   11 R(9,15)         =      1.527829    -0.000023    -0.000005     1.527824
	   12 R(12,13)        =      1.092275    -0.000006    -0.000001     1.092274
	   13 R(12,14)        =      1.093594    -0.000001    -0.000000     1.093593
	   14 R(12,24)        =      1.527824     0.000022     0.000005     1.527829
	   15 R(15,16)        =      1.091847     0.000005     0.000001     1.091847
	   16 R(15,17)        =      1.095532    -0.000002    -0.000000     1.095532
	   17 R(15,18)        =      1.525309    -0.000005    -0.000001     1.525308
	   18 R(18,19)        =      1.092029     0.000011     0.000002     1.092030
	   19 R(18,20)        =      1.095572    -0.000004    -0.000001     1.095571
	   20 R(18,21)        =      1.528628    -0.000001    -0.000000     1.528628
	   21 R(21,22)        =      1.092031    -0.000016    -0.000003     1.092028
	   22 R(21,23)        =      1.095572    -0.000000    -0.000000     1.095572
	   23 R(21,24)        =      1.525308     0.000006     0.000001     1.525309
	   24 R(24,25)        =      1.091847    -0.000005    -0.000001     1.091846
	   25 R(24,26)        =      1.095532     0.000000     0.000000     1.095532
	   26 B(1,9,10)       =    109.642145     0.000000    -0.000418   109.641727
	   27 B(1,9,11)       =    109.056014     0.000000     0.001134   109.057149
	   28 B(1,9,15)       =    113.529261    -0.000000    -0.001125   113.528136
	   29 B(2,1,3)        =    107.548461     0.000000     0.000205   107.548667
	   30 B(2,1,4)        =    107.850752     0.000000     0.000070   107.850822
	   31 B(2,1,9)        =    111.117997     0.000000     0.000119   111.118116
	   32 B(3,1,4)        =    107.839649     0.000000    -0.000121   107.839528
	   33 B(3,1,9)        =    111.727758    -0.000000    -0.000113   111.727645
	   34 B(4,1,9)        =    110.590507    -0.000000    -0.000152   110.590355
	   35 B(5,12,13)      =    109.057050    -0.000000    -0.001105   109.055945
	   36 B(5,12,14)      =    109.641735    -0.000000     0.000487   109.642222
	   37 B(5,12,24)      =    113.528222     0.000000     0.001100   113.529322
	   38 B(6,5,7)        =    107.839537    -0.000000     0.000116   107.839654
	   39 B(6,5,8)        =    107.548682    -0.000000    -0.000247   107.548435
	   40 B(6,5,12)       =    111.727606     0.000000     0.000201   111.727808
	   41 B(7,5,8)        =    107.850835    -0.000000    -0.000105   107.850730
	   42 B(7,5,12)       =    110.590373     0.000000     0.000150   110.590523
	   43 B(8,5,12)       =    111.118102    -0.000000    -0.000129   111.117973
	   44 B(9,15,16)      =    108.708771     0.000000     0.000934   108.709706
	   45 B(9,15,17)      =    109.184373     0.000000    -0.000556   109.183818
	   46 B(9,15,18)      =    113.595701    -0.000000    -0.001050   113.594651
	   47 B(10,9,11)      =    106.425846    -0.000000     0.000269   106.426115
	   48 B(10,9,15)      =    109.039670     0.000000    -0.000627   109.039044
	   49 B(11,9,15)      =    108.901317     0.000000     0.000864   108.902182
	   50 B(12,24,21)     =    113.594669     0.000000     0.001105   113.595775
	   51 B(12,24,25)     =    108.709674    -0.000000    -0.000976   108.708698
	   52 B(12,24,26)     =    109.183847    -0.000000     0.000604   109.184451
	   53 B(13,12,14)     =    106.426103     0.000000    -0.000296   106.425807
	   54 B(13,12,24)     =    108.902146    -0.000000    -0.000940   108.901205
	   55 B(14,12,24)     =    109.039089    -0.000000     0.000655   109.039745
	   56 B(15,18,19)     =    109.298380    -0.000000    -0.000122   109.298259
	   57 B(15,18,20)     =    109.115180    -0.000000    -0.000146   109.115034
	   58 B(15,18,21)     =    113.775588    -0.000000    -0.000045   113.775543
	   59 B(16,15,17)     =    106.570593    -0.000000     0.000260   106.570853
	   60 B(16,15,18)     =    109.583036     0.000000     0.000888   109.583923
	   61 B(17,15,18)     =    108.960493     0.000000    -0.000399   108.960094
	   62 B(18,21,22)     =    108.692059    -0.000000    -0.000180   108.691878
	   63 B(18,21,23)     =    109.198603     0.000000    -0.000097   109.198507
	   64 B(18,21,24)     =    113.775649    -0.000000    -0.000222   113.775427
	   65 B(19,18,20)     =    106.507726    -0.000000    -0.000065   106.507660
	   66 B(19,18,21)     =    108.691804     0.000000     0.000355   108.692159
	   67 B(20,18,21)     =    109.198529     0.000000     0.000023   109.198551
	   68 B(21,24,25)     =    109.583928    -0.000000    -0.000987   109.582941
	   69 B(21,24,26)     =    108.960080    -0.000000     0.000433   108.960514
	   70 B(22,21,23)     =    106.507680    -0.000000     0.000049   106.507729
	   71 B(22,21,24)     =    109.298118     0.000000     0.000410   109.298528
	   72 B(23,21,24)     =    109.115090     0.000000     0.000057   109.115148
	   73 B(25,24,26)     =    106.570844     0.000000    -0.000260   106.570584
	   74 D(1,9,15,16)    =    173.313490     0.000000     0.017796   173.331286
	   75 D(1,9,15,17)    =     57.423859     0.000000     0.017274    57.441133
	   76 D(1,9,15,18)    =    -64.405014     0.000000     0.018908   -64.386107
	   77 D(2,1,9,10)     =     62.433887     0.000000    -0.007971    62.425915
	   78 D(2,1,9,11)     =    -53.729869    -0.000000    -0.008704   -53.738573
	   79 D(2,1,9,15)     =   -175.344455    -0.000000    -0.009875  -175.354330
	   80 D(3,1,9,10)     =    -57.688948     0.000000    -0.008237   -57.697186
	   81 D(3,1,9,11)     =   -173.852704    -0.000000    -0.008970  -173.861674
	   82 D(3,1,9,15)     =     64.532710    -0.000000    -0.010141    64.522569
	   83 D(4,1,9,10)     =   -177.821605     0.000000    -0.007906  -177.829511
	   84 D(4,1,9,11)     =     66.014640    -0.000000    -0.008638    66.006001
	   85 D(4,1,9,15)     =    -55.599946    -0.000000    -0.009809   -55.609756
	   86 D(5,12,24,21)   =    -64.393847    -0.000000    -0.020166   -64.414013
	   87 D(5,12,24,25)   =    173.323550    -0.000000    -0.018934   173.304616
	   88 D(5,12,24,26)   =     57.433409    -0.000000    -0.018416    57.414994
	   89 D(6,5,12,13)    =   -173.858295     0.000000     0.009092  -173.849203
	   90 D(6,5,12,14)    =    -57.693873    -0.000000     0.008383   -57.685490
	   91 D(6,5,12,24)    =     64.526007     0.000000     0.010357    64.536364
	   92 D(7,5,12,13)    =     66.009382     0.000000     0.008709    66.018091
	   93 D(7,5,12,14)    =   -177.826195    -0.000000     0.008000  -177.818196
	   94 D(7,5,12,24)    =    -55.606316     0.000000     0.009974   -55.596342
	   95 D(8,5,12,13)    =    -53.735210     0.000000     0.008826   -53.726384
	   96 D(8,5,12,14)    =     62.429212    -0.000000     0.008117    62.437329
	   97 D(8,5,12,24)    =   -175.350908     0.000000     0.010091  -175.340817
	   98 D(9,15,18,19)   =     58.928907    -0.000000    -0.008381    58.920526
	   99 D(9,15,18,20)   =    -57.174242    -0.000000    -0.008153   -57.182395
	  100 D(9,15,18,21)   =   -179.382008    -0.000000    -0.008043  -179.390051
	  101 D(10,9,15,16)   =    -64.131481    -0.000000     0.016022   -64.115460
	  102 D(10,9,15,17)   =    179.978887    -0.000000     0.015500   179.994388
	  103 D(10,9,15,18)   =     58.150014     0.000000     0.017134    58.167148
	  104 D(11,9,15,16)   =     51.612620     0.000000     0.016473    51.629094
	  105 D(11,9,15,17)   =    -64.277011    -0.000000     0.015952   -64.261059
	  106 D(11,9,15,18)   =    173.894116     0.000000     0.017585   173.911701
	  107 D(12,24,21,18)  =   -179.388624     0.000000     0.011893  -179.376731
	  108 D(12,24,21,22)  =     58.922114     0.000000     0.011976    58.934090
	  109 D(12,24,21,23)  =    -57.180785     0.000000     0.011658   -57.169127
	  110 D(13,12,24,21)  =    173.904055    -0.000000    -0.018809   173.885246
	  111 D(13,12,24,25)  =     51.621452    -0.000000    -0.017577    51.603875
	  112 D(13,12,24,26)  =    -64.268689     0.000000    -0.017059   -64.285747
	  113 D(14,12,24,21)  =     58.159511    -0.000000    -0.018300    58.141211
	  114 D(14,12,24,25)  =    -64.123093     0.000000    -0.017067   -64.140160
	  115 D(14,12,24,26)  =    179.986767     0.000000    -0.016549   179.970218
	  116 D(15,18,21,22)  =   -170.556345     0.000000    -0.001516  -170.557860
	  117 D(15,18,21,23)  =    -54.743081    -0.000000    -0.001610   -54.744690
	  118 D(15,18,21,24)  =     67.418661    -0.000000    -0.001760    67.416901
	  119 D(16,15,18,19)  =   -179.274612    -0.000000    -0.007247  -179.281859
	  120 D(16,15,18,20)  =     64.622239    -0.000000    -0.007019    64.615220
	  121 D(16,15,18,21)  =    -57.585527    -0.000000    -0.006909   -57.592437
	  122 D(17,15,18,19)  =    -63.024366     0.000000    -0.006665   -63.031031
	  123 D(17,15,18,20)  =   -179.127515     0.000000    -0.006437  -179.133952
	  124 D(17,15,18,21)  =     58.664719     0.000000    -0.006328    58.658391
	  125 D(18,21,24,25)  =    -57.591033     0.000000     0.010670   -57.580363
	  126 D(18,21,24,26)  =     58.659779    -0.000000     0.010052    58.669832
	  127 D(19,18,21,22)  =    -48.531242     0.000000    -0.001443   -48.532684
	  128 D(19,18,21,23)  =     67.282023    -0.000000    -0.001537    67.280486
	  129 D(19,18,21,24)  =   -170.556236    -0.000000    -0.001687  -170.557923
	  130 D(20,18,21,22)  =     67.281896     0.000000    -0.001313    67.280583
	  131 D(20,18,21,23)  =   -176.904840     0.000000    -0.001407  -176.906247
	  132 D(20,18,21,24)  =    -54.743099    -0.000000    -0.001557   -54.744656
	  133 D(22,21,24,25)  =   -179.280296     0.000000     0.010753  -179.269542
	  134 D(22,21,24,26)  =    -63.029483    -0.000000     0.010136   -63.019347
	  135 D(23,21,24,25)  =     64.616806     0.000000     0.010435    64.627240
	  136 D(23,21,24,26)  =   -179.132382    -0.000000     0.009817  -179.122565
	 ---------------------------------------------------------------------------

  ==> Convergence Check <==

  Measures of convergence in internal coordinates in au.
  Criteria marked as inactive (o), active & met (*), and active & unmet ( ).
  --------------------------------------------------------------------------------------------- ~
   Step     Total Energy     Delta E     MAX Force     RMS Force      MAX Disp      RMS Disp    ~
  --------------------------------------------------------------------------------------------- ~
    Convergence Criteria             o    2.00e-06 *    1.00e-06 *    6.00e-06 *    4.00e-06 *  ~
  --------------------------------------------------------------------------------------------- ~
      1    -314.98249995   -3.15e+02 o    3.83e-06      9.89e-07 *    3.52e-04      1.39e-04    ~
  ---------------------------------------------------------------------------------------------

	Writing optimization data to binary file.
	Structure for next step:
	Cartesian Geometry (in Angstrom)
	    C     0.0948804138   3.8160463229  -0.5999911440
	    H    -0.2607175737   4.8428020847  -0.5168530508
	    H    -0.2942352181   3.4082029571  -1.5318814703
	    H     1.1832388392   3.8440523562  -0.6759477085
	    C    -0.0948376575  -3.8162366581  -0.5998236862
	    H     0.2942683827  -3.4086379245  -1.5318224197
	    H    -1.1831977424  -3.8442518053  -0.6757556327
	    H     0.2607504245  -4.8429750431  -0.5164317166
	    C    -0.3375713055   2.9855897560   0.6038744194
	    H    -1.4293278023   2.9357769716   0.6430218141
	    H    -0.0184115920   3.4902750058   1.5184746260
	    C     0.3376456104  -2.9854826784   0.6038263594
	    H     0.0186776434  -3.4900596610   1.5185521869
	    H     1.4293995010  -2.9354985773   0.6428341503
	    C     0.2262950826   1.5656310059   0.5995601607
	    H    -0.0308653504   1.0837990975   1.5449898182
	    H     1.3201072116   1.6127657033   0.5602681303
	    C    -0.2750519280   0.7131712192  -0.5617011992
	    H    -0.0042837376   1.1927474954  -1.5046867383
	    H    -1.3696746532   0.6770813424  -0.5338623130
	    C     0.2750833573  -0.7130318869  -0.5617313321
	    H     0.0044684298  -1.1925028532  -1.5048113604
	    H     1.3697018164  -0.6769440836  -0.5337103461
	    C    -0.2264554732  -1.5656122154   0.5993602025
	    H     0.0303696276  -1.0837583258   1.5448687330
	    H    -1.3202497907  -1.6129150793   0.5597714263
			--------------------------
			 OPTKING Finished Execution 
			--------------------------

    Structure for next step:
    Molecular point group: c1
    Full point group: C1

    Geometry (in Angstrom), charge = 0, multiplicity = 1:

    C            0.094881502265     3.816038808238    -0.599988808091
    H           -0.260716485251     4.842794570022    -0.516850714923
    H           -0.294234129640     3.408195442437    -1.531879134385
    H            1.183239927672     3.844044841581    -0.675945372617
    C           -0.094836568995    -3.816244172696    -0.599821350294
    H            0.294269471144    -3.408645439102    -1.531820083779
    H           -1.183196653968    -3.844259319958    -0.675753296817
    H            0.260751512970    -4.842982557737    -0.516429380747
    C           -0.337570216986     2.985582241379     0.603876755313
    H           -1.429326713795     2.935769456958     0.643024150012
    H           -0.018410503559     3.490267491118     1.518476961896
    C            0.337646698879    -2.985490193049     0.603828695241
    H            0.018678731864    -3.490067175652     1.518554522778
    H            1.429400589435    -2.935506091977     0.642836486205
    C            0.226296171060     1.565623491241     0.599562496608
    H           -0.030864261894     1.083791582817     1.544992154049
    H            1.320108300050     1.612758188669     0.560270466157
    C           -0.275050839478     0.713163704533    -0.561698863273
    H           -0.004282649141     1.192739980790    -1.504684402386
    H           -1.369673564690     0.677073827767    -0.533859977134
    C            0.275084445818    -0.713039401574    -0.561728996263
    H            0.004469518277    -1.192510367826    -1.504809024526
    H            1.369702904902    -0.676951598208    -0.533708010259
    C           -0.226454384698    -1.565619730013     0.599362538377
    H            0.030370716093    -1.083765840399     1.544871068909
    H           -1.320248702248    -1.612922593905     0.559773762139

gradient() will perform analytic gradient computation.

*** tstart() called on wr30
*** at Tue Sep 20 22:46:03 2016


         ---------------------------------------------------------
                                   SCF
            by Justin Turney, Rob Parrish, and Andy Simmonett
                              RHF Reference
                       12 Threads,  60000 MiB Core
         ---------------------------------------------------------

  ==> Geometry <==

    Molecular point group: c1
    Full point group: C1

    Geometry (in Angstrom), charge = 0, multiplicity = 1:

       Center              X                  Y                   Z               Mass       
    ------------   -----------------  -----------------  -----------------  -----------------
           C          0.094881502265     3.816038808238    -0.599988808091    12.000000000000
           H         -0.260716485251     4.842794570022    -0.516850714923     1.007825032070
           H         -0.294234129640     3.408195442437    -1.531879134385     1.007825032070
           H          1.183239927672     3.844044841581    -0.675945372617     1.007825032070
           C         -0.094836568995    -3.816244172696    -0.599821350294    12.000000000000
           H          0.294269471144    -3.408645439102    -1.531820083779     1.007825032070
           H         -1.183196653968    -3.844259319958    -0.675753296817     1.007825032070
           H          0.260751512970    -4.842982557737    -0.516429380747     1.007825032070
           C         -0.337570216986     2.985582241379     0.603876755313    12.000000000000
           H         -1.429326713795     2.935769456958     0.643024150012     1.007825032070
           H         -0.018410503559     3.490267491118     1.518476961896     1.007825032070
           C          0.337646698879    -2.985490193049     0.603828695241    12.000000000000
           H          0.018678731864    -3.490067175652     1.518554522778     1.007825032070
           H          1.429400589435    -2.935506091977     0.642836486205     1.007825032070
           C          0.226296171060     1.565623491241     0.599562496608    12.000000000000
           H         -0.030864261894     1.083791582817     1.544992154049     1.007825032070
           H          1.320108300050     1.612758188669     0.560270466157     1.007825032070
           C         -0.275050839478     0.713163704533    -0.561698863273    12.000000000000
           H         -0.004282649141     1.192739980790    -1.504684402386     1.007825032070
           H         -1.369673564690     0.677073827767    -0.533859977134     1.007825032070
           C          0.275084445818    -0.713039401574    -0.561728996263    12.000000000000
           H          0.004469518277    -1.192510367826    -1.504809024526     1.007825032070
           H          1.369702904902    -0.676951598208    -0.533708010259     1.007825032070
           C         -0.226454384698    -1.565619730013     0.599362538377    12.000000000000
           H          0.030370716093    -1.083765840399     1.544871068909     1.007825032070
           H         -1.320248702248    -1.612922593905     0.559773762139     1.007825032070

  Running in c1 symmetry.

  Rotational constants: A =      0.22137  B =      0.02084  C =      0.01997 [cm^-1]
  Rotational constants: A =   6636.56476  B =    624.83989  C =    598.55183 [MHz]
  Nuclear repulsion =  388.062633865707369

  Charge       = 0
  Multiplicity = 1
  Electrons    = 66
  Nalpha       = 33
  Nbeta        = 33

  ==> Algorithm <==

  SCF Algorithm Type is DF.
  DIIS enabled.
  MOM disabled.
  Fractional occupation disabled.
  Guess Type is READ.
  Energy threshold   = 1.00e-10
  Density threshold  = 1.00e-10
  Integral threshold = 0.00e+00

  ==> Primary Basis <==

  Basis Set: AUG-CC-PVTZ
    Number of shells: 274
    Number of basis function: 782
    Number of Cartesian functions: 890
    Spherical Harmonics?: true
    Max angular momentum: 3

  ==> Pre-Iterations <==

   -------------------------------------------------------
    Irrep   Nso     Nmo     Nalpha   Nbeta   Ndocc  Nsocc
   -------------------------------------------------------
     A        782     782       0       0       0       0
   -------------------------------------------------------
    Total     782     782      33      33      33       0
   -------------------------------------------------------

  ==> Integral Setup <==

  ==> DFJK: Density-Fitted J/K Matrices <==

    J tasked:                  Yes
    K tasked:                  Yes
    wK tasked:                  No
    OpenMP threads:             12
    Integrals threads:          12
    Memory (MB):             42915
    Algorithm:                Core
    Integral Cache:           NONE
    Schwarz Cutoff:          1E-12
    Fitting Condition:       1E-12

   => Auxiliary Basis Set <=

  Basis Set: 
    Number of shells: 492
    Number of basis function: 1660
    Number of Cartesian functions: 2038
    Spherical Harmonics?: true
    Max angular momentum: 4

  Minimum eigenvalue in the overlap matrix is 1.7417510433E-06.
  Using Symmetric Orthogonalization.
  SCF Guess: Reading in previously saved MOs, projecting if necessary.

  Using orbitals from previous SCF, no projection.
  Recomputing DOCC and SOCC from number of alpha and beta electrons from previous calculation.
              A 
    DOCC [    33 ]

  ==> Iterations <==

                           Total Energy        Delta E     RMS |[F,P]|

   @DF-RHF iter   0:  -313.54180801644662   -3.13542e+02   6.72359e-07 
   @DF-RHF iter   1:  -313.54178806199974    1.99544e-05   1.28956e-07 
   @DF-RHF iter   2:  -313.54178807146417   -9.46443e-09   4.59316e-08 DIIS
   @DF-RHF iter   3:  -313.54178807268880   -1.22463e-09   1.85477e-08 DIIS
   @DF-RHF iter   4:  -313.54178807286502   -1.76215e-10   2.24765e-09 DIIS
   @DF-RHF iter   5:  -313.54178807286877   -3.75167e-12   6.14682e-10 DIIS
   @DF-RHF iter   6:  -313.54178807287002   -1.25056e-12   1.48715e-10 DIIS
   @DF-RHF iter   7:  -313.54178807287002    0.00000e+00   4.98261e-11 DIIS

  ==> Post-Iterations <==

    Orbital Energies (a.u.)
    -----------------------

    Doubly Occupied:                                                      

       1A    -11.212666     2A    -11.212666     3A    -11.210102  
       4A    -11.209733     5A    -11.209326     6A    -11.209087  
       7A    -11.206287     8A    -11.206287     9A     -1.093574  
      10A     -1.060654    11A     -1.008302    12A     -0.942014  
      13A     -0.892080    14A     -0.828380    15A     -0.783430  
      16A     -0.760310    17A     -0.634025    18A     -0.622976  
      19A     -0.622023    20A     -0.601575    21A     -0.577986  
      22A     -0.555017    23A     -0.554251    24A     -0.518469  
      25A     -0.516358    26A     -0.511543    27A     -0.481176  
      28A     -0.471625    29A     -0.465794    30A     -0.460256  
      31A     -0.453617    32A     -0.437950    33A     -0.431271  

    Virtual:                                                              

      34A      0.031414    35A      0.032919    36A      0.033590  
      37A      0.036933    38A      0.043884    39A      0.046449  
      40A      0.050068    41A      0.054357    42A      0.055810  
      43A      0.062076    44A      0.068986    45A      0.070854  
      46A      0.071697    47A      0.077725    48A      0.086061  
      49A      0.092614    50A      0.097242    51A      0.111578  
      52A      0.113004    53A      0.117299    54A      0.122649  
      55A      0.123340    56A      0.125252    57A      0.129538  
      58A      0.131881    59A      0.136745    60A      0.136938  
      61A      0.141512    62A      0.144278    63A      0.146161  
      64A      0.153508    65A      0.157797    66A      0.159301  
      67A      0.164792    68A      0.170412    69A      0.173606  
      70A      0.177606    71A      0.179090    72A      0.186410  
      73A      0.188848    74A      0.192416    75A      0.195513  
      76A      0.200247    77A      0.221501    78A      0.223380  
      79A      0.235786    80A      0.236919    81A      0.240705  
      82A      0.250253    83A      0.251677    84A      0.253701  
      85A      0.262907    86A      0.281722    87A      0.284018  
      88A      0.284514    89A      0.287639    90A      0.287854  
      91A      0.290671    92A      0.299751    93A      0.317674  
      94A      0.318598    95A      0.318628    96A      0.322382  
      97A      0.330325    98A      0.331515    99A      0.335136  
     100A      0.340698   101A      0.341158   102A      0.344508  
     103A      0.347261   104A      0.353968   105A      0.354799  
     106A      0.359518   107A      0.360275   108A      0.361763  
     109A      0.366805   110A      0.369034   111A      0.371131  
     112A      0.376569   113A      0.378086   114A      0.383333  
     115A      0.385778   116A      0.391187   117A      0.392556  
     118A      0.397171   119A      0.401586   120A      0.401780  
     121A      0.406497   122A      0.420911   123A      0.423440  
     124A      0.424877   125A      0.433704   126A      0.439322  
     127A      0.440820   128A      0.442844   129A      0.449084  
     130A      0.449805   131A      0.452103   132A      0.456148  
     133A      0.459219   134A      0.461390   135A      0.473403  
     136A      0.476951   137A      0.478473   138A      0.480473  
     139A      0.481599   140A      0.489227   141A      0.491197  
     142A      0.492727   143A      0.495958   144A      0.497588  
     145A      0.503573   146A      0.504538   147A      0.509270  
     148A      0.509511   149A      0.516889   150A      0.519103  
     151A      0.526534   152A      0.528160   153A      0.533756  
     154A      0.537213   155A      0.543623   156A      0.545791  
     157A      0.550331   158A      0.556398   159A      0.565790  
     160A      0.568315   161A      0.569130   162A      0.574753  
     163A      0.579601   164A      0.582527   165A      0.585120  
     166A      0.589890   167A      0.593677   168A      0.595235  
     169A      0.600935   170A      0.619983   171A      0.620216  
     172A      0.624533   173A      0.625097   174A      0.629577  
     175A      0.636802   176A      0.648791   177A      0.649366  
     178A      0.656208   179A      0.661112   180A      0.664027  
     181A      0.669829   182A      0.672957   183A      0.677443  
     184A      0.681412   185A      0.686832   186A      0.701255  
     187A      0.707650   188A      0.711220   189A      0.711949  
     190A      0.715814   191A      0.723166   192A      0.734999  
     193A      0.738895   194A      0.747944   195A      0.753146  
     196A      0.759878   197A      0.766742   198A      0.773060  
     199A      0.781375   200A      0.787572   201A      0.804200  
     202A      0.814602   203A      0.814799   204A      0.828065  
     205A      0.828386   206A      0.841680   207A      0.847983  
     208A      0.848913   209A      0.855683   210A      0.857019  
     211A      0.857347   212A      0.873003   213A      0.880388  
     214A      0.882651   215A      0.886635   216A      0.889882  
     217A      0.890683   218A      0.898802   219A      0.904144  
     220A      0.908630   221A      0.910453   222A      0.915141  
     223A      0.917192   224A      0.924192   225A      0.925118  
     226A      0.929528   227A      0.935466   228A      0.938206  
     229A      0.953226   230A      0.959281   231A      0.960836  
     232A      0.964833   233A      0.976199   234A      0.977016  
     235A      0.980696   236A      0.985683   237A      0.985906  
     238A      0.989676   239A      0.998235   240A      0.999262  
     241A      1.003885   242A      1.005639   243A      1.019000  
     244A      1.021475   245A      1.027632   246A      1.028234  
     247A      1.033744   248A      1.039118   249A      1.051414  
     250A      1.060344   251A      1.060856   252A      1.066905  
     253A      1.071687   254A      1.075520   255A      1.079572  
     256A      1.086969   257A      1.089013   258A      1.099607  
     259A      1.105416   260A      1.111570   261A      1.113595  
     262A      1.118742   263A      1.121904   264A      1.122901  
     265A      1.137524   266A      1.140589   267A      1.144591  
     268A      1.148956   269A      1.152013   270A      1.159594  
     271A      1.169056   272A      1.176676   273A      1.179519  
     274A      1.180334   275A      1.184329   276A      1.194562  
     277A      1.196981   278A      1.210899   279A      1.214741  
     280A      1.215620   281A      1.216251   282A      1.222806  
     283A      1.225682   284A      1.232554   285A      1.235926  
     286A      1.238205   287A      1.249336   288A      1.251663  
     289A      1.257940   290A      1.270166   291A      1.270872  
     292A      1.279900   293A      1.280444   294A      1.288923  
     295A      1.291430   296A      1.295880   297A      1.296741  
     298A      1.308103   299A      1.313912   300A      1.318836  
[...]
	Denominators (dg)(dq) or (dq)(dq) are very small.
	 Skipping Hessian update for step 5.
	Denominators (dg)(dq) or (dq)(dq) are very small.
	 Skipping Hessian update for step 4.
	Denominators (dg)(dq) or (dq)(dq) are very small.
	 Skipping Hessian update for step 3.
	Denominators (dg)(dq) or (dq)(dq) are very small.
	 Skipping Hessian update for step 2.
	Steps to be used in Hessian update: 1
	Taking RFO optimization step.
	Going to follow RFO solution 1.
	Using RFO vector 1.
	Norm of target step-size    0.00002
	Projected energy change by RFO approximation:        -0.0000000000

	Back-transformation to cartesian coordinates...
	Successfully converged to displaced geometry.

	--- Internal Coordinate Step in ANG or DEG, aJ/ANG or AJ/DEG ---
	 ---------------------------------------------------------------------------
	   Coordinate                Previous        Force       Change         New 
	   ----------                --------       ------       ------       ------
	    1 R(1,2)          =      1.089765     0.000001     0.000000     1.089765
	    2 R(1,3)          =      1.089111     0.000000     0.000000     1.089111
	    3 R(1,4)          =      1.091364     0.000001     0.000000     1.091365
	    4 R(1,9)          =      1.525112     0.000000     0.000000     1.525112
	    5 R(5,6)          =      1.089112     0.000000     0.000000     1.089112
	    6 R(5,7)          =      1.091365    -0.000000     0.000000     1.091365
	    7 R(5,8)          =      1.089765     0.000000     0.000000     1.089766
	    8 R(5,12)         =      1.525112     0.000000     0.000000     1.525112
	    9 R(9,10)         =      1.093592     0.000002     0.000000     1.093593
	   10 R(9,11)         =      1.092273     0.000001     0.000000     1.092274
	   11 R(9,15)         =      1.527826     0.000002     0.000000     1.527826
	   12 R(12,13)        =      1.092274    -0.000000     0.000000     1.092274
	   13 R(12,14)        =      1.093593    -0.000000     0.000000     1.093593
	   14 R(12,24)        =      1.527827    -0.000001    -0.000000     1.527826
	   15 R(15,16)        =      1.091846     0.000001     0.000000     1.091846
	   16 R(15,17)        =      1.095531     0.000001     0.000000     1.095531
	   17 R(15,18)        =      1.525308     0.000003     0.000001     1.525308
	   18 R(18,19)        =      1.092028    -0.000002    -0.000000     1.092028
	   19 R(18,20)        =      1.095571    -0.000001    -0.000000     1.095571
	   20 R(18,21)        =      1.528629    -0.000001    -0.000000     1.528629
	   21 R(21,22)        =      1.092029    -0.000002    -0.000000     1.092029
	   22 R(21,23)        =      1.095571    -0.000002    -0.000000     1.095571
	   23 R(21,24)        =      1.525309    -0.000001    -0.000000     1.525309
	   24 R(24,25)        =      1.091847    -0.000001    -0.000000     1.091846
	   25 R(24,26)        =      1.095532    -0.000002    -0.000000     1.095531
	   26 B(1,9,10)       =    109.641910    -0.000000     0.000013   109.641923
	   27 B(1,9,11)       =    109.056708    -0.000000    -0.000041   109.056668
	   28 B(1,9,15)       =    113.528598     0.000000     0.000046   113.528645
	   29 B(2,1,3)        =    107.548583     0.000000     0.000009   107.548592
	   30 B(2,1,4)        =    107.850795     0.000000     0.000001   107.850797
	   31 B(2,1,9)        =    111.118141    -0.000000    -0.000021   111.118120
	   32 B(3,1,4)        =    107.839605     0.000000     0.000005   107.839610
	   33 B(3,1,9)        =    111.727601    -0.000000    -0.000012   111.727588
	   34 B(4,1,9)        =    110.590407     0.000000     0.000018   110.590425
	   35 B(5,12,13)      =    109.056621     0.000000     0.000005   109.056626
	   36 B(5,12,14)      =    109.641949     0.000000    -0.000002   109.641947
	   37 B(5,12,24)      =    113.528699    -0.000000    -0.000009   113.528690
	   38 B(6,5,7)        =    107.839607     0.000000    -0.000006   107.839601
	   39 B(6,5,8)        =    107.548593     0.000000     0.000003   107.548596
	   40 B(6,5,12)       =    111.727635    -0.000000    -0.000006   111.727628
	   41 B(7,5,8)        =    107.850787    -0.000000     0.000002   107.850789
	   42 B(7,5,12)       =    110.590445    -0.000000    -0.000002   110.590442
	   43 B(8,5,12)       =    111.118065     0.000000     0.000010   111.118076
	   44 B(9,15,16)      =    108.709175    -0.000000    -0.000019   108.709156
	   45 B(9,15,17)      =    109.184153    -0.000000     0.000016   109.184169
	   46 B(9,15,18)      =    113.595189     0.000000     0.000069   113.595257
	   47 B(10,9,11)      =    106.426011     0.000000    -0.000005   106.426006
	   48 B(10,9,15)      =    109.039316    -0.000000     0.000008   109.039324
	   49 B(11,9,15)      =    108.901768    -0.000000    -0.000025   108.901743
	   50 B(12,24,21)     =    113.595346    -0.000000    -0.000027   113.595319
	   51 B(12,24,25)     =    108.709119     0.000000     0.000025   108.709144
	   52 B(12,24,26)     =    109.184172     0.000000    -0.000003   109.184169
	   53 B(13,12,14)     =    106.425983    -0.000000     0.000008   106.425990
	   54 B(13,12,24)     =    108.901696     0.000000     0.000004   108.901700
	   55 B(14,12,24)     =    109.039356     0.000000    -0.000006   109.039351
	   56 B(15,18,19)     =    109.298246     0.000000     0.000005   109.298252
	   57 B(15,18,20)     =    109.115217     0.000000     0.000036   109.115253
	   58 B(15,18,21)     =    113.775318    -0.000000    -0.000005   113.775314
	   59 B(16,15,17)     =    106.570748     0.000000    -0.000012   106.570737
	   60 B(16,15,18)     =    109.583599    -0.000000    -0.000018   109.583580
	   61 B(17,15,18)     =    108.960143    -0.000000    -0.000040   108.960103
	   62 B(18,21,22)     =    108.692131     0.000000     0.000010   108.692142
	   63 B(18,21,23)     =    109.198538     0.000000     0.000015   109.198554
	   64 B(18,21,24)     =    113.775383    -0.000000    -0.000025   113.775359
	   65 B(19,18,20)     =    106.507702    -0.000000     0.000007   106.507709
	   66 B(19,18,21)     =    108.692166    -0.000000    -0.000027   108.692138
	   67 B(20,18,21)     =    109.198572    -0.000000    -0.000016   109.198556
	   68 B(21,24,25)     =    109.583517     0.000000     0.000019   109.583536
	   69 B(21,24,26)     =    108.960178    -0.000000    -0.000029   108.960148
	   70 B(22,21,23)     =    106.507708    -0.000000    -0.000002   106.507706
	   71 B(22,21,24)     =    109.298210     0.000000     0.000004   109.298214
	   72 B(23,21,24)     =    109.115248     0.000000    -0.000001   109.115246
	   73 B(25,24,26)     =    106.570660     0.000000     0.000018   106.570678
	   74 D(1,9,15,16)    =    173.320639    -0.000000    -0.000271   173.320368
	   75 D(1,9,15,17)    =     57.430721    -0.000000    -0.000256    57.430465
	   76 D(1,9,15,18)    =    -64.397193    -0.000000    -0.000263   -64.397456
	   77 D(2,1,9,10)     =     62.431824    -0.000000     0.000223    62.432046
	   78 D(2,1,9,11)     =    -53.732392     0.000000     0.000245   -53.732147
	   79 D(2,1,9,15)     =   -175.347612     0.000000     0.000275  -175.347337
	   80 D(3,1,9,10)     =    -57.691159    -0.000000     0.000234   -57.690925
	   81 D(3,1,9,11)     =   -173.855375     0.000000     0.000256  -173.855119
	   82 D(3,1,9,15)     =     64.529406     0.000000     0.000286    64.529692
	   83 D(4,1,9,10)     =   -177.823586    -0.000000     0.000223  -177.823363
	   84 D(4,1,9,11)     =     66.012198     0.000000     0.000245    66.012444
	   85 D(4,1,9,15)     =    -55.603021     0.000000     0.000275   -55.602746
	   86 D(5,12,24,21)   =    -64.398273     0.000000    -0.000107   -64.398381
	   87 D(5,12,24,25)   =    173.319599     0.000000    -0.000132   173.319467
	   88 D(5,12,24,26)   =     57.429806    -0.000000    -0.000165    57.429641
	   89 D(6,5,12,13)    =   -173.855266    -0.000000    -0.000138  -173.855403
	   90 D(6,5,12,14)    =    -57.691112     0.000000    -0.000127   -57.691238
	   91 D(6,5,12,24)    =     64.529604    -0.000000    -0.000141    64.529462
	   92 D(7,5,12,13)    =     66.012256    -0.000000    -0.000125    66.012131
	   93 D(7,5,12,14)    =   -177.823590     0.000000    -0.000113  -177.823703
	   94 D(7,5,12,24)    =    -55.602875    -0.000000    -0.000128   -55.603003
	   95 D(8,5,12,13)    =    -53.732300    -0.000000    -0.000132   -53.732432
	   96 D(8,5,12,14)    =     62.431854     0.000000    -0.000121    62.431734
	   97 D(8,5,12,24)    =   -175.347431    -0.000000    -0.000135  -175.347566
	   98 D(9,15,18,19)   =     58.930893     0.000000     0.000145    58.931038
	   99 D(9,15,18,20)   =    -57.172174     0.000000     0.000113   -57.172061
	  100 D(9,15,18,21)   =   -179.379839     0.000000     0.000110  -179.379728
	  101 D(10,9,15,16)   =    -64.125352     0.000000    -0.000217   -64.125569
	  102 D(10,9,15,17)   =    179.984730     0.000000    -0.000201   179.984528
	  103 D(10,9,15,18)   =     58.156815     0.000000    -0.000208    58.156607
	  104 D(11,9,15,16)   =     51.619000    -0.000000    -0.000233    51.618768
	  105 D(11,9,15,17)   =    -64.270919    -0.000000    -0.000217   -64.271135
	  106 D(11,9,15,18)   =    173.901167    -0.000000    -0.000224   173.900943
	  107 D(12,24,21,18)  =   -179.380995    -0.000000     0.000087  -179.380908
	  108 D(12,24,21,22)  =     58.929763    -0.000000     0.000088    58.929851
	  109 D(12,24,21,23)  =    -57.173307    -0.000000     0.000089   -57.173219
	  110 D(13,12,24,21)  =    173.900184     0.000000    -0.000111   173.900073
	  111 D(13,12,24,25)  =     51.618057     0.000000    -0.000136    51.617921
	  112 D(13,12,24,26)  =    -64.271736    -0.000000    -0.000169   -64.271906
	  113 D(14,12,24,21)  =     58.155884     0.000000    -0.000120    58.155764
	  114 D(14,12,24,25)  =    -64.126244    -0.000000    -0.000144   -64.126388
	  115 D(14,12,24,26)  =    179.983963    -0.000000    -0.000178   179.983785
	  116 D(15,18,21,22)  =   -170.552138    -0.000000     0.000069  -170.552069
	  117 D(15,18,21,23)  =    -54.738837     0.000000     0.000081   -54.738757
	  118 D(15,18,21,24)  =     67.422876     0.000000     0.000073    67.422949
	  119 D(16,15,18,19)  =   -179.272044     0.000000     0.000154  -179.271890
	  120 D(16,15,18,20)  =     64.624889     0.000000     0.000122    64.625011
	  121 D(16,15,18,21)  =    -57.582776     0.000000     0.000120   -57.582657
	  122 D(17,15,18,19)  =    -63.021495    -0.000000     0.000107   -63.021388
	  123 D(17,15,18,20)  =   -179.124562    -0.000000     0.000075  -179.124487
	  124 D(17,15,18,21)  =     58.667773    -0.000000     0.000073    58.667845
	  125 D(18,21,24,25)  =    -57.583957     0.000000     0.000115   -57.583842
	  126 D(18,21,24,26)  =     58.666461     0.000000     0.000130    58.666591
	  127 D(19,18,21,22)  =    -48.527125    -0.000000     0.000053   -48.527072
	  128 D(19,18,21,23)  =     67.286176     0.000000     0.000064    67.286241
	  129 D(19,18,21,24)  =   -170.552110     0.000000     0.000057  -170.552054
	  130 D(20,18,21,22)  =     67.286207    -0.000000     0.000037    67.286244
	  131 D(20,18,21,23)  =   -176.900492     0.000000     0.000049  -176.900443
	  132 D(20,18,21,24)  =    -54.738779    -0.000000     0.000041   -54.738737
	  133 D(22,21,24,25)  =   -179.273198     0.000000     0.000116  -179.273083
	  134 D(22,21,24,26)  =    -63.022781     0.000000     0.000131   -63.022650
	  135 D(23,21,24,25)  =     64.623731     0.000000     0.000117    64.623848
	  136 D(23,21,24,26)  =   -179.125851     0.000000     0.000132  -179.125719
	 ---------------------------------------------------------------------------

  ==> Convergence Check <==

  Measures of convergence in internal coordinates in au.
  Criteria marked as inactive (o), active & met (*), and active & unmet ( ).
  ---------------------------------------------------------------------------------------------
   Step     Total Energy     Delta E     MAX Force     RMS Force      MAX Disp      RMS Disp   
  ---------------------------------------------------------------------------------------------
    Convergence Criteria             o    2.00e-06 *    1.00e-06 *    6.00e-06 *    4.00e-06 *
  ---------------------------------------------------------------------------------------------
     27    -314.98249995   -1.99e-09 o    4.14e-07 *    9.06e-08 *    4.98e-06 *    1.95e-06 *  ~
  ---------------------------------------------------------------------------------------------


  **** Optimization is complete! (in 27 steps) ****

  ==> Optimization Summary <==

  Measures of convergence in internal coordinates in au.
  --------------------------------------------------------------------------------------------------------------- ~
   Step         Total Energy             Delta E       MAX Force       RMS Force        MAX Disp        RMS Disp  ~
  --------------------------------------------------------------------------------------------------------------- ~
      1    -314.982499952991   -314.982499952991      0.00000383      0.00000099      0.00035197      0.00013876  ~
      2    -314.982499948730      0.000000004261      0.00000665      0.00000170      0.00025370      0.00009957  ~
      3    -314.982499952596     -0.000000003866      0.00000062      0.00000017      0.00006292      0.00001919  ~
      4    -314.982499951480      0.000000001116      0.00000169      0.00000053      0.00014456      0.00005073  ~
      5    -314.982499951970     -0.000000000490      0.00000369      0.00000085      0.00016644      0.00005506  ~
      6    -314.982499948687      0.000000003283      0.00000228      0.00000061      0.00009506      0.00002949  ~
      7    -314.982499950097     -0.000000001410      0.00000212      0.00000056      0.00007613      0.00002549  ~
      8    -314.982499955543     -0.000000005446      0.00000116      0.00000026      0.00005800      0.00001966  ~
      9    -314.982499950184      0.000000005358      0.00000078      0.00000021      0.00006997      0.00002761  ~
     10    -314.982499952431     -0.000000002247      0.00000127      0.00000034      0.00007792      0.00003348  ~
     11    -314.982499949854      0.000000002578      0.00000112      0.00000028      0.00007356      0.00002984  ~
     12    -314.982499947036      0.000000002818      0.00000213      0.00000056      0.00007735      0.00003167  ~
     13    -314.982499952825     -0.000000005788      0.00000130      0.00000040      0.00006015      0.00002141  ~
     14    -314.982499951107      0.000000001718      0.00000050      0.00000011      0.00002430      0.00000802  ~
     15    -314.982499950323      0.000000000783      0.00000047      0.00000011      0.00000907      0.00000353  ~
     16    -314.982499953425     -0.000000003101      0.00000064      0.00000020      0.00003058      0.00000831  ~
     17    -314.982499951719      0.000000001705      0.00000129      0.00000031      0.00004043      0.00001364  ~
     18    -314.982499948579      0.000000003140      0.00000056      0.00000017      0.00001568      0.00000596  ~
     19    -314.982499950257     -0.000000001678      0.00000110      0.00000031      0.00004284      0.00001155  ~
     20    -314.982499949459      0.000000000799      0.00000069      0.00000021      0.00001687      0.00000675  ~
     21    -314.982499949785     -0.000000000327      0.00000137      0.00000033      0.00002989      0.00000862  ~
     22    -314.982499949803     -0.000000000018      0.00000039      0.00000011      0.00001582      0.00000510  ~
     23    -314.982499944691      0.000000005112      0.00000063      0.00000017      0.00001193      0.00000402  ~
     24    -314.982499950115     -0.000000005424      0.00000180      0.00000042      0.00002040      0.00000692  ~
     25    -314.982499950340     -0.000000000226      0.00000199      0.00000049      0.00001985      0.00000781  ~
     26    -314.982499946706      0.000000003635      0.00000054      0.00000013      0.00001988      0.00000691  ~
     27    -314.982499948692     -0.000000001986      0.00000041      0.00000009      0.00000498      0.00000195  ~
  --------------------------------------------------------------------------------------------------------------- ~

	Writing optimization data to binary file.
	Final energy is   -314.9824999486920
	Final (previous) structure:
	Cartesian Geometry (in Angstrom)
	    C     0.0947817977   3.8161248316  -0.5999875601
	    H    -0.2608227630   4.8428668988  -0.5167186850
	    H    -0.2944171753   3.4083657882  -1.5318779228
	    H     1.1831318876   3.8441541606  -0.6760448996
	    C    -0.0947951738  -3.8161439052  -0.5998894110
	    H     0.2944362714  -3.4084207751  -1.5317825806
	    H    -1.1831443621  -3.8441569980  -0.6759753867
	    H     0.2607895328  -4.8428899590  -0.5165782810
	    C    -0.3375445841   2.9855472034   0.6038399034
	    H    -1.4292936605   2.9356252432   0.6430283854
	    H    -0.0183997276   3.4902107188   1.5184557590
	    C     0.3375137781  -2.9855372142   0.6039242235
	    H     0.0183359019  -3.4901694050   1.5185466750
	    H     1.4292635043  -2.9356327138   0.6431408137
	    C     0.2264684646   1.5656452416   0.5994311543
	    H    -0.0304569531   1.0838081703   1.5449203455
	    H     1.3202666971   1.6128861761   0.5599235568
	    C    -0.2750235661   0.7131040707  -0.5617077798
	    H    -0.0043395852   1.1925938401  -1.5047590873
	    H    -1.3696437974   0.6770440820  -0.5337538489
	    C     0.2750766394  -0.7131133214  -0.5616741697
	    H     0.0044416701  -1.1926281249  -1.5047273315
	    H     1.3696958661  -0.6770519032  -0.5336643790
	    C    -0.2264762588  -1.5656254949   0.5994614429
	    H     0.0304184651  -1.0837727978   1.5449517451
	    H    -1.3202748346  -1.6128492087   0.5599117631
	Saving final (previous) structure.
			--------------------------
			 OPTKING Finished Execution 
			--------------------------

    Final optimized geometry and variables:
    Molecular point group: c1
    Full point group: C1

    Geometry (in Angstrom), charge = 0, multiplicity = 1:

    C            0.094781797750     3.816124831568    -0.599987560144
    H           -0.260822763009     4.842866898803    -0.516718684992
    H           -0.294417175340     3.408365788153    -1.531877922768
    H            1.183131887647     3.844154160583    -0.676044899560
    C           -0.094795173827    -3.816143905152    -0.599889411019
    H            0.294436271359    -3.408420775077    -1.531782580605
    H           -1.183144362104    -3.844156998006    -0.675975386734
    H            0.260789532840    -4.842889958987    -0.516578280982
    C           -0.337544584100     2.985547203422     0.603839903384
    H           -1.429293660500     2.935625243168     0.643028385420
    H           -0.018399727605     3.490210718793     1.518455759010
    C            0.337513778124    -2.985537214222     0.603924223487
    H            0.018335901944    -3.490169404991     1.518546675027
    H            1.429263504331    -2.935632713771     0.643140813676
    C            0.226468464623     1.565645241620     0.599431154339
    H           -0.030456953134     1.083808170288     1.544920345527
    H            1.320266697078     1.612886176082     0.559923556809
    C           -0.275023566069     0.713104070679    -0.561707779759
    H           -0.004339585163     1.192593840091    -1.504759087290
    H           -1.369643797445     0.677044081960    -0.533753848890
    C            0.275076639399    -0.713113321403    -0.561674169727
    H            0.004441670129    -1.192628124876    -1.504727331482
    H            1.369695866102    -0.677051903245    -0.533664379035
    C           -0.226476258843    -1.565625494929     0.599461442921
    H            0.030418465054    -1.083772797796     1.544951745067
    H           -1.320274834626    -1.612849208659     0.559911763148

	Cleaning optimization helper files.

*** Psi4 exiting successfully. Buy a developer a beer!
