    -----------------------------------------------------------------------
          Psi4: An Open-Source Ab Initio Electronic Structure Package
                              Psi4 1.0.0 Driver

                          Git: Rev {master} 6a9a71b dirty

    J. M. Turney, A. C. Simmonett, R. M. Parrish, E. G. Hohenstein,
    F. A. Evangelista, J. T. Fermann, B. J. Mintz, L. A. Burns, J. J. Wilke,
    M. L. Abrams, N. J. Russ, M. L. Leininger, C. L. Janssen, E. T. Seidl,
    W. D. Allen, H. F. Schaefer, R. A. King, E. F. Valeev, C. D. Sherrill,
    and T. D. Crawford, WIREs Comput. Mol. Sci. 2, 556-565 (2012)
    (doi: 10.1002/wcms.93)

                         Additional Contributions by
    A. E. DePrince, U. Bozkaya, A. Yu. Sokolov, D. G. A. Smith, R. Di Remigio,
    R. M. Richard, J. F. Gonthier, H. R. McAlexander, M. Saitow, and
    B. P. Pritchard
    -----------------------------------------------------------------------


    Psi4 started on: Tue Sep 20 22:40:02 2016

    Process ID:  19026
    PSI4DATADIR: /usr/local/hpc5/psi4conda/share/psi4
    Memory level set to 256.000 MB

  ==> Input File <==

--------------------------------------------------------------------------
memory 60 Gb

molecule molecule_04_psi {
0 1
C            4.278351127304    -0.538648454875     0.102601300081
H            5.220718934462    -0.073487586030    -0.185531442007
H            4.205285916711    -1.496543742395    -0.413834624540
H            4.317980446187    -0.741614495082     1.173510032684
C           -3.672190464619    -1.054561995206    -0.312151547826
H           -2.966967651997    -1.842894137260    -0.052063787861
H           -3.670572002290    -0.949852832882    -1.398500050953
H           -4.664814594134    -1.387496550166    -0.009898277244
C            3.086141089519     0.348227360316    -0.234579469109
H            3.075458002657     0.561125945838    -1.306824714674
H            3.187658833456     1.311968728578     0.271409467572
C           -3.307493460634     0.267465576711     0.354886087221
H           -4.093195483080     0.999069598568     0.153796109244
H           -3.277443880416     0.135216576094     1.439961876081
C            1.758443195364    -0.285422797649     0.161191245654
H            1.766564013932    -0.498620003741     1.235041362913
H            1.654728072056    -1.250846304547    -0.344624914705
C            0.555402389118     0.588088881578    -0.169627229690
H            0.546294693547     0.798415848707    -1.243964336595
H            0.660563230925     1.554486700614     0.333680892834
C           -0.771864019033    -0.045400790094     0.228793432550
H           -0.862748655876    -1.015696765990    -0.266151367701
H           -0.769336855906    -0.243604521415     1.305991875279
C           -1.969421638228     0.832544761881    -0.116104572992
H           -1.819045539066     1.820091680995     0.329434880038
H           -2.003518165828     0.983233792170    -1.200145499834
}

set globals {
  reference rhf
  g_convergence gau_verytight
  basis aug-cc-pvtz
  freeze_core true
  scf_type df
  mp_type df
}
optimize('mp2')
--------------------------------------------------------------------------
/usr/local/hpc5/psi4conda/lib/python2.7/site-packages/v2rdm_casscf/v2rdm_casscf.so loaded.

  Memory set to  60.000 GiB by Python script.
gradient() will perform analytic gradient computation.

*** tstart() called on wr40
*** at Tue Sep 20 22:40:02 2016


         ---------------------------------------------------------
                                   SCF
            by Justin Turney, Rob Parrish, and Andy Simmonett
                              RHF Reference
                       12 Threads,  60000 MiB Core
         ---------------------------------------------------------

  ==> Geometry <==

    Molecular point group: c1
    Full point group: C1

    Geometry (in Angstrom), charge = 0, multiplicity = 1:

       Center              X                  Y                   Z               Mass       
    ------------   -----------------  -----------------  -----------------  -----------------
           C          4.278351127304    -0.538648454875     0.102601300081    12.000000000000
           H          5.220718934462    -0.073487586030    -0.185531442007     1.007825032070
           H          4.205285916711    -1.496543742395    -0.413834624540     1.007825032070
           H          4.317980446187    -0.741614495082     1.173510032684     1.007825032070
           C         -3.672190464619    -1.054561995206    -0.312151547826    12.000000000000
           H         -2.966967651997    -1.842894137260    -0.052063787861     1.007825032070
           H         -3.670572002290    -0.949852832882    -1.398500050953     1.007825032070
           H         -4.664814594134    -1.387496550166    -0.009898277244     1.007825032070
           C          3.086141089519     0.348227360316    -0.234579469109    12.000000000000
           H          3.075458002657     0.561125945838    -1.306824714674     1.007825032070
           H          3.187658833456     1.311968728578     0.271409467572     1.007825032070
           C         -3.307493460634     0.267465576711     0.354886087221    12.000000000000
           H         -4.093195483080     0.999069598568     0.153796109244     1.007825032070
           H         -3.277443880416     0.135216576094     1.439961876081     1.007825032070
           C          1.758443195364    -0.285422797649     0.161191245654    12.000000000000
           H          1.766564013932    -0.498620003741     1.235041362913     1.007825032070
           H          1.654728072056    -1.250846304547    -0.344624914705     1.007825032070
           C          0.555402389118     0.588088881578    -0.169627229690    12.000000000000
           H          0.546294693547     0.798415848707    -1.243964336595     1.007825032070
           H          0.660563230925     1.554486700614     0.333680892834     1.007825032070
           C         -0.771864019033    -0.045400790094     0.228793432550    12.000000000000
           H         -0.862748655876    -1.015696765990    -0.266151367701     1.007825032070
           H         -0.769336855906    -0.243604521415     1.305991875279     1.007825032070
           C         -1.969421638228     0.832544761881    -0.116104572992    12.000000000000
           H         -1.819045539066     1.820091680995     0.329434880038     1.007825032070
           H         -2.003518165828     0.983233792170    -1.200145499834     1.007825032070

  Running in c1 symmetry.

  Rotational constants: A =      0.22730  B =      0.01849  C =      0.01778 [cm^-1]
  Rotational constants: A =   6814.25774  B =    554.18744  C =    533.12634 [MHz]
  Nuclear repulsion =  380.641451726745629

  Charge       = 0
  Multiplicity = 1
  Electrons    = 66
  Nalpha       = 33
  Nbeta        = 33

  ==> Algorithm <==

  SCF Algorithm Type is DF.
  DIIS enabled.
  MOM disabled.
  Fractional occupation disabled.
  Guess Type is SAD.
  Energy threshold   = 1.00e-10
  Density threshold  = 1.00e-10
  Integral threshold = 0.00e+00

  ==> Primary Basis <==

  Basis Set: AUG-CC-PVTZ
    Number of shells: 274
    Number of basis function: 782
    Number of Cartesian functions: 890
    Spherical Harmonics?: true
    Max angular momentum: 3

  ==> Pre-Iterations <==

   -------------------------------------------------------
    Irrep   Nso     Nmo     Nalpha   Nbeta   Ndocc  Nsocc
   -------------------------------------------------------
     A        782     782       0       0       0       0
   -------------------------------------------------------
    Total     782     782      33      33      33       0
   -------------------------------------------------------

  ==> Integral Setup <==

  ==> DFJK: Density-Fitted J/K Matrices <==

    J tasked:                  Yes
    K tasked:                  Yes
    wK tasked:                  No
    OpenMP threads:             12
    Integrals threads:          12
    Memory (MB):             42915
    Algorithm:                Core
    Integral Cache:           NONE
    Schwarz Cutoff:          1E-12
    Fitting Condition:       1E-12

   => Auxiliary Basis Set <=

  Basis Set: 
    Number of shells: 492
    Number of basis function: 1660
    Number of Cartesian functions: 2038
    Spherical Harmonics?: true
    Max angular momentum: 4

  Minimum eigenvalue in the overlap matrix is 2.8817081986E-06.
  Using Symmetric Orthogonalization.
  SCF Guess: Superposition of Atomic Densities via on-the-fly atomic UHF.

  ==> Iterations <==

                           Total Energy        Delta E     RMS |[F,P]|

   @DF-RHF iter   0:  -316.65209693394087   -3.16652e+02   6.88658e-03 
   @DF-RHF iter   1:  -313.26473260839617    3.38736e+00   7.71671e-04 
   @DF-RHF iter   2:  -313.50506417815978   -2.40332e-01   2.96948e-04 DIIS
   @DF-RHF iter   3:  -313.53988446288366   -3.48203e-02   1.04512e-04 DIIS
   @DF-RHF iter   4:  -313.54593413215667   -6.04967e-03   1.38922e-05 DIIS
   @DF-RHF iter   5:  -313.54606322027695   -1.29088e-04   4.09748e-06 DIIS
   @DF-RHF iter   6:  -313.54607208745080   -8.86717e-06   1.16729e-06 DIIS
   @DF-RHF iter   7:  -313.54607278780571   -7.00355e-07   2.29436e-07 DIIS
   @DF-RHF iter   8:  -313.54607281916282   -3.13571e-08   6.43254e-08 DIIS
   @DF-RHF iter   9:  -313.54607282133321   -2.17040e-09   1.55982e-08 DIIS
   @DF-RHF iter  10:  -313.54607282148066   -1.47452e-10   4.06751e-09 DIIS
   @DF-RHF iter  11:  -313.54607282149294   -1.22782e-11   9.29868e-10 DIIS
   @DF-RHF iter  12:  -313.54607282149374   -7.95808e-13   2.54545e-10 DIIS
   @DF-RHF iter  13:  -313.54607282149419   -4.54747e-13   7.32108e-11 DIIS

  ==> Post-Iterations <==

    Orbital Energies (a.u.)
    -----------------------

    Doubly Occupied:                                                      

       1A    -11.212757     2A    -11.212367     3A    -11.210374  
       4A    -11.210213     5A    -11.209684     6A    -11.209149  
       7A    -11.206989     8A    -11.206477     9A     -1.093098  
      10A     -1.062361    11A     -1.011467    12A     -0.947168  
      13A     -0.882628    14A     -0.819305    15A     -0.784963  
      16A     -0.771051    17A     -0.654268    18A     -0.623219  
      19A     -0.611470    20A     -0.591897    21A     -0.580840  
      22A     -0.555030    23A     -0.543134    24A     -0.532732  
      25A     -0.510018    26A     -0.495441    27A     -0.487711  
      28A     -0.475868    29A     -0.465027    30A     -0.459487  
      31A     -0.456148    32A     -0.450415    33A     -0.427663  

    Virtual:                                                              

      34A      0.030833    35A      0.031418    36A      0.034755  
      37A      0.036796    38A      0.043858    39A      0.046104  
      40A      0.048398    41A      0.054599    42A      0.060910  
      43A      0.062032    44A      0.066418    45A      0.069986  
      46A      0.072074    47A      0.085446    48A      0.092192  
      49A      0.096947    50A      0.099206    51A      0.099841  
      52A      0.110565    53A      0.113723    54A      0.115327  
      55A      0.122532    56A      0.127257    57A      0.129014  
      58A      0.131135    59A      0.136364    60A      0.143157  
      61A      0.145514    62A      0.146739    63A      0.151667  
      64A      0.158052    65A      0.161640    66A      0.161860  
      67A      0.166611    68A      0.170465    69A      0.173794  
      70A      0.178623    71A      0.179170    72A      0.187735  
      73A      0.194705    74A      0.200398    75A      0.207138  
      76A      0.213941    77A      0.219042    78A      0.225471  
      79A      0.233407    80A      0.236403    81A      0.240947  
      82A      0.248964    83A      0.251159    84A      0.258502  
      85A      0.259616    86A      0.265775    87A      0.270388  
      88A      0.280216    89A      0.282279    90A      0.286627  
      91A      0.288547    92A      0.296735    93A      0.301599  
      94A      0.309185    95A      0.317618    96A      0.320218  
      97A      0.324248    98A      0.331634    99A      0.333797  
     100A      0.338042   101A      0.339888   102A      0.342641  
     103A      0.348554   104A      0.352872   105A      0.359571  
     106A      0.363018   107A      0.363907   108A      0.366315  
     109A      0.368345   110A      0.371505   111A      0.374506  
     112A      0.378757   113A      0.384237   114A      0.387112  
     115A      0.390793   116A      0.392354   117A      0.396984  
     118A      0.398722   119A      0.401354   120A      0.405611  
     121A      0.406817   122A      0.417637   123A      0.419599  
     124A      0.424766   125A      0.431616   126A      0.432960  
     127A      0.435391   128A      0.436760   129A      0.439200  
     130A      0.447189   131A      0.448179   132A      0.453343  
     133A      0.453857   134A      0.457603   135A      0.460437  
     136A      0.465131   137A      0.469302   138A      0.471102  
     139A      0.476506   140A      0.481079   141A      0.486873  
     142A      0.488061   143A      0.491871   144A      0.494415  
     145A      0.497295   146A      0.500758   147A      0.506675  
     148A      0.510906   149A      0.514717   150A      0.519223  
     151A      0.521330   152A      0.523491   153A      0.528170  
     154A      0.530657   155A      0.533792   156A      0.533962  
     157A      0.540412   158A      0.547468   159A      0.549893  
     160A      0.557927   161A      0.563007   162A      0.563424  
     163A      0.572005   164A      0.577358   165A      0.578084  
     166A      0.586233   167A      0.590372   168A      0.595966  
     169A      0.599726   170A      0.607203   171A      0.609270  
     172A      0.614689   173A      0.619215   174A      0.622655  
     175A      0.627565   176A      0.632840   177A      0.640095  
     178A      0.644671   179A      0.651888   180A      0.654225  
     181A      0.661398   182A      0.667141   183A      0.676820  
     184A      0.686716   185A      0.689391   186A      0.694493  
     187A      0.697561   188A      0.709046   189A      0.714361  
     190A      0.716932   191A      0.717683   192A      0.725013  
     193A      0.735247   194A      0.739818   195A      0.750601  
     196A      0.761460   197A      0.767064   198A      0.780923  
     199A      0.787557   200A      0.798555   201A      0.805067  
     202A      0.820712   203A      0.827321   204A      0.829549  
     205A      0.833246   206A      0.837493   207A      0.842156  
     208A      0.846931   209A      0.850759   210A      0.856952  
     211A      0.862508   212A      0.868163   213A      0.873178  
     214A      0.877258   215A      0.882547   216A      0.888334  
     217A      0.890797   218A      0.893357   219A      0.896025  
     220A      0.897833   221A      0.904186   222A      0.910831  
     223A      0.919083   224A      0.920658   225A      0.924514  
     226A      0.927036   227A      0.932231   228A      0.933822  
     229A      0.937841   230A      0.947175   231A      0.949980  
     232A      0.954378   233A      0.955908   234A      0.965075  
     235A      0.968435   236A      0.975120   237A      0.980197  
     238A      0.984344   239A      0.993304   240A      0.997430  
     241A      1.000467   242A      1.008175   243A      1.010208  
     244A      1.015800   245A      1.022009   246A      1.027183  
     247A      1.030859   248A      1.035356   249A      1.039801  
     250A      1.043939   251A      1.046645   252A      1.056733  
     253A      1.059986   254A      1.072467   255A      1.073766  
     256A      1.083626   257A      1.092155   258A      1.094389  
     259A      1.100067   260A      1.106839   261A      1.110905  
     262A      1.116336   263A      1.120842   264A      1.131357  
     265A      1.133598   266A      1.138620   267A      1.143640  
     268A      1.153686   269A      1.156600   270A      1.160123  
     271A      1.164839   272A      1.172964   273A      1.177267  
     274A      1.177732   275A      1.183554   276A      1.186212  
     277A      1.193007   278A      1.197010   279A      1.199750  
     280A      1.203270   281A      1.207189   282A      1.212011  
     283A      1.218705   284A      1.226047   285A      1.229504  
     286A      1.233000   287A      1.241040   288A      1.245166  
     289A      1.248946   290A      1.256503   291A      1.257187  
     292A      1.262725   293A      1.270183   294A      1.273116  
     295A      1.281783   296A      1.288842   297A      1.297952  
     298A      1.300035   299A      1.304559   300A      1.308350  
     301A      1.315824   302A      1.322091   303A      1.328804  
     304A      1.334322   305A      1.339292   306A      1.341812  
     307A      1.352712   308A      1.355800   309A      1.363820  
     310A      1.370055   311A      1.377192   312A      1.386604  
     313A      1.397799   314A      1.405523   315A      1.407842  
     316A      1.415112   317A      1.431784   318A      1.440028  
     319A      1.444872   320A      1.447902   321A      1.455713  
     322A      1.466235   323A      1.479580   324A      1.482299  
     325A      1.487060   326A      1.491922   327A      1.512761  
     328A      1.523406   329A      1.533070   330A      1.536338  
     331A      1.541805   332A      1.550956   333A      1.562714  
     334A      1.565822   335A      1.572090   336A      1.574959  
     337A      1.590620   338A      1.591591   339A      1.598760  
     340A      1.605663   341A      1.613573   342A      1.616119  
     343A      1.626586   344A      1.634185   345A      1.635865  
     346A      1.644801   347A      1.648301   348A      1.662067  
     349A      1.671960   350A      1.674417   351A      1.675896  
     352A      1.684188   353A      1.684745   354A      1.690124  
     355A      1.698841   356A      1.705232   357A      1.708859  
     358A      1.714421   359A      1.720725   360A      1.724004  
     361A      1.736057   362A      1.737068   363A      1.747589  
     364A      1.748607   365A      1.752819   366A      1.759197  
     367A      1.764424   368A      1.766870   369A      1.772937  
     370A      1.778294   371A      1.783574   372A      1.786633  
     373A      1.788895   374A      1.791904   375A      1.805689  
     376A      1.811371   377A      1.815701   378A      1.823432  
     379A      1.825552   380A      1.836884   381A      1.845484  
     382A      1.852450   383A      1.855123   384A      1.858657  
     385A      1.863940   386A      1.871164   387A      1.874018  
     388A      1.881565   389A      1.889372   390A      1.896688  
     391A      1.900315   392A      1.903749   393A      1.910931  
     394A      1.921958   395A      1.931271   396A      1.936786  
     397A      1.948598   398A      1.957165   399A      1.958220  
     400A      1.977489   401A      1.982694   402A      1.986503  
     403A      1.991423   404A      1.998708   405A      2.003516  
     406A      2.005524   407A      2.018948   408A      2.025282  
     409A      2.029162   410A      2.034777   411A      2.038500  
     412A      2.039982   413A      2.051294   414A      2.060401  
     415A      2.062468   416A      2.066139   417A      2.083881  
     418A      2.085661   419A      2.099088   420A      2.109940  
     421A      2.123658   422A      2.127784   423A      2.135539  
     424A      2.136732   425A      2.150269   426A      2.169095  
     427A      2.179656   428A      2.182203   429A      2.200418  
     430A      2.206228   431A      2.220998   432A      2.223891  
     433A      2.241279   434A      2.253075   435A      2.257777  
     436A      2.263262   437A      2.268764   438A      2.277796  
     439A      2.280809   440A      2.284922   441A      2.299469  
     442A      2.302648   443A      2.309226   444A      2.316113  
     445A      2.331505   446A      2.339313   447A      2.347558  
     448A      2.350966   449A      2.360130   450A      2.364266  
     451A      2.373031   452A      2.381976   453A      2.396766  
     454A      2.406047   455A      2.420500   456A      2.431114  
     457A      2.443104   458A      2.458883   459A      2.460062  
     460A      2.475332   461A      2.480015   462A      2.485339  
     463A      2.495176   464A      2.496748   465A      2.510596  
     466A      2.540277   467A      2.550251   468A      2.557726  
     469A      2.573740   470A      2.583521   471A      2.586463  
     472A      2.622308   473A      2.630851   474A      2.635452  
     475A      2.651084   476A      2.672188   477A      2.681162  
     478A      2.692419   479A      2.717199   480A      2.764295  
     481A      2.776876   482A      2.850797   483A      2.873557  
     484A      2.934724   485A      2.943084   486A      2.972561  
     487A      2.993897   488A      3.007915   489A      3.023419  
     490A      3.069765   491A      3.130683   492A      3.155786  
     493A      3.229413   494A      3.284611   495A      3.304826  
     496A      3.381846   497A      3.393564   498A      3.433013  
     499A      3.442214   500A      3.449315   501A      3.456428  
     502A      3.489125   503A      3.510418   504A      3.512155  
     505A      3.514725   506A      3.538294   507A      3.538739  
     508A      3.555935   509A      3.571158   510A      3.576154  
     511A      3.577170   512A      3.596593   513A      3.598678  
     514A      3.613759   515A      3.630441   516A      3.639874  
     517A      3.645340   518A      3.663434   519A      3.665126  
     520A      3.676379   521A      3.681919   522A      3.692579  
     523A      3.700746   524A      3.708231   525A      3.713844  
     526A      3.737839   527A      3.743878   528A      3.747990  
     529A      3.754460   530A      3.760903   531A      3.770370  
     532A      3.778215   533A      3.785260   534A      3.801598  
     535A      3.802329   536A      3.807115   537A      3.818624  
     538A      3.825348   539A      3.841129   540A      3.853402  
     541A      3.856784   542A      3.865756   543A      3.868420  
     544A      3.870800   545A      3.876305   546A      3.883728  
     547A      3.890054   548A      3.904560   549A      3.914442  
     550A      3.916423   551A      3.924592   552A      3.936715  
     553A      3.946580   554A      3.954918   555A      3.960829  
     556A      3.961358   557A      3.969323   558A      3.979138  
     559A      3.991383   560A      3.994263   561A      4.006054  
     562A      4.006248   563A      4.009570   564A      4.017932  
     565A      4.027939   566A      4.030374   567A      4.042262  
     568A      4.047551   569A      4.055492   570A      4.063982  
     571A      4.074820   572A      4.082261   573A      4.086861  
     574A      4.091012   575A      4.096603   576A      4.103550  
     577A      4.119087   578A      4.130264   579A      4.138774  
     580A      4.158350   581A      4.169274   582A      4.191184  
     583A      4.196563   584A      4.203584   585A      4.211170  
     586A      4.226066   587A      4.228526   588A      4.239471  
     589A      4.242091   590A      4.250600   591A      4.263511  
     592A      4.275838   593A      4.281848   594A      4.287555  
     595A      4.295183   596A      4.316009   597A      4.328231  
     598A      4.336838   599A      4.347614   600A      4.354693  
     601A      4.362967   602A      4.380762   603A      4.396185  
     604A      4.404379   605A      4.409052   606A      4.415351  
     607A      4.428575   608A      4.441255   609A      4.450240  
     610A      4.461162   611A      4.493632   612A      4.503474  
     613A      4.527393   614A      4.539194   615A      4.543329  
     616A      4.555511   617A      4.575444   618A      4.578645  
     619A      4.601004   620A      4.607947   621A      4.618951  
     622A      4.634040   623A      4.642990   624A      4.652941  
     625A      4.673875   626A      4.685056   627A      4.700299  
     628A      4.701669   629A      4.709649   630A      4.724878  
     631A      4.733685   632A      4.744558   633A      4.751772  
     634A      4.761643   635A      4.769467   636A      4.787052  
     637A      4.794683   638A      4.799852   639A      4.817022  
     640A      4.823696   641A      4.828608   642A      4.840981  
     643A      4.859495   644A      4.869355   645A      4.880603  
     646A      4.884584   647A      4.894087   648A      4.898679  
     649A      4.905003   650A      4.923840   651A      4.929188  
     652A      4.952256   653A      4.960499   654A      4.961994  
     655A      4.978241   656A      4.984551   657A      5.004212  
     658A      5.020018   659A      5.022472   660A      5.031478  
     661A      5.045945   662A      5.057334   663A      5.075880  
     664A      5.094945   665A      5.109136   666A      5.121907  
     667A      5.134434   668A      5.142384   669A      5.159125  
     670A      5.160644   671A      5.167264   672A      5.191559  
     673A      5.213871   674A      5.222485   675A      5.222901  
     676A      5.229109   677A      5.250974   678A      5.264709  
     679A      5.269751   680A      5.282937   681A      5.296097  
     682A      5.304609   683A      5.315960   684A      5.323634  
     685A      5.337120   686A      5.340663   687A      5.362024  
     688A      5.369697   689A      5.377247   690A      5.394977  
     691A      5.403412   692A      5.416743   693A      5.422298  
     694A      5.429228   695A      5.438045   696A      5.444785  
     697A      5.454355   698A      5.467858   699A      5.486131  
     700A      5.495305   701A      5.495947   702A      5.514315  
     703A      5.533483   704A      5.541869   705A      5.550108  
     706A      5.557771   707A      5.585891   708A      5.592574  
     709A      5.604036   710A      5.609880   711A      5.616458  
     712A      5.632692   713A      5.647462   714A      5.656979  
     715A      5.661218   716A      5.683642   717A      5.688679  
     718A      5.709920   719A      5.721258   720A      5.740177  
     721A      5.756622   722A      5.766624   723A      5.775033  
     724A      5.808022   725A      5.813534   726A      5.825925  
     727A      5.850070   728A      5.867760   729A      5.879746  
     730A      5.892861   731A      5.902944   732A      5.939598  
     733A      5.963320   734A      5.980742   735A      5.985181  
     736A      6.004887   737A      6.027790   738A      6.042710  
     739A      6.057143   740A      6.100904   741A      6.121502  
     742A      6.152951   743A      6.171240   744A      6.177198  
     745A      6.198329   746A      6.212247   747A      6.231151  
     748A      6.237438   749A      6.248413   750A      6.274889  
     751A      6.294368   752A      6.302003   753A      6.307479  
     754A      6.315251   755A      6.333513   756A      6.347713  
     757A      6.401565   758A      6.429545   759A      6.507614  
     760A      6.562818   761A      6.612951   762A      6.633280  
     763A      6.711392   764A      6.733725   765A      6.764521  
     766A      6.797770   767A      6.820687   768A      6.856539  
     769A      6.867341   770A      6.897510   771A      6.926719  
     772A      6.982941   773A      7.033423   774A      7.131354  
     775A     17.800050   776A     17.949601   777A     18.155064  
     778A     18.461982   779A     18.488815   780A     18.600334  
     781A     19.077033   782A     19.588706  

    Final Occupation by Irrep:
              A 
    DOCC [    33 ]

  Energy converged.

  @DF-RHF Final Energy:  -313.54607282149419

   => Energetics <=

    Nuclear Repulsion Energy =            380.6414517267456290
    One-Electron Energy =               -1176.4342097670250951
    Two-Electron Energy =                 482.2466852187856148
    DFT Exchange-Correlation Energy =       0.0000000000000000
    Empirical Dispersion Energy =           0.0000000000000000
    PCM Polarization Energy =               0.0000000000000000
    EFP Energy =                            0.0000000000000000
    Total Energy =                       -313.5460728214939081


  Saving occupied orbitals to File 180.

*** tstop() called on wr40 at Tue Sep 20 22:41:39 2016
Module time:
	user time   =    1028.95 seconds =      17.15 minutes
	system time =      19.17 seconds =       0.32 minutes
	total time  =         97 seconds =       1.62 minutes
Total time:
	user time   =    1028.95 seconds =      17.15 minutes
	system time =      19.17 seconds =       0.32 minutes
	total time  =         97 seconds =       1.62 minutes


Properties will be evaluated at   0.000000,   0.000000,   0.000000 Bohr

Properties computed using the SCF density matrix

  Nuclear Dipole Moment: (a.u.)
     X:     0.4759      Y:    -1.2534      Z:    -0.1675

  Electronic Dipole Moment: (a.u.)
     X:    -0.4909      Y:     1.2863      Z:     0.1723

  Dipole Moment: (a.u.)
     X:    -0.0150      Y:     0.0329      Z:     0.0047     Total:     0.0364

  Dipole Moment: (Debye)
     X:    -0.0381      Y:     0.0836      Z:     0.0120     Total:     0.0926


  //>>>>>>>>>>>>>>>>>>>>>>>>>>>>>>>>>>>//
  //               DFMP2               //
  //<<<<<<<<<<<<<<<<<<<<<<<<<<<<<<<<<<<//


*** tstart() called on wr40
*** at Tue Sep 20 22:41:39 2016


*** tstop() called on wr40 at Tue Sep 20 22:41:40 2016
Module time:
	user time   =       4.60 seconds =       0.08 minutes
	system time =       0.18 seconds =       0.00 minutes
	total time  =          1 seconds =       0.02 minutes
Total time:
	user time   =    1034.46 seconds =      17.24 minutes
	system time =      19.39 seconds =       0.32 minutes
	total time  =         98 seconds =       1.63 minutes
	 --------------------------------------------------------
	                          DF-MP2                         
	      2nd-Order Density-Fitted Moller-Plesset Theory     
	              RMP2 Wavefunction,  12 Threads             
	                                                         
	        Rob Parrish, Justin Turney, Andy Simmonett,      
	           Ed Hohenstein, and C. David Sherrill          
	 --------------------------------------------------------

   => Auxiliary Basis Set <=

  Basis Set: 
    Number of shells: 476
    Number of basis function: 1676
    Number of Cartesian functions: 2078
    Spherical Harmonics?: true
    Max angular momentum: 4

	 --------------------------------------------------------
	                 NBF =   782, NAUX =  1676
	 --------------------------------------------------------
	   CLASS    FOCC     OCC    AOCC    AVIR     VIR    FVIR
	   PAIRS       8      33      25     749     749       0
	 --------------------------------------------------------

DGAS Warning! /src/lib/libfock/apps.cc:80 is not currently checking restricted

         ------------------------------------------------------------
                                     CPHF                           
                                  Rob Parrish                       
         ------------------------------------------------------------

  ==> Geometry <==

    Molecular point group: c1
    Full point group: C1

    Geometry (in Angstrom), charge = 0, multiplicity = 1:

       Center              X                  Y                   Z               Mass       
    ------------   -----------------  -----------------  -----------------  -----------------
           C          4.278351127304    -0.538648454875     0.102601300081    12.000000000000
           H          5.220718934462    -0.073487586030    -0.185531442007     1.007825032070
           H          4.205285916711    -1.496543742395    -0.413834624540     1.007825032070
           H          4.317980446187    -0.741614495082     1.173510032684     1.007825032070
           C         -3.672190464619    -1.054561995206    -0.312151547826    12.000000000000
           H         -2.966967651997    -1.842894137260    -0.052063787861     1.007825032070
           H         -3.670572002290    -0.949852832882    -1.398500050953     1.007825032070
           H         -4.664814594134    -1.387496550166    -0.009898277244     1.007825032070
           C          3.086141089519     0.348227360316    -0.234579469109    12.000000000000
           H          3.075458002657     0.561125945838    -1.306824714674     1.007825032070
           H          3.187658833456     1.311968728578     0.271409467572     1.007825032070
           C         -3.307493460634     0.267465576711     0.354886087221    12.000000000000
           H         -4.093195483080     0.999069598568     0.153796109244     1.007825032070
           H         -3.277443880416     0.135216576094     1.439961876081     1.007825032070
           C          1.758443195364    -0.285422797649     0.161191245654    12.000000000000
           H          1.766564013932    -0.498620003741     1.235041362913     1.007825032070
           H          1.654728072056    -1.250846304547    -0.344624914705     1.007825032070
           C          0.555402389118     0.588088881578    -0.169627229690    12.000000000000
           H          0.546294693547     0.798415848707    -1.243964336595     1.007825032070
           H          0.660563230925     1.554486700614     0.333680892834     1.007825032070
           C         -0.771864019033    -0.045400790094     0.228793432550    12.000000000000
           H         -0.862748655876    -1.015696765990    -0.266151367701     1.007825032070
           H         -0.769336855906    -0.243604521415     1.305991875279     1.007825032070
           C         -1.969421638228     0.832544761881    -0.116104572992    12.000000000000
           H         -1.819045539066     1.820091680995     0.329434880038     1.007825032070
           H         -2.003518165828     0.983233792170    -1.200145499834     1.007825032070

  Nuclear repulsion =  380.641451726745629
  Reference energy  = -313.546072821494192

  ==> Basis Set <==

  Basis Set: AUG-CC-PVTZ
    Number of shells: 274
    Number of basis function: 782
    Number of Cartesian functions: 890
    Spherical Harmonics?: true
    Max angular momentum: 3

  ==> CGRSolver (by Rob Parrish) <==

   Number of roots    =         1
   Preconditioning    =    JACOBI
   Convergence cutoff =     1E-06
   Maximum iterations =       100

  ==> CPHFRHamiltonian (by Rob Parrish) <== 

  ==> DFJK: Density-Fitted J/K Matrices <==

    J tasked:                  Yes
    K tasked:                  Yes
    wK tasked:                  No
    OpenMP threads:             12
    Integrals threads:          12
    Memory (MB):             42915
    Algorithm:                Core
    Integral Cache:           NONE
    Schwarz Cutoff:          1E-12
    Fitting Condition:       1E-12

   => Auxiliary Basis Set <=

  Basis Set: 
    Number of shells: 492
    Number of basis function: 1660
    Number of Cartesian functions: 2038
    Spherical Harmonics?: true
    Max angular momentum: 4

  ==> CPHF Iterations <==

  => Iterations <=

             Iter  Converged  Remaining    Residual
  CGR           1          0          1   8.816E-02
  CGR           2          0          1   1.230E-02
  CGR           3          0          1   3.056E-03
  CGR           4          0          1   7.980E-04
  CGR           5          0          1   1.764E-04
  CGR           6          0          1   4.378E-05
  CGR           7          0          1   1.155E-05
  CGR           8          0          1   2.769E-06
  CGR           9          1          0   7.141E-07

    CGRSolver converged.

  ==> DFCorrGrad: Density-Fitted Correlated Gradients <==

    OpenMP threads:             12
    Integrals threads:          12
    Memory (MB):             42915
    Schwarz Cutoff:          0E+00
    Fitting Condition:       1E-12

   => Auxiliary Basis Set <=

  Basis Set: 
    Number of shells: 492
    Number of basis function: 1660
    Number of Cartesian functions: 2038
    Spherical Harmonics?: true
    Max angular momentum: 4

	-----------------------------------------------------------
	 ==================> DF-MP2 Energies <==================== 
	-----------------------------------------------------------
	 Reference Energy          =    -313.5460728214941923 [Eh]
	 Singles Energy            =      -0.0000000000000003 [Eh]
	 Same-Spin Energy          =      -0.3149215235813035 [Eh]
	 Opposite-Spin Energy      =      -1.1234384923537453 [Eh]
	 Correlation Energy        =      -1.4383600159350489 [Eh]
	 Total Energy              =    -314.9844328374292672 [Eh]
	-----------------------------------------------------------
	 ================> DF-SCS-MP2 Energies <================== 
	-----------------------------------------------------------
	 SCS Same-Spin Scale       =       0.3333333333333333 [-]
	 SCS Opposite-Spin Scale   =       1.2000000000000000 [-]
	 SCS Same-Spin Energy      =      -0.1049738411937678 [Eh]
	 SCS Opposite-Spin Energy  =      -1.3481261908244944 [Eh]
	 SCS Correlation Energy    =      -1.4531000320182623 [Eh]
	 SCS Total Energy          =    -314.9991728535124480 [Eh]
	-----------------------------------------------------------


  -Total Gradient:
     Atom            X                  Y                   Z
    ------   -----------------  -----------------  -----------------
       1       -0.000000350423     0.000000211819    -0.000000114858
       2        0.000000366113     0.000000215581    -0.000000138680
       3        0.000000009300    -0.000000342422    -0.000000185770
       4        0.000000033659    -0.000000063716     0.000000366011
       5       -0.000000025338    -0.000000105485    -0.000000085960
       6       -0.000000073057     0.000000165754     0.000000003296
       7        0.000000001495    -0.000000005767     0.000000103709
       8        0.000000066129     0.000000014156    -0.000000008408
       9        0.000000102732    -0.000000494544     0.000000202940
      10        0.000000044874     0.000000123513    -0.000000578333
      11        0.000000066797     0.000000500866     0.000000275384
      12        0.000000153657     0.000000156081     0.000000096278
      13       -0.000000006194    -0.000000042837    -0.000000008931
      14        0.000000043792    -0.000000013201    -0.000000133460
      15       -0.000000132487     0.000000081226     0.000000032249
      16       -0.000000034722    -0.000000113500     0.000000320764
      17       -0.000000021719    -0.000000322500    -0.000000080363
      18       -0.000000400510    -0.000000242616     0.000000241477
      19       -0.000000047998     0.000000060284    -0.000000379786
      20       -0.000000068921     0.000000231026     0.000000267575
      21        0.000000031827    -0.000000268487     0.000000173315
      22        0.000000009012     0.000000188003     0.000000123276
      23       -0.000000031217     0.000000055605    -0.000000275305
      24        0.000000303139     0.000000209820    -0.000000363176
      25        0.000000011381    -0.000000095862     0.000000038637
      26       -0.000000051317    -0.000000102797     0.000000108118


			-----------------------------------------
			 OPTKING 2.0: for geometry optimizations 
			  - R.A. King,  Bethel University        
			-----------------------------------------

	Internal coordinates to be generated automatically.
	Detected frag 1 with atoms:  1 2 3 4 5 6 7 8 9 10 11 12 13 14 15 16 17 18 19 20
	 21 22 23 24 25 26
	---Fragment 1 Bond Connectivity---
	 1 : 2 3 4 9
	 2 : 1
	 3 : 1
	 4 : 1
	 5 : 6 7 8 12
	 6 : 5
	 7 : 5
	 8 : 5
	 9 : 1 10 11 15
	 10 : 9
	 11 : 9
	 12 : 5 13 14 24
	 13 : 12
	 14 : 12
	 15 : 9 16 17 18
	 16 : 15
	 17 : 15
	 18 : 15 19 20 21
	 19 : 18
	 20 : 18
	 21 : 18 22 23 24
	 22 : 21
	 23 : 21
	 24 : 12 21 25 26
	 25 : 24
	 26 : 24

	---Fragment 1 Geometry and Gradient---
	 C           8.0849119309       -1.0178980616        0.1938883580
	 H           9.8657290029       -0.1388714118       -0.3506036144
	 H           7.9468386931       -2.8280578190       -0.7820341047
	 H           8.1598004904       -1.4014482919        2.2176125760
	 C          -6.9394342859       -1.9928333611       -0.5898809373
	 H          -5.6067563074       -3.4825652113       -0.0983863005
	 H          -6.9363758354       -1.7949617207       -2.6427820931
	 H          -8.8152220436       -2.6219884901       -0.0187050332
	 C           5.8319614666        0.6580543430       -0.4432909530
	 H           5.8117733582        1.0603743637       -2.4695408144
	 H           6.0238022003        2.4792615919        0.5128895636
	 C          -6.2502568269        0.5054366900        0.6706375132
	 H          -7.7350184714        1.8879679290        0.2906325268
	 H          -6.1934713499        0.2555222974        2.7211335876
	 C           3.3229760595       -0.5393709196        0.3046073093
	 H           3.3383221825       -0.9422552514        2.3338899387
	 H           3.1269828806       -2.3637569499       -0.6512467074
	 C           1.0495584090        1.1113269280       -0.3205490088
	 H           1.0323473587        1.5087872942       -2.3507519152
	 H           1.2482835999        2.9375541414        0.6305655032
	 C          -1.4586116078       -0.0857950595        0.4323569285
	 H          -1.6303586811       -1.9193887218       -0.5029531948
	 H          -1.4538359616       -0.4603458302        2.4679669761
	 C          -3.7216675364        1.5732815933       -0.2194058457
	 H          -3.4374978921        3.4394748138        0.6225417019
	 H          -3.7861006357        1.8580425918       -2.2679463143
	            -0.0000003504        0.0000002118       -0.0000001149
	             0.0000003661        0.0000002156       -0.0000001387
	             0.0000000093       -0.0000003424       -0.0000001858
	             0.0000000337       -0.0000000637        0.0000003660
	            -0.0000000253       -0.0000001055       -0.0000000860
	            -0.0000000731        0.0000001658        0.0000000033
	             0.0000000015       -0.0000000058        0.0000001037
	             0.0000000661        0.0000000142       -0.0000000084
	             0.0000001027       -0.0000004945        0.0000002029
	             0.0000000449        0.0000001235       -0.0000005783
	             0.0000000668        0.0000005009        0.0000002754
	             0.0000001537        0.0000001561        0.0000000963
	            -0.0000000062       -0.0000000428       -0.0000000089
	             0.0000000438       -0.0000000132       -0.0000001335
	            -0.0000001325        0.0000000812        0.0000000322
	            -0.0000000347       -0.0000001135        0.0000003208
	            -0.0000000217       -0.0000003225       -0.0000000804
	            -0.0000004005       -0.0000002426        0.0000002415
	            -0.0000000480        0.0000000603       -0.0000003798
	            -0.0000000689        0.0000002310        0.0000002676
	             0.0000000318       -0.0000002685        0.0000001733
	             0.0000000090        0.0000001880        0.0000001233
	            -0.0000000312        0.0000000556       -0.0000002753
	             0.0000003031        0.0000002098       -0.0000003632
	             0.0000000114       -0.0000000959        0.0000000386
	            -0.0000000513       -0.0000001028        0.0000001081

	Previous optimization step data not found.  Starting new optimization.

	---Fragment 1 Intrafragment Coordinates---
	 - Coordinate -           - BOHR/RAD -       - ANG/DEG -
	 R(1,2)           =         2.059240	       1.089703
	 R(1,3)           =         2.061108	       1.090692
	 R(1,4)           =         2.061111	       1.090693
	 R(1,9)           =         2.879340	       1.523681
	 R(5,6)           =         2.058373	       1.089244
	 R(5,7)           =         2.062417	       1.091384
	 R(5,8)           =         2.059286	       1.089727
	 R(5,12)          =         2.881879	       1.525025
	 R(9,10)          =         2.065904	       1.093229
	 R(9,11)          =         2.065885	       1.093219
	 R(9,15)          =         2.878921	       1.523459
	 R(12,13)         =         2.064053	       1.092250
	 R(12,14)         =         2.066450	       1.093518
	 R(12,24)         =         2.885521	       1.526952
	 R(15,16)         =         2.068946	       1.094839
	 R(15,17)         =         2.068926	       1.094828
	 R(15,18)         =         2.878203	       1.523079
	 R(18,19)         =         2.068815	       1.094770
	 R(18,20)         =         2.068627	       1.094670
	 R(18,21)         =         2.879390	       1.523707
	 R(21,22)         =         2.065519	       1.093025
	 R(21,23)         =         2.069787	       1.095284
	 R(21,24)         =         2.880755	       1.524430
	 R(24,25)         =         2.066956	       1.093786
	 R(24,26)         =         2.069241	       1.094995
	 B(1,9,10)        =         1.915635	     109.757773
	 B(1,9,11)        =         1.915630	     109.757490
	 B(1,9,15)        =         1.963108	     112.477807
	 B(2,1,3)         =         1.883498	     107.916474
	 B(2,1,4)         =         1.883500	     107.916587
	 B(2,1,9)         =         1.949465	     111.696101
	 B(3,1,4)         =         1.879588	     107.692437
	 B(3,1,9)         =         1.932636	     110.731882
	 B(4,1,9)         =         1.932667	     110.733664
	 B(5,12,13)       =         1.905091	     109.153649
	 B(5,12,14)       =         1.913196	     109.618066
	 B(5,12,24)       =         1.977360	     113.294364
	 B(6,5,7)         =         1.881946	     107.827568
	 B(6,5,8)         =         1.878009	     107.601984
	 B(6,5,12)        =         1.947797	     111.600571
	 B(7,5,8)         =         1.882572	     107.863431
	 B(7,5,12)        =         1.930344	     110.600578
	 B(8,5,12)        =         1.940530	     111.184165
	 B(9,15,16)       =         1.906393	     109.228301
	 B(9,15,17)       =         1.906363	     109.226570
	 B(9,15,18)       =         1.975133	     113.166764
	 B(10,9,11)       =         1.857913	     106.450596
	 B(10,9,15)       =         1.904221	     109.103800
	 B(11,9,15)       =         1.904301	     109.108407
	 B(12,24,21)      =         1.988308	     113.921664
	 B(12,24,25)      =         1.905996	     109.205517
	 B(12,24,26)      =         1.906048	     109.208492
	 B(13,12,14)      =         1.858195	     106.466747
	 B(13,12,24)      =         1.902544	     109.007748
	 B(14,12,24)      =         1.903654	     109.071355
	 B(15,18,19)      =         1.906999	     109.263010
	 B(15,18,20)      =         1.907700	     109.303162
	 B(15,18,21)      =         1.974475	     113.129062
	 B(16,15,17)      =         1.856818	     106.387825
	 B(16,15,18)      =         1.907713	     109.303920
	 B(17,15,18)      =         1.907687	     109.302388
	 B(18,21,22)      =         1.899798	     108.850400
	 B(18,21,23)      =         1.907512	     109.292392
	 B(18,21,24)      =         1.966761	     112.687089
	 B(19,18,20)      =         1.857082	     106.402969
	 B(19,18,21)      =         1.906283	     109.221985
	 B(20,18,21)      =         1.907624	     109.298812
	 B(21,24,25)      =         1.896333	     108.651853
	 B(21,24,26)      =         1.904666	     109.129296
	 B(22,21,23)      =         1.859692	     106.552492
	 B(22,21,24)      =         1.921417	     110.089093
	 B(23,21,24)      =         1.905556	     109.180329
	 B(25,24,26)      =         1.858023	     106.456869
	 D(1,9,15,16)     =         1.012605	      58.017977
	 D(1,9,15,17)     =        -1.011677	     -57.964797
	 D(1,9,15,18)     =        -3.141101	    -179.971803
	 D(2,1,9,10)      =         1.018220	      58.339717
	 D(2,1,9,11)      =        -1.017931	     -58.323122
	 D(2,1,9,15)      =        -3.141497	    -179.994543
	 D(3,1,9,10)      =        -1.081499	     -61.965316
	 D(3,1,9,11)      =        -3.117649	    -178.628155
	 D(3,1,9,15)      =         1.041969	      59.700424
	 D(4,1,9,10)      =         3.117963	     178.646108
	 D(4,1,9,11)      =         1.081812	      61.983269
	 D(4,1,9,15)      =        -1.041755	     -59.688152
	 D(5,12,24,21)    =        -1.110728	     -63.640027
	 D(5,12,24,25)    =         3.048931	     174.690850
	 D(5,12,24,26)    =         1.023605	      58.648229
	 D(6,5,12,13)     =        -3.038960	    -174.119600
	 D(6,5,12,14)     =        -1.009931	     -57.864779
	 D(6,5,12,24)     =         1.120802	      64.217205
	 D(7,5,12,13)     =         1.149137	      65.840714
	 D(7,5,12,14)     =        -3.105019	    -177.904465
	 D(7,5,12,24)     =        -0.974286	     -55.822481
	 D(8,5,12,13)     =        -0.941948	     -53.969670
	 D(8,5,12,14)     =         1.087081	      62.285150
	 D(8,5,12,24)     =        -3.065372	    -175.632866
	 D(9,15,18,19)    =         1.015727	      58.196885
	 D(9,15,18,20)    =        -1.009957	     -57.866272
	 D(9,15,18,21)    =        -3.139820	    -179.898430
	 D(10,9,15,16)    =        -3.140632	    -179.944951
	 D(10,9,15,17)    =         1.118272	      64.072274
	 D(10,9,15,18)    =        -1.011152	     -57.934731
	 D(11,9,15,16)    =        -1.117394	     -64.021981
	 D(11,9,15,17)    =         3.141510	     179.995244
	 D(11,9,15,18)    =         1.012086	      57.988239
	 D(12,24,21,18)   =        -3.073959	    -176.124859
	 D(12,24,21,22)   =         1.084807	      62.154842
	 D(12,24,21,23)   =        -0.950963	     -54.486174
	 D(13,12,24,21)   =         3.047608	     174.615076
	 D(13,12,24,25)   =         0.924081	      52.945953
	 D(13,12,24,26)   =        -1.101245	     -63.096668
	 D(14,12,24,21)   =         1.025317	      58.746343
	 D(14,12,24,25)   =        -1.098210	     -62.922781
	 D(14,12,24,26)   =        -3.123536	    -178.965401
	 D(15,18,21,22)   =        -0.997571	     -57.156595
	 D(15,18,21,23)   =         1.027110	      58.849044
	 D(15,18,21,24)   =        -3.134189	    -179.575817
	 D(16,15,18,19)   =        -3.138717	    -179.835211
	 D(16,15,18,20)   =         1.118785	      64.101631
	 D(16,15,18,21)   =        -1.011078	     -57.930527
	 D(17,15,18,19)   =        -1.112956	     -63.767691
	 D(17,15,18,20)   =        -3.138640	    -179.830848
	 D(17,15,18,21)   =         1.014682	      58.136994
	 D(18,21,24,25)   =        -0.945092	     -54.149767
	 D(18,21,24,26)   =         1.074134	      61.543353
	 D(19,18,21,22)   =         1.130469	      64.771082
	 D(19,18,21,23)   =        -3.128036	    -179.223279
	 D(19,18,21,24)   =        -1.006150	     -57.648140
	 D(20,18,21,22)   =        -3.127476	    -179.191188
	 D(20,18,21,23)   =        -1.102796	     -63.185549
	 D(20,18,21,24)   =         1.019091	      58.389590
	 D(22,21,24,25)   =        -3.069512	    -175.870065
	 D(22,21,24,26)   =        -1.050286	     -60.176946
	 D(23,21,24,25)   =         1.177904	      67.488919
	 D(23,21,24,26)   =        -3.086056	    -176.817962

	Current energy   :      -314.9844328374

	Generating empirical Hessian (Schlegel '84) for each fragment.
	Taking RFO optimization step.
	Going to follow RFO solution 1.
	Using RFO vector 1.
	Norm of target step-size    0.00010
	Projected energy change by RFO approximation:         0.0000000000

	Back-transformation to cartesian coordinates...
	Successfully converged to displaced geometry.

	--- Internal Coordinate Step in ANG or DEG, aJ/ANG or AJ/DEG ---
	 ---------------------------------------------------------------------------
	   Coordinate                Previous        Force       Change         New 
	   ----------                --------       ------       ------       ------
	    1 R(1,2)          =      1.089703    -0.000004    -0.000001     1.089702
	    2 R(1,3)          =      1.090692    -0.000003    -0.000001     1.090691
	    3 R(1,4)          =      1.090693    -0.000003    -0.000001     1.090692
	    4 R(1,9)          =      1.523681     0.000000     0.000000     1.523681
	    5 R(5,6)          =      1.089244     0.000001     0.000000     1.089244
	    6 R(5,7)          =      1.091384     0.000001     0.000000     1.091384
	    7 R(5,8)          =      1.089727     0.000001     0.000000     1.089727
	    8 R(5,12)         =      1.525025     0.000000     0.000000     1.525025
	    9 R(9,10)         =      1.093229    -0.000005    -0.000001     1.093228
	   10 R(9,11)         =      1.093219    -0.000005    -0.000001     1.093218
	   11 R(9,15)         =      1.523459    -0.000003    -0.000001     1.523459
	   12 R(12,13)        =      1.092250     0.000000     0.000000     1.092250
	   13 R(12,14)        =      1.093518     0.000001     0.000000     1.093518
	   14 R(12,24)        =      1.526952     0.000002     0.000000     1.526952
	   15 R(15,16)        =      1.094839    -0.000003    -0.000001     1.094839
	   16 R(15,17)        =      1.094828    -0.000003    -0.000000     1.094828
	   17 R(15,18)        =      1.523079    -0.000001    -0.000000     1.523079
	   18 R(18,19)        =      1.094770    -0.000003    -0.000001     1.094769
	   19 R(18,20)        =      1.094670    -0.000003    -0.000000     1.094670
	   20 R(18,21)        =      1.523707     0.000004     0.000001     1.523708
	   21 R(21,22)        =      1.093025     0.000002     0.000000     1.093026
	   22 R(21,23)        =      1.095284     0.000002     0.000000     1.095285
	   23 R(21,24)        =      1.524430     0.000002     0.000000     1.524431
	   24 R(24,25)        =      1.093786     0.000001     0.000000     1.093786
	   25 R(24,26)        =      1.094995     0.000001     0.000000     1.094995
	   26 B(1,9,10)       =    109.757773     0.000000     0.000057   109.757830
	   27 B(1,9,11)       =    109.757490     0.000000     0.000008   109.757497
	   28 B(1,9,15)       =    112.477807    -0.000000    -0.000098   112.477709
	   29 B(2,1,3)        =    107.916474    -0.000000     0.000011   107.916484
	   30 B(2,1,4)        =    107.916587    -0.000000     0.000001   107.916588
	   31 B(2,1,9)        =    111.696101     0.000000     0.000043   111.696144
	   32 B(3,1,4)        =    107.692437     0.000000    -0.000016   107.692421
	   33 B(3,1,9)        =    110.731882    -0.000000    -0.000021   110.731861
	   34 B(4,1,9)        =    110.733664    -0.000000    -0.000018   110.733647
	   35 B(5,12,13)      =    109.153649     0.000000    -0.000009   109.153641
	   36 B(5,12,14)      =    109.618066     0.000000     0.000033   109.618099
	   37 B(5,12,24)      =    113.294364    -0.000000     0.000004   113.294368
	   38 B(6,5,7)        =    107.827568    -0.000000    -0.000009   107.827559
	   39 B(6,5,8)        =    107.601984    -0.000000    -0.000001   107.601984
	   40 B(6,5,12)       =    111.600571     0.000000     0.000047   111.600617
	   41 B(7,5,8)        =    107.863431    -0.000000    -0.000014   107.863417
	   42 B(7,5,12)       =    110.600578    -0.000000    -0.000012   110.600565
	   43 B(8,5,12)       =    111.184165    -0.000000    -0.000012   111.184153
	   44 B(9,15,16)      =    109.228301    -0.000000    -0.000083   109.228217
	   45 B(9,15,17)      =    109.226570    -0.000000    -0.000006   109.226564
	   46 B(9,15,18)      =    113.166764     0.000000     0.000148   113.166912
	   47 B(10,9,11)      =    106.450596    -0.000000     0.000023   106.450619
	   48 B(10,9,15)      =    109.103800     0.000000     0.000006   109.103807
	   49 B(11,9,15)      =    109.108407     0.000000     0.000011   109.108418
	   50 B(12,24,21)     =    113.921664     0.000000     0.000045   113.921709
	   51 B(12,24,25)     =    109.205517     0.000000     0.000038   109.205556
	   52 B(12,24,26)     =    109.208492    -0.000000    -0.000022   109.208470
	   53 B(13,12,14)     =    106.466747    -0.000000    -0.000020   106.466727
	   54 B(13,12,24)     =    109.007748    -0.000000    -0.000045   109.007703
	   55 B(14,12,24)     =    109.071355     0.000000     0.000036   109.071391
	   56 B(15,18,19)     =    109.263010     0.000000     0.000032   109.263042
	   57 B(15,18,20)     =    109.303162     0.000000    -0.000014   109.303147
	   58 B(15,18,21)     =    113.129062    -0.000000    -0.000132   113.128930
	   59 B(16,15,17)     =    106.387825     0.000000     0.000008   106.387833
	   60 B(16,15,18)     =    109.303920    -0.000000    -0.000061   109.303859
	   61 B(17,15,18)     =    109.302388    -0.000000    -0.000014   109.302374
	   62 B(18,21,22)     =    108.850400    -0.000000    -0.000083   108.850317
	   63 B(18,21,23)     =    109.292392    -0.000000    -0.000022   109.292370
	   64 B(18,21,24)     =    112.687089     0.000000     0.000200   112.687289
	   65 B(19,18,20)     =    106.402969    -0.000000    -0.000019   106.402950
	   66 B(19,18,21)     =    109.221985     0.000000     0.000061   109.222046
	   67 B(20,18,21)     =    109.298812     0.000000     0.000079   109.298891
	   68 B(21,24,25)     =    108.651853    -0.000000     0.000029   108.651882
	   69 B(21,24,26)     =    109.129296    -0.000000    -0.000037   109.129260
	   70 B(22,21,23)     =    106.552492     0.000000    -0.000030   106.552462
	   71 B(22,21,24)     =    110.089093    -0.000000    -0.000034   110.089059
	   72 B(23,21,24)     =    109.180329    -0.000000    -0.000043   109.180286
	   73 B(25,24,26)     =    106.456869    -0.000000    -0.000062   106.456807
	   74 D(1,9,15,16)    =     58.017977    -0.000000    -0.000663    58.017314
	   75 D(1,9,15,17)    =    -57.964797    -0.000000    -0.000624   -57.965421
	   76 D(1,9,15,18)    =   -179.971803    -0.000000    -0.000702  -179.972504
	   77 D(2,1,9,10)     =     58.339717     0.000000     0.000049    58.339765
	   78 D(2,1,9,11)     =    -58.323122    -0.000000    -0.000017   -58.323140
	   79 D(2,1,9,15)     =   -179.994543     0.000000     0.000030  -179.994513
	   80 D(3,1,9,10)     =    -61.965316     0.000000     0.000021   -61.965294
	   81 D(3,1,9,11)     =   -178.628155    -0.000000    -0.000045  -178.628199
	   82 D(3,1,9,15)     =     59.700424    -0.000000     0.000003    59.700427
	   83 D(4,1,9,10)     =    178.646108     0.000000     0.000067   178.646175
	   84 D(4,1,9,11)     =     61.983269    -0.000000     0.000001    61.983270
	   85 D(4,1,9,15)     =    -59.688152     0.000000     0.000049   -59.688104
	   86 D(5,12,24,21)   =    -63.640027     0.000000    -0.000143   -63.640170
	   87 D(5,12,24,25)   =    174.690850    -0.000000    -0.000240   174.690610
	   88 D(5,12,24,26)   =     58.648229    -0.000000    -0.000176    58.648053
	   89 D(6,5,12,13)    =   -174.119600    -0.000000     0.000112  -174.119488
	   90 D(6,5,12,14)    =    -57.864779    -0.000000     0.000101   -57.864678
	   91 D(6,5,12,24)    =     64.217205     0.000000     0.000174    64.217379
	   92 D(7,5,12,13)    =     65.840714    -0.000000     0.000101    65.840815
	   93 D(7,5,12,14)    =   -177.904465    -0.000000     0.000090  -177.904375
	   94 D(7,5,12,24)    =    -55.822481     0.000000     0.000163   -55.822318
	   95 D(8,5,12,13)    =    -53.969670     0.000000     0.000135   -53.969536
	   96 D(8,5,12,14)    =     62.285150     0.000000     0.000124    62.285274
	   97 D(8,5,12,24)    =   -175.632866     0.000000     0.000197  -175.632669
	   98 D(9,15,18,19)   =     58.196885     0.000000     0.000548    58.197433
	   99 D(9,15,18,20)   =    -57.866272     0.000000     0.000561   -57.865711
	  100 D(9,15,18,21)   =   -179.898430     0.000000     0.000559  -179.897871
	  101 D(10,9,15,16)   =   -179.944951    -0.000000    -0.000653  -179.945604
	  102 D(10,9,15,17)   =     64.072274     0.000000    -0.000613    64.071662
	  103 D(10,9,15,18)   =    -57.934731    -0.000000    -0.000691   -57.935422
	  104 D(11,9,15,16)   =    -64.021981    -0.000000    -0.000615   -64.022596
	  105 D(11,9,15,17)   =    179.995244     0.000000    -0.000575   179.994669
	  106 D(11,9,15,18)   =     57.988239    -0.000000    -0.000653    57.987585
	  107 D(12,24,21,18)  =   -176.124859    -0.000000    -0.001343  -176.126203
	  108 D(12,24,21,22)  =     62.154842    -0.000000    -0.001350    62.153492
	  109 D(12,24,21,23)  =    -54.486174    -0.000000    -0.001269   -54.487443
	  110 D(13,12,24,21)  =    174.615076     0.000000    -0.000102   174.614975
	  111 D(13,12,24,25)  =     52.945953    -0.000000    -0.000199    52.945754
	  112 D(13,12,24,26)  =    -63.096668     0.000000    -0.000134   -63.096802
	  113 D(14,12,24,21)  =     58.746343     0.000000    -0.000072    58.746270
	  114 D(14,12,24,25)  =    -62.922781    -0.000000    -0.000169   -62.922950
	  115 D(14,12,24,26)  =   -178.965401     0.000000    -0.000105  -178.965506
	  116 D(15,18,21,22)  =    -57.156595     0.000000    -0.001051   -57.157646
	  117 D(15,18,21,23)  =     58.849044    -0.000000    -0.001145    58.847899
	  118 D(15,18,21,24)  =   -179.575817    -0.000000    -0.001082  -179.576899
	  119 D(16,15,18,19)  =   -179.835211     0.000000     0.000497  -179.834714
	  120 D(16,15,18,20)  =     64.101631     0.000000     0.000510    64.102142
	  121 D(16,15,18,21)  =    -57.930527     0.000000     0.000509   -57.930018
	  122 D(17,15,18,19)  =    -63.767691    -0.000000     0.000465   -63.767226
	  123 D(17,15,18,20)  =   -179.830848    -0.000000     0.000478  -179.830370
	  124 D(17,15,18,21)  =     58.136994    -0.000000     0.000476    58.137470
	  125 D(18,21,24,25)  =    -54.149767    -0.000000    -0.001242   -54.151009
	  126 D(18,21,24,26)  =     61.543353    -0.000000    -0.001319    61.542034
	  127 D(19,18,21,22)  =     64.771082    -0.000000    -0.001055    64.770026
	  128 D(19,18,21,23)  =   -179.223279    -0.000000    -0.001150  -179.224429
	  129 D(19,18,21,24)  =    -57.648140    -0.000000    -0.001087   -57.649227
	  130 D(20,18,21,22)  =   -179.191188     0.000000    -0.001000  -179.192188
	  131 D(20,18,21,23)  =    -63.185549    -0.000000    -0.001094   -63.186644
	  132 D(20,18,21,24)  =     58.389590     0.000000    -0.001031    58.388559
	  133 D(22,21,24,25)  =   -175.870065    -0.000000    -0.001248  -175.871313
	  134 D(22,21,24,26)  =    -60.176946    -0.000000    -0.001325   -60.178271
	  135 D(23,21,24,25)  =     67.488919     0.000000    -0.001167    67.487751
	  136 D(23,21,24,26)  =   -176.817962    -0.000000    -0.001244  -176.819206
	 ---------------------------------------------------------------------------

  ==> Convergence Check <==

  Measures of convergence in internal coordinates in au.
  Criteria marked as inactive (o), active & met (*), and active & unmet ( ).
  --------------------------------------------------------------------------------------------- ~
   Step     Total Energy     Delta E     MAX Force     RMS Force      MAX Disp      RMS Disp    ~
  --------------------------------------------------------------------------------------------- ~
    Convergence Criteria             o    2.00e-06 *    1.00e-06 *    6.00e-06 *    4.00e-06 *  ~
  --------------------------------------------------------------------------------------------- ~
      1    -314.98443284   -3.15e+02 o    6.97e-07 *    1.74e-07 *    2.36e-05      8.46e-06    ~
  ---------------------------------------------------------------------------------------------

	Writing optimization data to binary file.
	Structure for next step:
	Cartesian Geometry (in Angstrom)
	    C     4.2783498008  -0.5386461842   0.1026161076
	    H     5.2207195847  -0.0734921750  -0.1855186457
	    H     4.2052880404  -1.4965517601  -0.4137999867
	    H     4.3179704785  -0.7415899481   1.1735288182
	    C    -3.6721889671  -1.0545581616  -0.3121639208
	    H    -2.9669654488  -1.8428950009  -0.0520913015
	    H    -3.6705707870  -0.9498284571  -1.3985106102
	    H    -4.6648129437  -1.3874992558  -0.0099169947
	    C     3.0861422657   0.3482225504  -0.2345921874
	    H     3.0754659727   0.5610985632  -1.3068410483
	    H     3.1876557211   1.3119735841   0.2713772762
	    C    -3.3074936194   0.2674575034   0.3548983810
	    H    -4.0931976575   0.9990636105   0.1538236250
	    H    -3.2774419362   0.1351884593   1.4399718587
	    C     1.7584433014  -0.2854209763   0.1611829615
	    H     1.7665633659  -0.4986057034   1.2350350382
	    H     1.6547280890  -1.2508497554  -0.3446220411
	    C     0.5554022749   0.5880863759  -0.1696448644
	    H     0.5462889032   0.7983944583  -1.2439850151
	    H     0.6605673666   1.5544925631   0.3336452217
	    C    -0.7718619870  -0.0453973389   0.2287955139
	    H    -0.8627561455  -1.0156939233  -0.2661470980
	    H    -0.7693197192  -0.2436005819   1.3059944502
	    C    -1.9694242292   0.8325494883  -0.1160849239
	    H    -1.8190508842   1.8200901514   0.3294695938
	    H    -2.0035233059   0.9832563890  -1.2001234816
			--------------------------
			 OPTKING Finished Execution 
			--------------------------

    Structure for next step:
    Molecular point group: c1
    Full point group: C1

    Geometry (in Angstrom), charge = 0, multiplicity = 1:

    C            4.278349740956    -0.538646252962     0.102616317388
    H            5.220719524888    -0.073492243847    -0.185518435939
    H            4.205287980543    -1.496551828885    -0.413799776895
    H            4.317970418681    -0.741590016934     1.173529028013
    C           -3.672189026898    -1.054558230417    -0.312163711048
    H           -2.966965508634    -1.842895069700    -0.052091091731
    H           -3.670570846895    -0.949828525948    -1.398510400399
    H           -4.664813003576    -1.387499324630    -0.009916784933
    C            3.086142205886     0.348222481643    -0.234591977583
    H            3.075465912835     0.561098494372    -1.306840838507
    H            3.187655661211     1.311973515261     0.271377485992
    C           -3.307493679214     0.267457434571     0.354898590789
    H           -4.093197717395     0.999063541684     0.153823834744
    H           -3.277441996037     0.135188390519     1.439972068529
    C            1.758443241514    -0.285421045060     0.161183171294
    H            1.766563306063    -0.498605772220     1.235035247958
    H            1.654728029106    -1.250849824237    -0.344621831264
    C            0.555402215039     0.588086307099    -0.169644654655
    H            0.546288843339     0.798394389528    -1.243984805345
    H            0.660567306729     1.554492494283     0.333645431471
    C           -0.771862046822    -0.045397407703     0.228795723732
    H           -0.862756205329    -1.015693992073    -0.266146888194
    H           -0.769319779082    -0.243600650685     1.305994659988
    C           -1.969424289007     0.832549419497    -0.116084714136
    H           -1.819050944020     1.820090082635     0.329469803571
    H           -2.003523365744     0.983256320160    -1.200123271831

gradient() will perform analytic gradient computation.

*** tstart() called on wr40
*** at Tue Sep 20 22:47:30 2016


         ---------------------------------------------------------
                                   SCF
            by Justin Turney, Rob Parrish, and Andy Simmonett
                              RHF Reference
                       12 Threads,  60000 MiB Core
         ---------------------------------------------------------

  ==> Geometry <==

    Molecular point group: c1
    Full point group: C1

    Geometry (in Angstrom), charge = 0, multiplicity = 1:

       Center              X                  Y                   Z               Mass       
    ------------   -----------------  -----------------  -----------------  -----------------
           C          4.278349740956    -0.538646252962     0.102616317388    12.000000000000
           H          5.220719524888    -0.073492243847    -0.185518435939     1.007825032070
           H          4.205287980543    -1.496551828885    -0.413799776895     1.007825032070
           H          4.317970418681    -0.741590016934     1.173529028013     1.007825032070
           C         -3.672189026898    -1.054558230417    -0.312163711048    12.000000000000
           H         -2.966965508634    -1.842895069700    -0.052091091731     1.007825032070
           H         -3.670570846895    -0.949828525948    -1.398510400399     1.007825032070
           H         -4.664813003576    -1.387499324630    -0.009916784933     1.007825032070
           C          3.086142205886     0.348222481643    -0.234591977583    12.000000000000
           H          3.075465912835     0.561098494372    -1.306840838507     1.007825032070
           H          3.187655661211     1.311973515261     0.271377485992     1.007825032070
           C         -3.307493679214     0.267457434571     0.354898590789    12.000000000000
           H         -4.093197717395     0.999063541684     0.153823834744     1.007825032070
           H         -3.277441996037     0.135188390519     1.439972068529     1.007825032070
           C          1.758443241514    -0.285421045060     0.161183171294    12.000000000000
           H          1.766563306063    -0.498605772220     1.235035247958     1.007825032070
           H          1.654728029106    -1.250849824237    -0.344621831264     1.007825032070
           C          0.555402215039     0.588086307099    -0.169644654655    12.000000000000
           H          0.546288843339     0.798394389528    -1.243984805345     1.007825032070
           H          0.660567306729     1.554492494283     0.333645431471     1.007825032070
           C         -0.771862046822    -0.045397407703     0.228795723732    12.000000000000
           H         -0.862756205329    -1.015693992073    -0.266146888194     1.007825032070
           H         -0.769319779082    -0.243600650685     1.305994659988     1.007825032070
           C         -1.969424289007     0.832549419497    -0.116084714136    12.000000000000
           H         -1.819050944020     1.820090082635     0.329469803571     1.007825032070
           H         -2.003523365744     0.983256320160    -1.200123271831     1.007825032070

  Running in c1 symmetry.

  Rotational constants: A =      0.22730  B =      0.01849  C =      0.01778 [cm^-1]
  Rotational constants: A =   6814.24467  B =    554.18728  C =    533.12655 [MHz]
  Nuclear repulsion =  380.641431478228014

  Charge       = 0
  Multiplicity = 1
  Electrons    = 66
  Nalpha       = 33
  Nbeta        = 33

  ==> Algorithm <==

  SCF Algorithm Type is DF.
  DIIS enabled.
  MOM disabled.
  Fractional occupation disabled.
  Guess Type is READ.
  Energy threshold   = 1.00e-10
  Density threshold  = 1.00e-10
  Integral threshold = 0.00e+00

  ==> Primary Basis <==

  Basis Set: AUG-CC-PVTZ
    Number of shells: 274
    Number of basis function: 782
    Number of Cartesian functions: 890
    Spherical Harmonics?: true
    Max angular momentum: 3

  ==> Pre-Iterations <==

   -------------------------------------------------------
    Irrep   Nso     Nmo     Nalpha   Nbeta   Ndocc  Nsocc
   -------------------------------------------------------
     A        782     782       0       0       0       0
   -------------------------------------------------------
    Total     782     782      33      33      33       0
   -------------------------------------------------------

  ==> Integral Setup <==

  ==> DFJK: Density-Fitted J/K Matrices <==

    J tasked:                  Yes
    K tasked:                  Yes
    wK tasked:                  No
    OpenMP threads:             12
    Integrals threads:          12
    Memory (MB):             42915
    Algorithm:                Core
    Integral Cache:           NONE
    Schwarz Cutoff:          1E-12
    Fitting Condition:       1E-12

   => Auxiliary Basis Set <=

  Basis Set: 
    Number of shells: 492
    Number of basis function: 1660
    Number of Cartesian functions: 2038
    Spherical Harmonics?: true
    Max angular momentum: 4

  Minimum eigenvalue in the overlap matrix is 2.8817204392E-06.
  Using Symmetric Orthogonalization.
  SCF Guess: Reading in previously saved MOs, projecting if necessary.

  Using orbitals from previous SCF, no projection.
  Recomputing DOCC and SOCC from number of alpha and beta electrons from previous calculation.
              A 
    DOCC [    33 ]

  ==> Iterations <==

                           Total Energy        Delta E     RMS |[F,P]|

   @DF-RHF iter   0:  -313.54606969781742   -3.13546e+02   6.32798e-08 
   @DF-RHF iter   1:  -313.54607286407497   -3.16626e-06   1.37522e-08 
   @DF-RHF iter   2:  -313.54607286419127   -1.16302e-10   5.30491e-09 DIIS
   @DF-RHF iter   3:  -313.54607286420651   -1.52340e-11   2.42299e-09 DIIS
   @DF-RHF iter   4:  -313.54607286420992   -3.41061e-12   2.51532e-10 DIIS
   @DF-RHF iter   5:  -313.54607286420958    3.41061e-13   7.76569e-11 DIIS

  ==> Post-Iterations <==

    Orbital Energies (a.u.)
    -----------------------

    Doubly Occupied:                                                      

       1A    -11.212757     2A    -11.212367     3A    -11.210375  
       4A    -11.210213     5A    -11.209684     6A    -11.209149  
       7A    -11.206989     8A    -11.206477     9A     -1.093098  
      10A     -1.062361    11A     -1.011467    12A     -0.947168  
      13A     -0.882628    14A     -0.819306    15A     -0.784963  
      16A     -0.771051    17A     -0.654268    18A     -0.623219  
      19A     -0.611470    20A     -0.591897    21A     -0.580840  
      22A     -0.555031    23A     -0.543133    24A     -0.532732  
      25A     -0.510018    26A     -0.495441    27A     -0.487711  
      28A     -0.475868    29A     -0.465027    30A     -0.459487  
      31A     -0.456148    32A     -0.450415    33A     -0.427663  

    Virtual:                                                              

      34A      0.030833    35A      0.031418    36A      0.034755  
      37A      0.036796    38A      0.043858    39A      0.046104  
      40A      0.048398    41A      0.054599    42A      0.060910  
      43A      0.062033    44A      0.066418    45A      0.069986  
      46A      0.072074    47A      0.085446    48A      0.092192  
      49A      0.096947    50A      0.099206    51A      0.099841  
      52A      0.110565    53A      0.113723    54A      0.115327  
      55A      0.122532    56A      0.127257    57A      0.129014  
      58A      0.131135    59A      0.136364    60A      0.143157  
      61A      0.145514    62A      0.146739    63A      0.151668  
      64A      0.158052    65A      0.161640    66A      0.161860  
      67A      0.166611    68A      0.170466    69A      0.173794  
      70A      0.178623    71A      0.179170    72A      0.187735  
      73A      0.194705    74A      0.200398    75A      0.207138  
      76A      0.213941    77A      0.219042    78A      0.225471  
      79A      0.233407    80A      0.236404    81A      0.240947  
      82A      0.248964    83A      0.251159    84A      0.258502  
      85A      0.259617    86A      0.265776    87A      0.270388  
      88A      0.280217    89A      0.282278    90A      0.286627  
      91A      0.288547    92A      0.296735    93A      0.301598  
      94A      0.309185    95A      0.317617    96A      0.320218  
      97A      0.324248    98A      0.331635    99A      0.333797  
     100A      0.338042   101A      0.339888   102A      0.342642  
     103A      0.348554   104A      0.352872   105A      0.359572  
     106A      0.363018   107A      0.363907   108A      0.366315  
     109A      0.368345   110A      0.371506   111A      0.374506  
     112A      0.378757   113A      0.384237   114A      0.387112  
     115A      0.390794   116A      0.392354   117A      0.396983  
     118A      0.398723   119A      0.401354   120A      0.405611  
     121A      0.406816   122A      0.417637   123A      0.419599  
     124A      0.424766   125A      0.431617   126A      0.432961  
     127A      0.435391   128A      0.436759   129A      0.439200  
     130A      0.447189   131A      0.448179   132A      0.453344  
     133A      0.453857   134A      0.457603   135A      0.460437  
     136A      0.465131   137A      0.469302   138A      0.471102  
     139A      0.476506   140A      0.481080   141A      0.486874  
     142A      0.488061   143A      0.491870   144A      0.494414  
     145A      0.497295   146A      0.500758   147A      0.506675  
     148A      0.510906   149A      0.514717   150A      0.519224  
     151A      0.521330   152A      0.523490   153A      0.528170  
     154A      0.530657   155A      0.533792   156A      0.533962  
     157A      0.540411   158A      0.547469   159A      0.549892  
     160A      0.557928   161A      0.563008   162A      0.563425  
     163A      0.572005   164A      0.577358   165A      0.578084  
     166A      0.586234   167A      0.590371   168A      0.595967  
     169A      0.599725   170A      0.607202   171A      0.609271  
     172A      0.614688   173A      0.619215   174A      0.622655  
     175A      0.627566   176A      0.632839   177A      0.640095  
     178A      0.644672   179A      0.651888   180A      0.654225  
     181A      0.661399   182A      0.667141   183A      0.676820  
     184A      0.686716   185A      0.689390   186A      0.694494  
     187A      0.697561   188A      0.709044   189A      0.714362  
     190A      0.716932   191A      0.717683   192A      0.725013  
     193A      0.735247   194A      0.739818   195A      0.750602  
     196A      0.761461   197A      0.767066   198A      0.780923  
     199A      0.787556   200A      0.798555   201A      0.805066  
     202A      0.820711   203A      0.827321   204A      0.829549  
     205A      0.833245   206A      0.837494   207A      0.842157  
     208A      0.846931   209A      0.850759   210A      0.856952  
     211A      0.862508   212A      0.868163   213A      0.873178  
     214A      0.877258   215A      0.882547   216A      0.888334  
     217A      0.890796   218A      0.893357   219A      0.896025  
     220A      0.897833   221A      0.904187   222A      0.910830  
     223A      0.919083   224A      0.920659   225A      0.924514  
     226A      0.927037   227A      0.932230   228A      0.933822  
     229A      0.937842   230A      0.947176   231A      0.949980  
     232A      0.954379   233A      0.955909   234A      0.965074  
     235A      0.968435   236A      0.975120   237A      0.980196  
     238A      0.984345   239A      0.993304   240A      0.997431  
     241A      1.000467   242A      1.008175   243A      1.010207  
     244A      1.015801   245A      1.022009   246A      1.027184  
     247A      1.030857   248A      1.035356   249A      1.039803  
     250A      1.043939   251A      1.046645   252A      1.056733  
     253A      1.059986   254A      1.072467   255A      1.073765  
     256A      1.083627   257A      1.092155   258A      1.094389  
     259A      1.100067   260A      1.106839   261A      1.110905  
     262A      1.116335   263A      1.120841   264A      1.131357  
     265A      1.133597   266A      1.138620   267A      1.143642  
     268A      1.153687   269A      1.156601   270A      1.160124  
     271A      1.164840   272A      1.172963   273A      1.177267  
     274A      1.177732   275A      1.183555   276A      1.186212  
     277A      1.193007   278A      1.197010   279A      1.199750  
     280A      1.203269   281A      1.207189   282A      1.212009  
     283A      1.218704   284A      1.226048   285A      1.229502  
     286A      1.232998   287A      1.241042   288A      1.245168  
     289A      1.248947   290A      1.256503   291A      1.257187  
     292A      1.262725   293A      1.270185   294A      1.273118  
     295A      1.281783   296A      1.288841   297A      1.297953  
     298A      1.300035   299A      1.304560   300A      1.308350  
     301A      1.315822   302A      1.322091   303A      1.328804  
     304A      1.334323   305A      1.339293   306A      1.341811  
[...]
	 D(15,18,21,22)   =        -0.997574	     -57.156804
	 D(15,18,21,23)   =         1.027105	      58.848764
	 D(15,18,21,24)   =        -3.134194	    -179.576100
	 D(16,15,18,19)   =        -3.138723	    -179.835590
	 D(16,15,18,20)   =         1.118777	      64.101203
	 D(16,15,18,21)   =        -1.011087	     -57.931003
	 D(17,15,18,19)   =        -1.112965	     -63.768180
	 D(17,15,18,20)   =        -3.138650	    -179.831388
	 D(17,15,18,21)   =         1.014672	      58.136406
	 D(18,21,24,25)   =        -0.945105	     -54.150508
	 D(18,21,24,26)   =         1.074120	      61.542516
	 D(19,18,21,22)   =         1.130463	      64.770775
	 D(19,18,21,23)   =        -3.128043	    -179.223656
	 D(19,18,21,24)   =        -1.006156	     -57.648521
	 D(20,18,21,22)   =        -3.127480	    -179.191413
	 D(20,18,21,23)   =        -1.102801	     -63.185845
	 D(20,18,21,24)   =         1.019085	      58.389291
	 D(22,21,24,25)   =        -3.069525	    -175.870848
	 D(22,21,24,26)   =        -1.050301	     -60.177824
	 D(23,21,24,25)   =         1.177891	      67.488175
	 D(23,21,24,26)   =        -3.086070	    -176.818801

	Current energy   :      -314.9844328353

	Energy change for the previous step:
		Projected    :        -0.0000000000
		Actual       :         0.0000000024

	Performing BFGS update.
	Previous computed or guess Hessian on step 1.
	Denominators (dg)(dq) or (dq)(dq) are very small.
	 Skipping Hessian update for step 10.
	Denominators (dg)(dq) or (dq)(dq) are very small.
	 Skipping Hessian update for step 9.
	Denominators (dg)(dq) or (dq)(dq) are very small.
	 Skipping Hessian update for step 8.
	Denominators (dg)(dq) or (dq)(dq) are very small.
	 Skipping Hessian update for step 7.
	Denominators (dg)(dq) or (dq)(dq) are very small.
	 Skipping Hessian update for step 6.
	Denominators (dg)(dq) or (dq)(dq) are very small.
	 Skipping Hessian update for step 5.
	Denominators (dg)(dq) or (dq)(dq) are very small.
	 Skipping Hessian update for step 4.
	Denominators (dg)(dq) or (dq)(dq) are very small.
	 Skipping Hessian update for step 3.
	Denominators (dg)(dq) or (dq)(dq) are very small.
	 Skipping Hessian update for step 2.
	Steps to be used in Hessian update: 1
	Taking RFO optimization step.
	Going to follow RFO solution 1.
	Using RFO vector 1.
	Norm of target step-size    0.00002
	Projected energy change by RFO approximation:        -0.0000000000

	Back-transformation to cartesian coordinates...
	Successfully converged to displaced geometry.

	--- Internal Coordinate Step in ANG or DEG, aJ/ANG or AJ/DEG ---
	 ---------------------------------------------------------------------------
	   Coordinate                Previous        Force       Change         New 
	   ----------                --------       ------       ------       ------
	    1 R(1,2)          =      1.089702    -0.000002     0.000000     1.089702
	    2 R(1,3)          =      1.090691    -0.000004     0.000000     1.090691
	    3 R(1,4)          =      1.090693    -0.000004     0.000000     1.090693
	    4 R(1,9)          =      1.523681    -0.000001     0.000000     1.523681
	    5 R(5,6)          =      1.089244    -0.000003     0.000000     1.089244
	    6 R(5,7)          =      1.091384    -0.000002     0.000000     1.091384
	    7 R(5,8)          =      1.089727    -0.000002     0.000000     1.089727
	    8 R(5,12)         =      1.525025     0.000000     0.000000     1.525025
	    9 R(9,10)         =      1.093228    -0.000005     0.000000     1.093229
	   10 R(9,11)         =      1.093218    -0.000005     0.000000     1.093219
	   11 R(9,15)         =      1.523459    -0.000001    -0.000000     1.523459
	   12 R(12,13)        =      1.092249    -0.000002     0.000000     1.092250
	   13 R(12,14)        =      1.093518    -0.000002     0.000000     1.093518
	   14 R(12,24)        =      1.526952     0.000002     0.000000     1.526952
	   15 R(15,16)        =      1.094839    -0.000009    -0.000000     1.094839
	   16 R(15,17)        =      1.094828    -0.000010    -0.000000     1.094828
	   17 R(15,18)        =      1.523079    -0.000003    -0.000000     1.523079
	   18 R(18,19)        =      1.094769    -0.000007     0.000000     1.094769
	   19 R(18,20)        =      1.094669    -0.000007     0.000000     1.094669
	   20 R(18,21)        =      1.523708     0.000001     0.000000     1.523708
	   21 R(21,22)        =      1.093025    -0.000006    -0.000000     1.093025
	   22 R(21,23)        =      1.095284    -0.000006     0.000000     1.095284
	   23 R(21,24)        =      1.524430     0.000003     0.000000     1.524430
	   24 R(24,25)        =      1.093785    -0.000003     0.000000     1.093786
	   25 R(24,26)        =      1.094995    -0.000003     0.000000     1.094995
	   26 B(1,9,10)       =    109.757803    -0.000000    -0.000003   109.757801
	   27 B(1,9,11)       =    109.757526    -0.000000    -0.000006   109.757519
	   28 B(1,9,15)       =    112.477665     0.000000     0.000032   112.477697
	   29 B(2,1,3)        =    107.916476     0.000000     0.000002   107.916478
	   30 B(2,1,4)        =    107.916596     0.000000    -0.000001   107.916595
	   31 B(2,1,9)        =    111.696163    -0.000000    -0.000015   111.696149
	   32 B(3,1,4)        =    107.692413     0.000000     0.000008   107.692422
	   33 B(3,1,9)        =    110.731844    -0.000000     0.000004   110.731848
	   34 B(4,1,9)        =    110.733651    -0.000000     0.000002   110.733654
	   35 B(5,12,13)      =    109.153649    -0.000000    -0.000007   109.153642
	   36 B(5,12,14)      =    109.618100    -0.000000    -0.000005   109.618095
	   37 B(5,12,24)      =    113.294385     0.000000     0.000005   113.294391
	   38 B(6,5,7)        =    107.827561     0.000000     0.000000   107.827562
	   39 B(6,5,8)        =    107.601972     0.000000    -0.000001   107.601971
	   40 B(6,5,12)       =    111.600643    -0.000000    -0.000012   111.600631
	   41 B(7,5,8)        =    107.863412    -0.000000     0.000004   107.863416
	   42 B(7,5,12)       =    110.600548    -0.000000     0.000011   110.600560
	   43 B(8,5,12)       =    111.184158     0.000000    -0.000003   111.184155
	   44 B(9,15,16)      =    109.228254     0.000000     0.000025   109.228280
	   45 B(9,15,17)      =    109.226517     0.000000     0.000026   109.226543
	   46 B(9,15,18)      =    113.167023    -0.000000    -0.000080   113.166943
	   47 B(10,9,11)      =    106.450596     0.000000     0.000007   106.450604
	   48 B(10,9,15)      =    109.103833    -0.000000    -0.000018   109.103815
	   49 B(11,9,15)      =    109.108458    -0.000000    -0.000013   109.108445
	   50 B(12,24,21)     =    113.921727     0.000000    -0.000029   113.921698
	   51 B(12,24,25)     =    109.205535    -0.000000     0.000002   109.205537
	   52 B(12,24,26)     =    109.208489     0.000000     0.000005   109.208494
	   53 B(13,12,14)     =    106.466713     0.000000     0.000007   106.466720
	   54 B(13,12,24)     =    109.007709    -0.000000    -0.000001   109.007709
	   55 B(14,12,24)     =    109.071370    -0.000000     0.000001   109.071371
	   56 B(15,18,19)     =    109.263045    -0.000000     0.000014   109.263058
	   57 B(15,18,20)     =    109.303233    -0.000000     0.000000   109.303233
	   58 B(15,18,21)     =    113.128817     0.000000    -0.000021   113.128796
	   59 B(16,15,17)     =    106.387806    -0.000000     0.000011   106.387817
	   60 B(16,15,18)     =    109.303850     0.000000     0.000006   109.303856
	   61 B(17,15,18)     =    109.302302     0.000000     0.000017   109.302318
	   62 B(18,21,22)     =    108.850336    -0.000000    -0.000025   108.850311
	   63 B(18,21,23)     =    109.292332    -0.000000    -0.000017   109.292315
	   64 B(18,21,24)     =    112.687267     0.000000     0.000050   112.687317
	   65 B(19,18,20)     =    106.402961     0.000000     0.000023   106.402984
	   66 B(19,18,21)     =    109.222019    -0.000000     0.000008   109.222027
	   67 B(20,18,21)     =    109.298939    -0.000000    -0.000021   109.298918
	   68 B(21,24,25)     =    108.651826    -0.000000     0.000014   108.651839
	   69 B(21,24,26)     =    109.129310    -0.000000    -0.000002   109.129308
	   70 B(22,21,23)     =    106.552490     0.000000    -0.000012   106.552479
	   71 B(22,21,24)     =    110.089093     0.000000    -0.000009   110.089085
	   72 B(23,21,24)     =    109.180266    -0.000000     0.000009   109.180275
	   73 B(25,24,26)     =    106.456795     0.000000     0.000013   106.456808
	   74 D(1,9,15,16)    =     58.018059     0.000000    -0.000131    58.017928
	   75 D(1,9,15,17)    =    -57.964637    -0.000000    -0.000173   -57.964809
	   76 D(1,9,15,18)    =   -179.971669    -0.000000    -0.000159  -179.971827
	   77 D(2,1,9,10)     =     58.339727     0.000000     0.000023    58.339750
	   78 D(2,1,9,11)     =    -58.323151    -0.000000     0.000020   -58.323132
	   79 D(2,1,9,15)     =   -179.994566     0.000000     0.000019  -179.994547
	   80 D(3,1,9,10)     =    -61.965324     0.000000     0.000028   -61.965296
	   81 D(3,1,9,11)     =   -178.628202    -0.000000     0.000025  -178.628177
	   82 D(3,1,9,15)     =     59.700383     0.000000     0.000025    59.700407
	   83 D(4,1,9,10)     =    178.646162     0.000000     0.000014   178.646176
	   84 D(4,1,9,11)     =     61.983284    -0.000000     0.000010    61.983295
	   85 D(4,1,9,15)     =    -59.688131     0.000000     0.000010   -59.688121
	   86 D(5,12,24,21)   =    -63.640426    -0.000000     0.000088   -63.640338
	   87 D(5,12,24,25)   =    174.690429    -0.000000     0.000089   174.690518
	   88 D(5,12,24,26)   =     58.647888    -0.000000     0.000070    58.647958
	   89 D(6,5,12,13)    =   -174.119758     0.000000     0.000055  -174.119704
	   90 D(6,5,12,14)    =    -57.864960     0.000000     0.000057   -57.864903
	   91 D(6,5,12,24)    =     64.217083     0.000000     0.000057    64.217140
	   92 D(7,5,12,13)    =     65.840536     0.000000     0.000054    65.840590
	   93 D(7,5,12,14)    =   -177.904666     0.000000     0.000056  -177.904609
	   94 D(7,5,12,24)    =    -55.822623     0.000000     0.000057   -55.822566
	   95 D(8,5,12,13)    =    -53.969800     0.000000     0.000043   -53.969757
	   96 D(8,5,12,14)    =     62.284998    -0.000000     0.000045    62.285043
	   97 D(8,5,12,24)    =   -175.632960     0.000000     0.000046  -175.632914
	   98 D(9,15,18,19)   =     58.196441     0.000000     0.000307    58.196748
	   99 D(9,15,18,20)   =    -57.866767     0.000000     0.000272   -57.866495
	  100 D(9,15,18,21)   =   -179.898973     0.000000     0.000313  -179.898660
	  101 D(10,9,15,16)   =   -179.944902     0.000000    -0.000126  -179.945029
	  102 D(10,9,15,17)   =     64.072402    -0.000000    -0.000168    64.072234
	  103 D(10,9,15,18)   =    -57.934630    -0.000000    -0.000154   -57.934784
	  104 D(11,9,15,16)   =    -64.021886     0.000000    -0.000135   -64.022021
	  105 D(11,9,15,17)   =    179.995418    -0.000000    -0.000177   179.995242
	  106 D(11,9,15,18)   =     57.988386    -0.000000    -0.000163    57.988224
	  107 D(12,24,21,18)  =   -176.125647     0.000000     0.000111  -176.125536
	  108 D(12,24,21,22)  =     62.154013     0.000000     0.000116    62.154129
	  109 D(12,24,21,23)  =    -54.486964     0.000000     0.000130   -54.486834
	  110 D(13,12,24,21)  =    174.614692    -0.000000     0.000094   174.614786
	  111 D(13,12,24,25)  =     52.945547     0.000000     0.000095    52.945642
	  112 D(13,12,24,26)  =    -63.096994    -0.000000     0.000076   -63.096918
	  113 D(14,12,24,21)  =     58.746012    -0.000000     0.000086    58.746098
	  114 D(14,12,24,25)  =    -62.923132     0.000000     0.000086   -62.923046
	  115 D(14,12,24,26)  =   -178.965674    -0.000000     0.000067  -178.965606
	  116 D(15,18,21,22)  =    -57.156804    -0.000000    -0.000010   -57.156814
	  117 D(15,18,21,23)  =     58.848764    -0.000000    -0.000048    58.848717
	  118 D(15,18,21,24)  =   -179.576100    -0.000000    -0.000015  -179.576115
	  119 D(16,15,18,19)  =   -179.835590    -0.000000     0.000289  -179.835301
	  120 D(16,15,18,20)  =     64.101203    -0.000000     0.000254    64.101457
	  121 D(16,15,18,21)  =    -57.931003     0.000000     0.000295   -57.930708
	  122 D(17,15,18,19)  =    -63.768180     0.000000     0.000315   -63.767865
	  123 D(17,15,18,20)  =   -179.831388     0.000000     0.000280  -179.831107
	  124 D(17,15,18,21)  =     58.136406     0.000000     0.000322    58.136728
	  125 D(18,21,24,25)  =    -54.150508     0.000000     0.000104   -54.150404
	  126 D(18,21,24,26)  =     61.542516    -0.000000     0.000126    61.542642
	  127 D(19,18,21,22)  =     64.770775     0.000000    -0.000001    64.770774
	  128 D(19,18,21,23)  =   -179.223656    -0.000000    -0.000038  -179.223695
	  129 D(19,18,21,24)  =    -57.648521    -0.000000    -0.000005   -57.648526
	  130 D(20,18,21,22)  =   -179.191413     0.000000     0.000019  -179.191394
	  131 D(20,18,21,23)  =    -63.185845    -0.000000    -0.000018   -63.185863
	  132 D(20,18,21,24)  =     58.389291    -0.000000     0.000015    58.389305
	  133 D(22,21,24,25)  =   -175.870848     0.000000     0.000109  -175.870739
	  134 D(22,21,24,26)  =    -60.177824     0.000000     0.000131   -60.177693
	  135 D(23,21,24,25)  =     67.488175     0.000000     0.000123    67.488298
	  136 D(23,21,24,26)  =   -176.818801    -0.000000     0.000144  -176.818657
	 ---------------------------------------------------------------------------

  ==> Convergence Check <==

  Measures of convergence in internal coordinates in au.
  Criteria marked as inactive (o), active & met (*), and active & unmet ( ).
  ---------------------------------------------------------------------------------------------
   Step     Total Energy     Delta E     MAX Force     RMS Force      MAX Disp      RMS Disp   
  ---------------------------------------------------------------------------------------------
    Convergence Criteria             o    2.00e-06 *    1.00e-06 *    6.00e-06 *    4.00e-06 *
  ---------------------------------------------------------------------------------------------
     11    -314.98443284    2.35e-09 o    1.16e-06 *    2.62e-07 *    5.61e-06 *    1.67e-06 *  ~
  ---------------------------------------------------------------------------------------------


  **** Optimization is complete! (in 11 steps) ****

  ==> Optimization Summary <==

  Measures of convergence in internal coordinates in au.
  --------------------------------------------------------------------------------------------------------------- ~
   Step         Total Energy             Delta E       MAX Force       RMS Force        MAX Disp        RMS Disp  ~
  --------------------------------------------------------------------------------------------------------------- ~
      1    -314.984432837429   -314.984432837429      0.00000070      0.00000017      0.00002356      0.00000846  ~
      2    -314.984432839687     -0.000000002258      0.00000116      0.00000033      0.00007330      0.00001900  ~
      3    -314.984432841185     -0.000000001497      0.00000085      0.00000021      0.00006160      0.00001680  ~
      4    -314.984432841123      0.000000000062      0.00000101      0.00000026      0.00002845      0.00000862  ~
      5    -314.984432836772      0.000000004351      0.00000129      0.00000030      0.00004166      0.00001099  ~
      6    -314.984432842526     -0.000000005754      0.00000131      0.00000034      0.00005745      0.00001660  ~
      7    -314.984432840103      0.000000002423      0.00000289      0.00000068      0.00006228      0.00001882  ~
      8    -314.984432844133     -0.000000004030      0.00000018      0.00000004      0.00001004      0.00000341  ~
      9    -314.984432842507      0.000000001626      0.00000086      0.00000019      0.00001332      0.00000427  ~
     10    -314.984432837657      0.000000004850      0.00000172      0.00000046      0.00000689      0.00000238  ~
     11    -314.984432835302      0.000000002355      0.00000116      0.00000026      0.00000561      0.00000167  ~
  --------------------------------------------------------------------------------------------------------------- ~

	Writing optimization data to binary file.
	Final energy is   -314.9844328353025
	Final (previous) structure:
	Cartesian Geometry (in Angstrom)
	    C     4.2783455820  -0.5386587016   0.1026003922
	    H     5.2207168141  -0.0735123898  -0.1855423666
	    H     4.2052683080  -1.4965605434  -0.4138210028
	    H     4.3179764983  -0.7416097509   1.1735115044
	    C    -3.6721850094  -1.0545663073  -0.3121657793
	    H    -2.9669580768  -1.8428990580  -0.0520905130
	    H    -3.6705692140  -0.9498420026  -1.3985128547
	    H    -4.6648070229  -1.3875099415  -0.0099155243
	    C     3.0861426467   0.3482237502  -0.2345887995
	    H     3.0754568103   0.5611066433  -1.3068363957
	    H     3.1876707775   1.3119709489   0.2713852960
	    C    -3.3074940431   0.2674543562   0.3548888766
	    H    -4.0931988707   0.9990574316   0.1538077058
	    H    -3.2774448497   0.1351924528   1.4399629173
	    C     1.7584424607  -0.2854107953   0.1611971700
	    H     1.7665671021  -0.4985909781   1.2350502498
	    H     1.6547200721  -1.2508417235  -0.3446027969
	    C     0.5554025407   0.5880984247  -0.1696282740
	    H     0.5462931052   0.7984149664  -1.2439666404
	    H     0.6605632687   1.5545004841   0.3336699548
	    C    -0.7718610560  -0.0453923396   0.2288005360
	    H    -0.8627441878  -1.0156909182  -0.2661395177
	    H    -0.7693279317  -0.2435912761   1.3059997378
	    C    -1.9694246643   0.8325461168  -0.1160940830
	    H    -1.8190565974   1.8200908994   0.3294520243
	    H    -2.0035195313   0.9832433340  -1.2001337419
	Saving final (previous) structure.
			--------------------------
			 OPTKING Finished Execution 
			--------------------------

    Final optimized geometry and variables:
    Molecular point group: c1
    Full point group: C1

    Geometry (in Angstrom), charge = 0, multiplicity = 1:

    C            4.278345582020    -0.538658701622     0.102600392206
    H            5.220716814110    -0.073512389847    -0.185542366576
    H            4.205268308020    -1.496560543363    -0.413821002816
    H            4.317976498252    -0.741609750931     1.173511504362
    C           -3.672185009403    -1.054566307283    -0.312165779320
    H           -2.966958076823    -1.842899058034    -0.052090512992
    H           -3.670569213981    -0.949842002600    -1.398512854686
    H           -4.664807022939    -1.387509941482    -0.009915524287
    C            3.086142646703     0.348223750229    -0.234588799493
    H            3.075456810334     0.561106643283    -1.306836395660
    H            3.187670777491     1.311970948867     0.271385295951
    C           -3.307494043086     0.267454356177     0.354888876646
    H           -4.093198870748     0.999057431572     0.153807705787
    H           -3.277444849736     0.135192452769     1.439962917325
    C            1.758442460729    -0.285410795304     0.161197170010
    H            1.766567102105    -0.498590978129     1.235050249775
    H            1.654720072109    -1.250841723480    -0.344602796923
    C            0.555402540735     0.588098424729    -0.169628274014
    H            0.546293105166     0.798414966445    -1.243966640401
    H            0.660563268717     1.554500484074     0.333669954773
    C           -0.771861055976    -0.045392339646     0.228800536019
    H           -0.862744187780    -1.015690918174    -0.266139517670
    H           -0.769327931672    -0.243591276069     1.305999737769
    C           -1.969424664287     0.832546116755    -0.116094082968
    H           -1.819056597441     1.820090899406     0.329452024265
    H           -2.003519531334     0.983243334025    -1.200133741929

	Cleaning optimization helper files.

*** Psi4 exiting successfully. Buy a developer a beer!
