    -----------------------------------------------------------------------
          Psi4: An Open-Source Ab Initio Electronic Structure Package
                              Psi4 1.0.0 Driver

                          Git: Rev {master} 6a9a71b dirty

    J. M. Turney, A. C. Simmonett, R. M. Parrish, E. G. Hohenstein,
    F. A. Evangelista, J. T. Fermann, B. J. Mintz, L. A. Burns, J. J. Wilke,
    M. L. Abrams, N. J. Russ, M. L. Leininger, C. L. Janssen, E. T. Seidl,
    W. D. Allen, H. F. Schaefer, R. A. King, E. F. Valeev, C. D. Sherrill,
    and T. D. Crawford, WIREs Comput. Mol. Sci. 2, 556-565 (2012)
    (doi: 10.1002/wcms.93)

                         Additional Contributions by
    A. E. DePrince, U. Bozkaya, A. Yu. Sokolov, D. G. A. Smith, R. Di Remigio,
    R. M. Richard, J. F. Gonthier, H. R. McAlexander, M. Saitow, and
    B. P. Pritchard
    -----------------------------------------------------------------------


    Psi4 started on: Tue Sep 20 16:43:06 2016

    Process ID:  24338
    PSI4DATADIR: /usr/local/hpc5/psi4conda/share/psi4
    Memory level set to 256.000 MB

  ==> Input File <==

--------------------------------------------------------------------------
memory 30 Gb

molecule molecule_56_psi {
0 1
symmetry c1
    C            3.380595553711    -1.146402535793    -0.120133062840
    H            4.189977334186    -0.505108896726    -0.465445550983
    H            2.984710078009    -1.674964475701    -0.985744365275
    H            3.801866119225    -1.883289271923     0.559863871426
    C           -3.604315536600    -0.265230099942     0.275262304018
    H           -3.645640683938     0.792557328988     0.029354662130
    H           -3.526006935207    -0.354942295685     1.357917449298
    H           -4.548643649263    -0.710401656285    -0.029823534720
    C            2.293961048411    -0.325083223341     0.546663329581
    H            2.693998518246     0.167241786450     1.434648772069
    H            1.494406000159    -0.978752734285     0.892647489956
    C           -2.431899938735    -0.951958238734    -0.403299976391
    H           -2.498551806369    -2.026544158835    -0.231781225989
    H           -2.496910509757    -0.805552655798    -1.483210713271
    C            1.724195575684     0.739053993207    -0.376469270158
    H            1.413512730197     0.273311251938    -1.315642109227
    H            2.527872685259     1.430616453953    -0.633395008900
    C            0.545367012297     1.506722692043     0.222362093251
    H            0.622193087579     2.563069402216    -0.035017740597
    H            0.600623476406     1.450656037958     1.312157987354
    C           -0.816519059179     1.002184915159    -0.233348131433
    H           -1.589009818796     1.618153172675     0.227365478438
    H           -0.902482210719     1.147892358711    -1.313693355839
    C           -1.076597375632    -0.459995093976     0.080535650317
    H           -0.298897361040    -1.070076198499    -0.380068794829
    H           -0.999086663320    -0.616123148208     1.160206292190
}

set globals {
  reference rhf
  g_convergence gau_verytight
  basis aug-cc-pvtz
  freeze_core true
  scf_type df
  mp_type df
}
optimize('mp2')
--------------------------------------------------------------------------
/usr/local/hpc5/psi4conda/lib/python2.7/site-packages/v2rdm_casscf/v2rdm_casscf.so loaded.

  Memory set to  30.000 GiB by Python script.
gradient() will perform analytic gradient computation.

*** tstart() called on wr22
*** at Tue Sep 20 16:43:07 2016


         ---------------------------------------------------------
                                   SCF
            by Justin Turney, Rob Parrish, and Andy Simmonett
                              RHF Reference
                       12 Threads,  30000 MiB Core
         ---------------------------------------------------------

  ==> Geometry <==

    Molecular point group: c1
    Full point group: C1

    Geometry (in Angstrom), charge = 0, multiplicity = 1:

       Center              X                  Y                   Z               Mass       
    ------------   -----------------  -----------------  -----------------  -----------------
           C          3.380595553711    -1.146402535793    -0.120133062840    12.000000000000
           H          4.189977334186    -0.505108896726    -0.465445550983     1.007825032070
           H          2.984710078009    -1.674964475701    -0.985744365275     1.007825032070
           H          3.801866119225    -1.883289271923     0.559863871426     1.007825032070
           C         -3.604315536600    -0.265230099942     0.275262304018    12.000000000000
           H         -3.645640683938     0.792557328988     0.029354662130     1.007825032070
           H         -3.526006935207    -0.354942295685     1.357917449298     1.007825032070
           H         -4.548643649263    -0.710401656285    -0.029823534720     1.007825032070
           C          2.293961048411    -0.325083223341     0.546663329581    12.000000000000
           H          2.693998518246     0.167241786450     1.434648772069     1.007825032070
           H          1.494406000159    -0.978752734285     0.892647489956     1.007825032070
           C         -2.431899938735    -0.951958238734    -0.403299976391    12.000000000000
           H         -2.498551806369    -2.026544158835    -0.231781225989     1.007825032070
           H         -2.496910509757    -0.805552655798    -1.483210713271     1.007825032070
           C          1.724195575684     0.739053993207    -0.376469270158    12.000000000000
           H          1.413512730197     0.273311251938    -1.315642109227     1.007825032070
           H          2.527872685259     1.430616453953    -0.633395008900     1.007825032070
           C          0.545367012297     1.506722692043     0.222362093251    12.000000000000
           H          0.622193087579     2.563069402216    -0.035017740597     1.007825032070
           H          0.600623476406     1.450656037958     1.312157987354     1.007825032070
           C         -0.816519059179     1.002184915159    -0.233348131433    12.000000000000
           H         -1.589009818796     1.618153172675     0.227365478438     1.007825032070
           H         -0.902482210719     1.147892358711    -1.313693355839     1.007825032070
           C         -1.076597375632    -0.459995093976     0.080535650317    12.000000000000
           H         -0.298897361040    -1.070076198499    -0.380068794829     1.007825032070
           H         -0.999086663320    -0.616123148208     1.160206292190     1.007825032070

  Running in c1 symmetry.

  Rotational constants: A =      0.12718  B =      0.02644  C =      0.02343 [cm^-1]
  Rotational constants: A =   3812.63355  B =    792.79188  C =    702.48444 [MHz]
  Nuclear repulsion =  395.710944373275197

  Charge       = 0
  Multiplicity = 1
  Electrons    = 66
  Nalpha       = 33
  Nbeta        = 33

  ==> Algorithm <==

  SCF Algorithm Type is DF.
  DIIS enabled.
  MOM disabled.
  Fractional occupation disabled.
  Guess Type is SAD.
  Energy threshold   = 1.00e-10
  Density threshold  = 1.00e-10
  Integral threshold = 0.00e+00

  ==> Primary Basis <==

  Basis Set: AUG-CC-PVTZ
    Number of shells: 274
    Number of basis function: 782
    Number of Cartesian functions: 890
    Spherical Harmonics?: true
    Max angular momentum: 3

  ==> Pre-Iterations <==

   -------------------------------------------------------
    Irrep   Nso     Nmo     Nalpha   Nbeta   Ndocc  Nsocc
   -------------------------------------------------------
     A        782     782       0       0       0       0
   -------------------------------------------------------
    Total     782     782      33      33      33       0
   -------------------------------------------------------

  ==> Integral Setup <==

  ==> DFJK: Density-Fitted J/K Matrices <==

    J tasked:                  Yes
    K tasked:                  Yes
    wK tasked:                  No
    OpenMP threads:             12
    Integrals threads:          12
    Memory (MB):             21457
    Algorithm:                Core
    Integral Cache:           NONE
    Schwarz Cutoff:          1E-12
    Fitting Condition:       1E-12

   => Auxiliary Basis Set <=

  Basis Set: 
    Number of shells: 492
    Number of basis function: 1660
    Number of Cartesian functions: 2038
    Spherical Harmonics?: true
    Max angular momentum: 4

  Minimum eigenvalue in the overlap matrix is 1.7811144791E-06.
  Using Symmetric Orthogonalization.
  SCF Guess: Superposition of Atomic Densities via on-the-fly atomic UHF.

  ==> Iterations <==

                           Total Energy        Delta E     RMS |[F,P]|

   @DF-RHF iter   0:  -316.97346578853580   -3.16973e+02   7.03814e-03 
   @DF-RHF iter   1:  -313.28250146394657    3.69096e+00   7.41309e-04 
   @DF-RHF iter   2:  -313.50521946663594   -2.22718e-01   2.68161e-04 DIIS
   @DF-RHF iter   3:  -313.53316362150008   -2.79442e-02   1.00266e-04 DIIS
   @DF-RHF iter   4:  -313.53823279254971   -5.06917e-03   1.63202e-05 DIIS
   @DF-RHF iter   5:  -313.53840717389460   -1.74381e-04   4.68197e-06 DIIS
   @DF-RHF iter   6:  -313.53841913335702   -1.19595e-05   1.28785e-06 DIIS
   @DF-RHF iter   7:  -313.53842016226542   -1.02891e-06   2.36703e-07 DIIS
   @DF-RHF iter   8:  -313.53842020378136   -4.15159e-08   6.22019e-08 DIIS
   @DF-RHF iter   9:  -313.53842020633681   -2.55545e-09   1.95024e-08 DIIS
   @DF-RHF iter  10:  -313.53842020657851   -2.41698e-10   5.77571e-09 DIIS
   @DF-RHF iter  11:  -313.53842020659988   -2.13731e-11   1.38434e-09 DIIS
   @DF-RHF iter  12:  -313.53842020660306   -3.18323e-12   4.32950e-10 DIIS
   @DF-RHF iter  13:  -313.53842020660113    1.93268e-12   1.20471e-10 DIIS
   @DF-RHF iter  14:  -313.53842020660159   -4.54747e-13   2.72848e-11 DIIS

  ==> Post-Iterations <==

    Orbital Energies (a.u.)
    -----------------------

    Doubly Occupied:                                                      

       1A    -11.211203     2A    -11.209314     3A    -11.208755  
       4A    -11.208399     5A    -11.207912     6A    -11.207686  
       7A    -11.205226     8A    -11.205134     9A     -1.097553  
      10A     -1.061958    11A     -1.012055    12A     -0.945974  
      13A     -0.890511    14A     -0.824830    15A     -0.786035  
      16A     -0.764863    17A     -0.651256    18A     -0.622865  
      19A     -0.610609    20A     -0.598106    21A     -0.580482  
      22A     -0.562267    23A     -0.548526    24A     -0.530356  
      25A     -0.519928    26A     -0.496396    27A     -0.484821  
      28A     -0.475186    29A     -0.468181    30A     -0.461889  
      31A     -0.452018    32A     -0.435578    33A     -0.432602  

    Virtual:                                                              

      34A      0.029865    35A      0.032923    36A      0.033380  
      37A      0.035368    38A      0.046023    39A      0.047784  
      40A      0.049800    41A      0.053874    42A      0.056148  
      43A      0.065401    44A      0.067429    45A      0.072434  
      46A      0.073125    47A      0.079193    48A      0.083140  
      49A      0.092282    50A      0.095261    51A      0.104368  
      52A      0.113503    53A      0.114592    54A      0.119167  
      55A      0.123451    56A      0.127911    57A      0.129881  
      58A      0.133294    59A      0.138809    60A      0.140363  
      61A      0.143784    62A      0.151625    63A      0.153079  
      64A      0.155812    65A      0.157941    66A      0.159471  
      67A      0.164167    68A      0.169051    69A      0.172881  
      70A      0.175721    71A      0.180390    72A      0.181574  
      73A      0.185491    74A      0.188556    75A      0.199017  
      76A      0.200592    77A      0.214136    78A      0.216507  
      79A      0.233841    80A      0.235679    81A      0.244063  
      82A      0.247293    83A      0.251849    84A      0.253734  
      85A      0.267164    86A      0.270454    87A      0.276717  
      88A      0.282199    89A      0.286714    90A      0.291855  
      91A      0.298466    92A      0.306104    93A      0.312070  
      94A      0.314850    95A      0.319085    96A      0.322161  
      97A      0.324215    98A      0.329909    99A      0.331156  
     100A      0.335030   101A      0.341781   102A      0.345620  
     103A      0.348381   104A      0.354337   105A      0.355339  
     106A      0.361911   107A      0.364554   108A      0.365603  
     109A      0.366893   110A      0.370747   111A      0.375894  
     112A      0.377001   113A      0.383703   114A      0.384877  
     115A      0.390268   116A      0.392439   117A      0.394214  
     118A      0.396784   119A      0.405445   120A      0.413022  
     121A      0.415303   122A      0.419259   123A      0.425681  
     124A      0.431083   125A      0.433826   126A      0.438259  
     127A      0.440294   128A      0.443550   129A      0.449174  
     130A      0.451362   131A      0.456955   132A      0.458521  
     133A      0.463373   134A      0.466031   135A      0.469350  
     136A      0.472294   137A      0.477737   138A      0.480784  
     139A      0.483636   140A      0.487072   141A      0.495877  
     142A      0.496896   143A      0.498758   144A      0.501299  
     145A      0.506904   146A      0.508357   147A      0.514353  
     148A      0.520924   149A      0.523983   150A      0.526665  
     151A      0.529505   152A      0.536091   153A      0.536956  
     154A      0.543609   155A      0.548513   156A      0.550884  
     157A      0.556476   158A      0.558240   159A      0.564156  
     160A      0.568562   161A      0.572642   162A      0.579594  
     163A      0.585211   164A      0.585871   165A      0.595009  
     166A      0.603240   167A      0.603597   168A      0.607913  
     169A      0.611150   170A      0.619054   171A      0.621159  
     172A      0.624531   173A      0.632855   174A      0.635965  
     175A      0.641759   176A      0.643889   177A      0.651838  
     178A      0.653380   179A      0.656408   180A      0.665599  
     181A      0.670616   182A      0.674751   183A      0.684501  
     184A      0.686274   185A      0.689731   186A      0.694601  
     187A      0.705056   188A      0.710089   189A      0.715719  
     190A      0.721275   191A      0.729589   192A      0.733796  
     193A      0.743794   194A      0.749699   195A      0.753480  
     196A      0.758778   197A      0.764050   198A      0.767786  
     199A      0.775939   200A      0.782417   201A      0.804075  
     202A      0.812618   203A      0.819254   204A      0.825214  
     205A      0.833984   206A      0.839841   207A      0.847097  
     208A      0.851378   209A      0.855678   210A      0.864814  
     211A      0.869076   212A      0.874016   213A      0.878416  
     214A      0.889908   215A      0.895110   216A      0.898569  
     217A      0.901215   218A      0.903610   219A      0.906640  
     220A      0.909307   221A      0.915824   222A      0.918423  
     223A      0.925071   224A      0.928211   225A      0.934898  
     226A      0.943427   227A      0.945567   228A      0.951356  
     229A      0.953081   230A      0.957084   231A      0.964799  
     232A      0.965433   233A      0.972298   234A      0.976008  
     235A      0.981010   236A      0.988695   237A      0.993775  
     238A      0.997416   239A      1.003586   240A      1.005824  
     241A      1.014434   242A      1.016286   243A      1.019730  
     244A      1.023582   245A      1.032246   246A      1.037289  
     247A      1.043698   248A      1.047910   249A      1.056255  
     250A      1.061744   251A      1.064526   252A      1.077632  
     253A      1.081779   254A      1.086506   255A      1.087370  
     256A      1.093587   257A      1.096945   258A      1.106301  
     259A      1.112018   260A      1.113540   261A      1.115290  
     262A      1.123129   263A      1.126592   264A      1.132070  
     265A      1.146257   266A      1.150486   267A      1.154051  
     268A      1.156521   269A      1.168502   270A      1.168859  
     271A      1.175004   272A      1.179367   273A      1.185007  
     274A      1.189199   275A      1.192920   276A      1.197576  
     277A      1.202941   278A      1.206893   279A      1.218731  
     280A      1.219132   281A      1.222414   282A      1.232872  
     283A      1.235600   284A      1.237729   285A      1.243657  
     286A      1.253019   287A      1.263013   288A      1.266091  
     289A      1.275838   290A      1.276834   291A      1.284100  
     292A      1.288550   293A      1.294107   294A      1.296171  
     295A      1.303239   296A      1.306526   297A      1.314903  
     298A      1.317134   299A      1.329143   300A      1.332990  
     301A      1.335410   302A      1.345055   303A      1.355549  
     304A      1.366091   305A      1.368236   306A      1.374798  
     307A      1.376361   308A      1.385987   309A      1.391356  
     310A      1.398344   311A      1.404740   312A      1.417314  
     313A      1.421466   314A      1.427606   315A      1.438803  
     316A      1.452073   317A      1.453796   318A      1.461205  
     319A      1.465426   320A      1.470636   321A      1.476829  
     322A      1.485133   323A      1.491846   324A      1.499807  
     325A      1.506686   326A      1.513625   327A      1.517742  
     328A      1.521729   329A      1.532157   330A      1.550756  
     331A      1.550863   332A      1.557458   333A      1.564468  
     334A      1.580722   335A      1.582323   336A      1.604086  
     337A      1.609579   338A      1.621888   339A      1.628289  
     340A      1.633574   341A      1.637757   342A      1.645250  
     343A      1.647693   344A      1.655794   345A      1.663963  
     346A      1.671933   347A      1.674866   348A      1.681066  
     349A      1.685262   350A      1.691003   351A      1.694864  
     352A      1.701479   353A      1.709539   354A      1.711655  
     355A      1.714153   356A      1.724209   357A      1.728485  
     358A      1.732101   359A      1.734114   360A      1.738105  
     361A      1.745852   362A      1.750707   363A      1.758874  
     364A      1.767353   365A      1.773277   366A      1.776302  
     367A      1.779352   368A      1.791518   369A      1.795673  
     370A      1.803382   371A      1.812075   372A      1.819752  
     373A      1.822733   374A      1.825432   375A      1.833357  
     376A      1.844006   377A      1.847560   378A      1.856709  
     379A      1.863151   380A      1.867372   381A      1.873305  
     382A      1.874480   383A      1.882418   384A      1.886607  
     385A      1.892728   386A      1.898719   387A      1.906912  
     388A      1.915054   389A      1.916041   390A      1.922286  
     391A      1.937664   392A      1.946469   393A      1.951598  
     394A      1.955048   395A      1.968143   396A      1.971789  
     397A      1.984875   398A      1.986160   399A      1.989926  
     400A      1.999610   401A      2.005801   402A      2.013442  
     403A      2.020444   404A      2.022157   405A      2.043468  
     406A      2.047368   407A      2.053502   408A      2.057148  
     409A      2.060727   410A      2.069712   411A      2.075884  
     412A      2.084319   413A      2.088811   414A      2.096784  
     415A      2.103144   416A      2.110262   417A      2.126590  
     418A      2.127881   419A      2.136230   420A      2.145660  
     421A      2.154038   422A      2.166935   423A      2.171766  
     424A      2.180168   425A      2.186661   426A      2.189806  
     427A      2.207006   428A      2.210053   429A      2.223680  
     430A      2.230284   431A      2.235394   432A      2.247351  
     433A      2.248958   434A      2.259042   435A      2.267720  
     436A      2.287204   437A      2.294450   438A      2.298876  
     439A      2.308258   440A      2.314668   441A      2.321698  
     442A      2.331226   443A      2.336465   444A      2.340580  
     445A      2.351447   446A      2.359048   447A      2.366599  
     448A      2.382480   449A      2.386038   450A      2.392533  
     451A      2.396937   452A      2.413133   453A      2.422741  
     454A      2.437020   455A      2.442030   456A      2.456163  
     457A      2.459575   458A      2.469799   459A      2.473607  
     460A      2.496344   461A      2.503278   462A      2.512546  
     463A      2.518192   464A      2.533121   465A      2.545469  
     466A      2.560599   467A      2.569212   468A      2.595541  
     469A      2.602900   470A      2.613793   471A      2.634657  
     472A      2.644825   473A      2.666685   474A      2.674456  
     475A      2.689879   476A      2.692813   477A      2.703946  
     478A      2.730317   479A      2.756060   480A      2.773185  
     481A      2.797772   482A      2.812015   483A      2.857209  
     484A      2.875328   485A      2.909272   486A      2.971834  
     487A      2.993099   488A      3.042710   489A      3.055550  
     490A      3.153589   491A      3.214277   492A      3.219160  
     493A      3.299645   494A      3.327822   495A      3.346019  
     496A      3.419498   497A      3.447053   498A      3.454416  
     499A      3.465835   500A      3.477061   501A      3.485495  
     502A      3.495775   503A      3.514091   504A      3.524314  
     505A      3.542637   506A      3.561201   507A      3.564570  
     508A      3.577960   509A      3.587539   510A      3.599948  
     511A      3.610084   512A      3.621410   513A      3.627796  
     514A      3.639636   515A      3.650832   516A      3.655521  
     517A      3.663053   518A      3.678833   519A      3.689245  
     520A      3.700922   521A      3.702896   522A      3.713377  
     523A      3.718994   524A      3.729773   525A      3.735787  
     526A      3.745366   527A      3.756338   528A      3.763507  
     529A      3.771016   530A      3.782079   531A      3.793210  
     532A      3.804108   533A      3.820444   534A      3.823542  
     535A      3.830204   536A      3.840172   537A      3.849109  
     538A      3.855952   539A      3.862173   540A      3.866332  
     541A      3.880172   542A      3.883912   543A      3.898779  
     544A      3.904114   545A      3.912394   546A      3.916011  
     547A      3.931547   548A      3.932379   549A      3.939159  
     550A      3.948958   551A      3.960845   552A      3.969512  
     553A      3.973678   554A      3.979253   555A      3.979903  
     556A      3.987240   557A      3.996633   558A      4.002220  
     559A      4.013944   560A      4.025705   561A      4.028074  
     562A      4.032836   563A      4.048948   564A      4.051388  
     565A      4.058573   566A      4.064443   567A      4.070724  
     568A      4.075088   569A      4.084628   570A      4.100839  
     571A      4.107059   572A      4.111746   573A      4.119905  
     574A      4.125050   575A      4.126116   576A      4.143940  
     577A      4.160371   578A      4.168046   579A      4.175914  
     580A      4.182787   581A      4.186828   582A      4.193780  
     583A      4.204397   584A      4.218180   585A      4.239017  
     586A      4.250262   587A      4.253625   588A      4.260032  
     589A      4.272392   590A      4.280865   591A      4.287311  
     592A      4.294279   593A      4.306793   594A      4.310647  
     595A      4.326481   596A      4.328578   597A      4.337749  
     598A      4.359511   599A      4.369140   600A      4.384000  
     601A      4.393451   602A      4.398000   603A      4.415798  
     604A      4.428331   605A      4.431983   606A      4.443908  
     607A      4.455038   608A      4.463532   609A      4.479340  
     610A      4.497864   611A      4.519364   612A      4.538338  
     613A      4.556734   614A      4.557390   615A      4.570095  
     616A      4.578646   617A      4.587722   618A      4.614985  
     619A      4.625082   620A      4.632229   621A      4.643161  
     622A      4.652959   623A      4.666409   624A      4.689748  
     625A      4.698607   626A      4.708431   627A      4.709627  
     628A      4.725296   629A      4.731466   630A      4.741485  
     631A      4.748519   632A      4.759461   633A      4.764823  
     634A      4.782304   635A      4.791783   636A      4.808749  
     637A      4.819762   638A      4.828463   639A      4.844109  
     640A      4.850824   641A      4.855493   642A      4.873289  
     643A      4.885008   644A      4.893119   645A      4.898095  
     646A      4.903738   647A      4.909105   648A      4.921852  
     649A      4.924083   650A      4.945013   651A      4.958279  
     652A      4.966652   653A      4.986756   654A      4.995952  
     655A      4.996621   656A      5.015582   657A      5.033738  
     658A      5.038135   659A      5.060429   660A      5.079518  
     661A      5.088417   662A      5.096131   663A      5.103897  
     664A      5.123856   665A      5.130924   666A      5.139330  
     667A      5.156554   668A      5.160162   669A      5.170767  
     670A      5.174919   671A      5.195548   672A      5.215242  
     673A      5.220805   674A      5.229052   675A      5.249813  
     676A      5.255049   677A      5.269638   678A      5.279454  
     679A      5.289019   680A      5.310495   681A      5.321622  
     682A      5.335290   683A      5.347935   684A      5.351475  
     685A      5.359526   686A      5.363284   687A      5.382203  
     688A      5.398954   689A      5.404202   690A      5.423060  
     691A      5.426218   692A      5.430116   693A      5.433928  
     694A      5.451892   695A      5.458126   696A      5.469809  
     697A      5.470521   698A      5.495441   699A      5.503666  
     700A      5.527202   701A      5.534657   702A      5.550940  
     703A      5.554162   704A      5.566061   705A      5.581626  
     706A      5.594262   707A      5.614231   708A      5.630144  
     709A      5.639668   710A      5.658115   711A      5.669407  
     712A      5.675450   713A      5.678379   714A      5.694082  
     715A      5.712449   716A      5.716752   717A      5.725460  
     718A      5.741266   719A      5.749464   720A      5.760330  
     721A      5.776503   722A      5.782400   723A      5.807775  
     724A      5.809463   725A      5.827127   726A      5.852019  
     727A      5.863179   728A      5.880826   729A      5.897806  
     730A      5.910109   731A      5.948924   732A      5.961092  
     733A      5.991443   734A      6.022305   735A      6.054511  
     736A      6.064993   737A      6.084838   738A      6.092131  
     739A      6.112656   740A      6.135393   741A      6.154896  
     742A      6.183645   743A      6.186267   744A      6.223076  
     745A      6.235915   746A      6.243956   747A      6.250509  
     748A      6.299658   749A      6.308103   750A      6.320242  
     751A      6.328021   752A      6.338716   753A      6.359866  
     754A      6.375418   755A      6.394279   756A      6.407026  
     757A      6.415931   758A      6.522850   759A      6.601307  
     760A      6.653420   761A      6.689119   762A      6.712876  
     763A      6.725524   764A      6.797547   765A      6.802123  
     766A      6.832760   767A      6.877712   768A      6.906636  
     769A      6.937699   770A      6.971496   771A      7.010727  
     772A      7.035069   773A      7.110907   774A      7.123910  
     775A     18.074303   776A     18.197982   777A     18.576515  
     778A     18.661702   779A     18.765661   780A     19.193962  
     781A     19.700840   782A     20.038609  

    Final Occupation by Irrep:
              A 
    DOCC [    33 ]

  Energy converged.

  @DF-RHF Final Energy:  -313.53842020660159

   => Energetics <=

    Nuclear Repulsion Energy =            395.7109443732751970
    One-Electron Energy =               -1206.5417758126034187
    Two-Electron Energy =                 497.2924112327260673
    DFT Exchange-Correlation Energy =       0.0000000000000000
    Empirical Dispersion Energy =           0.0000000000000000
    PCM Polarization Energy =               0.0000000000000000
    EFP Energy =                            0.0000000000000000
    Total Energy =                       -313.5384202066021544


  Saving occupied orbitals to File 180.

*** tstop() called on wr22 at Tue Sep 20 16:44:34 2016
Module time:
	user time   =     915.42 seconds =      15.26 minutes
	system time =      10.01 seconds =       0.17 minutes
	total time  =         87 seconds =       1.45 minutes
Total time:
	user time   =     915.42 seconds =      15.26 minutes
	system time =      10.01 seconds =       0.17 minutes
	total time  =         87 seconds =       1.45 minutes


Properties will be evaluated at   0.000000,   0.000000,   0.000000 Bohr

Properties computed using the SCF density matrix

  Nuclear Dipole Moment: (a.u.)
     X:    -0.1651      Y:    -1.1083      Z:     0.0941

  Electronic Dipole Moment: (a.u.)
     X:     0.1542      Y:     1.1165      Z:    -0.0877

  Dipole Moment: (a.u.)
     X:    -0.0109      Y:     0.0082      Z:     0.0064     Total:     0.0150

  Dipole Moment: (Debye)
     X:    -0.0277      Y:     0.0208      Z:     0.0162     Total:     0.0382


  //>>>>>>>>>>>>>>>>>>>>>>>>>>>>>>>>>>>//
  //               DFMP2               //
  //<<<<<<<<<<<<<<<<<<<<<<<<<<<<<<<<<<<//


*** tstart() called on wr22
*** at Tue Sep 20 16:44:34 2016


*** tstop() called on wr22 at Tue Sep 20 16:44:34 2016
Module time:
	user time   =       3.67 seconds =       0.06 minutes
	system time =       0.09 seconds =       0.00 minutes
	total time  =          0 seconds =       0.00 minutes
Total time:
	user time   =     920.02 seconds =      15.33 minutes
	system time =      10.12 seconds =       0.17 minutes
	total time  =         87 seconds =       1.45 minutes
	 --------------------------------------------------------
	                          DF-MP2                         
	      2nd-Order Density-Fitted Moller-Plesset Theory     
	              RMP2 Wavefunction,  12 Threads             
	                                                         
	        Rob Parrish, Justin Turney, Andy Simmonett,      
	           Ed Hohenstein, and C. David Sherrill          
	 --------------------------------------------------------

   => Auxiliary Basis Set <=

  Basis Set: 
    Number of shells: 476
    Number of basis function: 1676
    Number of Cartesian functions: 2078
    Spherical Harmonics?: true
    Max angular momentum: 4

	 --------------------------------------------------------
	                 NBF =   782, NAUX =  1676
	 --------------------------------------------------------
	   CLASS    FOCC     OCC    AOCC    AVIR     VIR    FVIR
	   PAIRS       8      33      25     749     749       0
	 --------------------------------------------------------

DGAS Warning! /src/lib/libfock/apps.cc:80 is not currently checking restricted

         ------------------------------------------------------------
                                     CPHF                           
                                  Rob Parrish                       
         ------------------------------------------------------------

  ==> Geometry <==

    Molecular point group: c1
    Full point group: C1

    Geometry (in Angstrom), charge = 0, multiplicity = 1:

       Center              X                  Y                   Z               Mass       
    ------------   -----------------  -----------------  -----------------  -----------------
           C          3.380595553711    -1.146402535793    -0.120133062840    12.000000000000
           H          4.189977334186    -0.505108896726    -0.465445550983     1.007825032070
           H          2.984710078009    -1.674964475701    -0.985744365275     1.007825032070
           H          3.801866119225    -1.883289271923     0.559863871426     1.007825032070
           C         -3.604315536600    -0.265230099942     0.275262304018    12.000000000000
           H         -3.645640683938     0.792557328988     0.029354662130     1.007825032070
           H         -3.526006935207    -0.354942295685     1.357917449298     1.007825032070
           H         -4.548643649263    -0.710401656285    -0.029823534720     1.007825032070
           C          2.293961048411    -0.325083223341     0.546663329581    12.000000000000
           H          2.693998518246     0.167241786450     1.434648772069     1.007825032070
           H          1.494406000159    -0.978752734285     0.892647489956     1.007825032070
           C         -2.431899938735    -0.951958238734    -0.403299976391    12.000000000000
           H         -2.498551806369    -2.026544158835    -0.231781225989     1.007825032070
           H         -2.496910509757    -0.805552655798    -1.483210713271     1.007825032070
           C          1.724195575684     0.739053993207    -0.376469270158    12.000000000000
           H          1.413512730197     0.273311251938    -1.315642109227     1.007825032070
           H          2.527872685259     1.430616453953    -0.633395008900     1.007825032070
           C          0.545367012297     1.506722692043     0.222362093251    12.000000000000
           H          0.622193087579     2.563069402216    -0.035017740597     1.007825032070
           H          0.600623476406     1.450656037958     1.312157987354     1.007825032070
           C         -0.816519059179     1.002184915159    -0.233348131433    12.000000000000
           H         -1.589009818796     1.618153172675     0.227365478438     1.007825032070
           H         -0.902482210719     1.147892358711    -1.313693355839     1.007825032070
           C         -1.076597375632    -0.459995093976     0.080535650317    12.000000000000
           H         -0.298897361040    -1.070076198499    -0.380068794829     1.007825032070
           H         -0.999086663320    -0.616123148208     1.160206292190     1.007825032070

  Nuclear repulsion =  395.710944373275197
  Reference energy  = -313.538420206601586

  ==> Basis Set <==

  Basis Set: AUG-CC-PVTZ
    Number of shells: 274
    Number of basis function: 782
    Number of Cartesian functions: 890
    Spherical Harmonics?: true
    Max angular momentum: 3

  ==> CGRSolver (by Rob Parrish) <==

   Number of roots    =         1
   Preconditioning    =    JACOBI
   Convergence cutoff =     1E-06
   Maximum iterations =       100

  ==> CPHFRHamiltonian (by Rob Parrish) <== 

  ==> DFJK: Density-Fitted J/K Matrices <==

    J tasked:                  Yes
    K tasked:                  Yes
    wK tasked:                  No
    OpenMP threads:             12
    Integrals threads:          12
    Memory (MB):             21457
    Algorithm:                Core
    Integral Cache:           NONE
    Schwarz Cutoff:          1E-12
    Fitting Condition:       1E-12

   => Auxiliary Basis Set <=

  Basis Set: 
    Number of shells: 492
    Number of basis function: 1660
    Number of Cartesian functions: 2038
    Spherical Harmonics?: true
    Max angular momentum: 4

  ==> CPHF Iterations <==

  => Iterations <=

             Iter  Converged  Remaining    Residual
  CGR           1          0          1   9.061E-02
  CGR           2          0          1   1.293E-02
  CGR           3          0          1   3.682E-03
  CGR           4          0          1   8.571E-04
  CGR           5          0          1   1.848E-04
  CGR           6          0          1   4.300E-05
  CGR           7          0          1   1.257E-05
  CGR           8          0          1   3.062E-06
  CGR           9          1          0   8.716E-07

    CGRSolver converged.

  ==> DFCorrGrad: Density-Fitted Correlated Gradients <==

    OpenMP threads:             12
    Integrals threads:          12
    Memory (MB):             21457
    Schwarz Cutoff:          0E+00
    Fitting Condition:       1E-12

   => Auxiliary Basis Set <=

  Basis Set: 
    Number of shells: 492
    Number of basis function: 1660
    Number of Cartesian functions: 2038
    Spherical Harmonics?: true
    Max angular momentum: 4

	-----------------------------------------------------------
	 ==================> DF-MP2 Energies <==================== 
	-----------------------------------------------------------
	 Reference Energy          =    -313.5384202066015860 [Eh]
	 Singles Energy            =      -0.0000000000000000 [Eh]
	 Same-Spin Energy          =      -0.3167049224025169 [Eh]
	 Opposite-Spin Energy      =      -1.1252142034984765 [Eh]
	 Correlation Energy        =      -1.4419191259009934 [Eh]
	 Total Energy              =    -314.9803393325025809 [Eh]
	-----------------------------------------------------------
	 ================> DF-SCS-MP2 Energies <================== 
	-----------------------------------------------------------
	 SCS Same-Spin Scale       =       0.3333333333333333 [-]
	 SCS Opposite-Spin Scale   =       1.2000000000000000 [-]
	 SCS Same-Spin Energy      =      -0.1055683074675056 [Eh]
	 SCS Opposite-Spin Energy  =      -1.3502570441981716 [Eh]
	 SCS Correlation Energy    =      -1.4558253516656772 [Eh]
	 SCS Total Energy          =    -314.9942455582672665 [Eh]
	-----------------------------------------------------------


  -Total Gradient:
     Atom            X                  Y                   Z
    ------   -----------------  -----------------  -----------------
       1       -0.001185792366     0.000794430270     0.000625420673
       2       -0.001244669843    -0.000561659429     0.000546823649
       3        0.000248435248     0.000852581737     0.001239006842
       4       -0.000733092487     0.001053786868    -0.000676795825
       5        0.001390811486    -0.000464134264    -0.000552891839
       6        0.000293540548    -0.001548160519     0.000075276909
       7        0.000124835391    -0.000001807121    -0.001528158013
       8        0.001340153581     0.000432037237     0.000256224555
       9        0.000301363053     0.000030529831    -0.002036845492
      10       -0.000382203529    -0.000358775715    -0.001403181986
      11        0.000940226377     0.001017664855    -0.000725401655
      12        0.000342298680     0.001482919939     0.001469656477
      13        0.000212784522     0.001417822033    -0.000002294485
      14        0.000175799672     0.000135017831     0.001408305083
      15       -0.000434656973    -0.000551911853     0.001807648571
      16        0.000179022750     0.000371044606     0.001500619608
      17       -0.001151276157    -0.000712333455     0.000524661062
      18       -0.000479171241    -0.001516308804    -0.001318274404
      19        0.000032409492    -0.001329069748     0.000091248287
      20       -0.000197756879    -0.000462942133    -0.001488616029
      21        0.001226411114    -0.001175420714     0.001037636645
      22        0.001113428552    -0.000944987226    -0.000281909509
      23        0.000339840319    -0.000346947441     0.001400096658
      24       -0.001290556145     0.001020919433    -0.001083839287
      25       -0.001042565100     0.000952930689     0.000447759253
      26       -0.000119620063     0.000412773091    -0.001332175748


			-----------------------------------------
			 OPTKING 2.0: for geometry optimizations 
			  - R.A. King,  Bethel University        
			-----------------------------------------

	Internal coordinates to be generated automatically.
	Detected frag 1 with atoms:  1 2 3 4 5 6 7 8 9 10 11 12 13 14 15 16 17 18 19 20
	 21 22 23 24 25 26
	---Fragment 1 Bond Connectivity---
	 1 : 2 3 4 9
	 2 : 1
	 3 : 1
	 4 : 1
	 5 : 6 7 8 12
	 6 : 5
	 7 : 5
	 8 : 5
	 9 : 1 10 11 15
	 10 : 9
	 11 : 9
	 12 : 5 13 14 24
	 13 : 12
	 14 : 12
	 15 : 9 16 17 18
	 16 : 15
	 17 : 15
	 18 : 15 19 20 21
	 19 : 18
	 20 : 18
	 21 : 18 22 23 24
	 22 : 21
	 23 : 21
	 24 : 12 21 25 26
	 25 : 24
	 26 : 24

	---Fragment 1 Geometry and Gradient---
	 C           6.3883997626       -2.1663868307       -0.2270185883
	 H           7.9179096646       -0.9545174821       -0.8795646211
	 H           5.6402846335       -3.1652241414       -1.8627868874
	 H           7.1844857592       -3.5589009529        1.0579893887
	 C          -6.8111692607       -0.5012122511        0.5201703693
	 H          -6.8892624715        1.4977162964        0.0554722721
	 H          -6.6631874502       -0.6707437318        2.5660920902
	 H          -8.5956907732       -1.3424645747       -0.0563583129
	 C           4.3349581410       -0.6143182625        1.0330439798
	 H           5.0909194019        0.3160411744        2.7110932761
	 H           2.8240180716       -1.8495746196        1.6868592892
	 C          -4.5956248668       -1.7989403612       -0.7621265048
	 H          -4.7215786429       -3.8296134564       -0.4380030399
	 H          -4.7184770418       -1.5222739051       -2.8028620454
	 C           3.2582574376        1.3966096446       -0.7114238180
	 H           2.6711519454        0.5164834152       -2.4862032753
	 H           4.7769870739        2.7034732992       -1.1969431008
	 C           1.0305942952        2.8472932462        0.4202034586
	 H           1.1757745373        4.8434992298       -0.0661739395
	 H           1.1350138794        2.7413426248        2.4796192392
	 C          -1.5429974041        1.8938550242       -0.4409640620
	 H          -3.0027933800        3.0578663374        0.4296584863
	 H          -1.7054442181        2.1692021880       -2.4825206651
	 C          -2.0344741953       -0.8692647501        0.1521903230
	 H          -0.5648341542       -2.0221509565       -0.7182259339
	 H          -1.8880001767       -1.1643040142        2.1924721499
	            -0.0011857924        0.0007944303        0.0006254207
	            -0.0012446698       -0.0005616594        0.0005468236
	             0.0002484352        0.0008525817        0.0012390068
	            -0.0007330925        0.0010537869       -0.0006767958
	             0.0013908115       -0.0004641343       -0.0005528918
	             0.0002935405       -0.0015481605        0.0000752769
	             0.0001248354       -0.0000018071       -0.0015281580
	             0.0013401536        0.0004320372        0.0002562246
	             0.0003013631        0.0000305298       -0.0020368455
	            -0.0003822035       -0.0003587757       -0.0014031820
	             0.0009402264        0.0010176649       -0.0007254017
	             0.0003422987        0.0014829199        0.0014696565
	             0.0002127845        0.0014178220       -0.0000022945
	             0.0001757997        0.0001350178        0.0014083051
	            -0.0004346570       -0.0005519119        0.0018076486
	             0.0001790227        0.0003710446        0.0015006196
	            -0.0011512762       -0.0007123335        0.0005246611
	            -0.0004791712       -0.0015163088       -0.0013182744
	             0.0000324095       -0.0013290697        0.0000912483
	            -0.0001977569       -0.0004629421       -0.0014886160
	             0.0012264111       -0.0011754207        0.0010376366
	             0.0011134286       -0.0009449872       -0.0002819095
	             0.0003398403       -0.0003469474        0.0014000967
	            -0.0012905561        0.0010209194       -0.0010838393
	            -0.0010425651        0.0009529307        0.0004477593
	            -0.0001196201        0.0004127731       -0.0013321757

	Previous optimization step data not found.  Starting new optimization.

	---Fragment 1 Intrafragment Coordinates---
	 - Coordinate -           - BOHR/RAD -       - ANG/DEG -
	 R(1,2)           =         2.057631	       1.088851
	 R(1,3)           =         2.057447	       1.088754
	 R(1,4)           =         2.055260	       1.087597
	 R(1,9)           =         2.865885	       1.516561
	 R(5,6)           =         2.053718	       1.086781
	 R(5,7)           =         2.058260	       1.089184
	 R(5,8)           =         2.055385	       1.087663
	 R(5,12)          =         2.870021	       1.518750
	 R(9,10)          =         2.062255	       1.091298
	 R(9,11)          =         2.058221	       1.089164
	 R(9,15)          =         2.871634	       1.519603
	 R(12,13)         =         2.060231	       1.090228
	 R(12,14)         =         2.063065	       1.091727
	 R(12,24)         =         2.873981	       1.520845
	 R(15,16)         =         2.066194	       1.093383
	 R(15,17)         =         2.061592	       1.090947
	 R(15,18)         =         2.889212	       1.528905
	 R(18,19)         =         2.059728	       1.089961
	 R(18,20)         =         2.064781	       1.092635
	 R(18,21)         =         2.876461	       1.522158
	 R(21,22)         =         2.060075	       1.090145
	 R(21,23)         =         2.066436	       1.093511
	 R(21,24)         =         2.868486	       1.517937
	 R(24,25)         =         2.060731	       1.090492
	 R(24,26)         =         2.066701	       1.093651
	 B(1,9,10)        =         1.917109	     109.842275
	 B(1,9,11)        =         1.918388	     109.915515
	 B(1,9,15)        =         1.961458	     112.383273
	 B(2,1,3)         =         1.879765	     107.702582
	 B(2,1,4)         =         1.885360	     108.023196
	 B(2,1,9)         =         1.931660	     110.675970
	 B(3,1,4)         =         1.884940	     107.999119
	 B(3,1,9)         =         1.930447	     110.606455
	 B(4,1,9)         =         1.949340	     111.688937
	 B(5,12,13)       =         1.905188	     109.159217
	 B(5,12,14)       =         1.912770	     109.593674
	 B(5,12,24)       =         1.981797	     113.548603
	 B(6,5,7)         =         1.883695	     107.927787
	 B(6,5,8)         =         1.877471	     107.571156
	 B(6,5,12)        =         1.948043	     111.614626
	 B(7,5,8)         =         1.883387	     107.910148
	 B(7,5,12)        =         1.929827	     110.570952
	 B(8,5,12)        =         1.938892	     111.090301
	 B(9,15,16)       =         1.907154	     109.271901
	 B(9,15,17)       =         1.886793	     108.105261
	 B(9,15,18)       =         1.985334	     113.751256
	 B(10,9,11)       =         1.856021	     106.342183
	 B(10,9,15)       =         1.892128	     108.410955
	 B(11,9,15)       =         1.915589	     109.755137
	 B(12,24,21)      =         1.980677	     113.484415
	 B(12,24,25)      =         1.896726	     108.674389
	 B(12,24,26)      =         1.908211	     109.332430
	 B(13,12,14)      =         1.858928	     106.508705
	 B(13,12,24)      =         1.899979	     108.860792
	 B(14,12,24)      =         1.901152	     108.927962
	 B(15,18,19)      =         1.917484	     109.863729
	 B(15,18,20)      =         1.902759	     109.020032
	 B(15,18,21)      =         1.989039	     113.963546
	 B(16,15,17)      =         1.851527	     106.084697
	 B(16,15,18)      =         1.908397	     109.343100
	 B(17,15,18)      =         1.919790	     109.995891
	 B(18,21,22)      =         1.896726	     108.674372
	 B(18,21,23)      =         1.898583	     108.780784
	 B(18,21,24)      =         1.993991	     114.247271
	 B(19,18,20)      =         1.856351	     106.361052
	 B(19,18,21)      =         1.889787	     108.276797
	 B(20,18,21)      =         1.903760	     109.077386
	 B(21,24,25)      =         1.906435	     109.230671
	 B(21,24,26)      =         1.906582	     109.239112
	 B(22,21,23)      =         1.861403	     106.650558
	 B(22,21,24)      =         1.912908	     109.601546
	 B(23,21,24)      =         1.895657	     108.613172
	 B(25,24,26)      =         1.861443	     106.652808
	 D(1,9,15,16)     =         0.917613	      52.575350
	 D(1,9,15,17)     =        -1.090060	     -62.455835
	 D(1,9,15,18)     =         3.055538	     175.069441
	 D(2,1,9,10)      =        -1.098982	     -62.967024
	 D(2,1,9,11)      =        -3.135310	    -179.640052
	 D(2,1,9,15)      =         1.009016	      57.812385
	 D(3,1,9,10)      =         3.102321	     177.749928
	 D(3,1,9,11)      =         1.065993	      61.076900
	 D(3,1,9,15)      =        -1.072865	     -61.470663
	 D(4,1,9,10)      =         1.002350	      57.430400
	 D(4,1,9,11)      =        -1.033979	     -59.242628
	 D(4,1,9,15)      =         3.110348	     178.209809
	 D(5,12,24,21)    =        -1.114975	     -63.883347
	 D(5,12,24,25)    =         3.043611	     174.386091
	 D(5,12,24,26)    =         1.018165	      58.336580
	 D(6,5,12,13)     =        -3.020307	    -173.050844
	 D(6,5,12,14)     =        -0.990582	     -56.756174
	 D(6,5,12,24)     =         1.139677	      65.298673
	 D(7,5,12,13)     =         1.165766	      66.793490
	 D(7,5,12,14)     =        -3.087694	    -176.911840
	 D(7,5,12,24)     =        -0.957435	     -54.856993
	 D(8,5,12,13)     =        -0.924930	     -52.994591
	 D(8,5,12,14)     =         1.104795	      63.300079
	 D(8,5,12,24)     =        -3.048132	    -174.645074
	 D(9,15,18,19)    =         2.442374	     139.937717
	 D(9,15,18,20)    =         0.414481	      23.748001
	 D(9,15,18,21)    =        -1.716740	     -98.361974
	 D(10,9,15,16)    =         3.039923	     174.174756
	 D(10,9,15,17)    =         1.032250	      59.143572
	 D(10,9,15,18)    =        -1.105337	     -63.331153
	 D(11,9,15,16)    =        -1.222825	     -70.062699
	 D(11,9,15,17)    =         3.052688	     174.906117
	 D(11,9,15,18)    =         0.915100	      52.431392
	 D(12,24,21,18)   =        -3.124277	    -179.007908
	 D(12,24,21,22)   =         1.025770	      58.772272
	 D(12,24,21,23)   =        -1.001611	     -57.388058
	 D(13,12,24,21)   =         3.042107	     174.299918
	 D(13,12,24,25)   =         0.917508	      52.569355
	 D(13,12,24,26)   =        -1.107938	     -63.480155
	 D(14,12,24,21)   =         1.021722	      58.540334
	 D(14,12,24,25)   =        -1.102878	     -63.190229
	 D(14,12,24,26)   =        -3.128324	    -179.239740
	 D(15,18,21,22)   =        -3.123052	    -178.937723
	 D(15,18,21,23)   =        -1.102886	     -63.190684
	 D(15,18,21,24)   =         1.018170	      58.336868
	 D(16,15,18,19)   =        -1.703570	     -97.607384
	 D(16,15,18,20)   =         2.551722	     146.202899
	 D(16,15,18,21)   =         0.420501	      24.092925
	 D(17,15,18,19)   =         0.323058	      18.509837
	 D(17,15,18,20)   =        -1.704836	     -97.679880
	 D(17,15,18,21)   =         2.447129	     140.210146
	 D(18,21,24,25)   =        -1.005103	     -57.588160
	 D(18,21,24,26)   =         1.024864	      58.720404
	 D(19,18,21,22)   =        -0.983739	     -56.364081
	 D(19,18,21,23)   =         1.036428	      59.382958
	 D(19,18,21,24)   =        -3.125701	    -179.089490
	 D(20,18,21,22)   =         1.029463	      58.983878
	 D(20,18,21,23)   =         3.049630	     174.730917
	 D(20,18,21,24)   =        -1.112500	     -63.741531
	 D(22,21,24,25)   =        -3.138241	    -179.807981
	 D(22,21,24,26)   =        -1.108274	     -63.499416
	 D(23,21,24,25)   =         1.117564	      64.031690
	 D(23,21,24,26)   =        -3.135654	    -179.659745
	 R(9,24)          =         6.435104	       3.405311

	Current energy   :      -314.9803393325

	Generating empirical Hessian (Schlegel '84) for each fragment.
	Taking RFO optimization step.
	Going to follow RFO solution 1.
	Using RFO vector 1.
	Norm of target step-size    0.14354
	Projected energy change by RFO approximation:        -0.0003235016

	Back-transformation to cartesian coordinates...
	Successfully converged to displaced geometry.

	--- Internal Coordinate Step in ANG or DEG, aJ/ANG or AJ/DEG ---
	 ---------------------------------------------------------------------------
	   Coordinate                Previous        Force       Change         New 
	   ----------                --------       ------       ------       ------
	    1 R(1,2)          =      1.088851     0.011777     0.002161     1.091012
	    2 R(1,3)          =      1.088754     0.012270     0.002251     1.091005
	    3 R(1,4)          =      1.087597     0.011708     0.002139     1.089736
	    4 R(1,9)          =      1.516561     0.033036     0.006899     1.523460
	    5 R(5,6)          =      1.086781     0.012647     0.002305     1.089086
	    6 R(5,7)          =      1.089184     0.012439     0.002285     1.091470
	    7 R(5,8)          =      1.087663     0.011635     0.002127     1.089790
	    8 R(5,12)         =      1.518750     0.032363     0.006805     1.525555
	    9 R(9,10)         =      1.091298     0.011894     0.002200     1.093499
	   10 R(9,11)         =      1.089164     0.012617     0.002318     1.091481
	   11 R(9,15)         =      1.519603     0.031013     0.007129     1.526733
	   12 R(12,13)        =      1.090228     0.011624     0.002143     1.092370
	   13 R(12,14)        =      1.091727     0.011414     0.002114     1.093842
	   14 R(12,24)        =      1.520845     0.035314     0.007475     1.528320
	   15 R(15,16)        =      1.093383     0.012341     0.002299     1.095681
	   16 R(15,17)        =      1.090947     0.011726     0.002167     1.093114
	   17 R(15,18)        =      1.528905     0.028344     0.007137     1.536042
	   18 R(18,19)        =      1.089961     0.010771     0.001984     1.091945
	   19 R(18,20)        =      1.092635     0.012119     0.002252     1.094887
	   20 R(18,21)        =      1.522158     0.028842     0.007441     1.529599
	   21 R(21,22)        =      1.090145     0.011881     0.002189     1.092334
	   22 R(21,23)        =      1.093511     0.011997     0.002236     1.095747
	   23 R(21,24)        =      1.517937     0.032319     0.007025     1.524963
	   24 R(24,25)        =      1.090492     0.012076     0.002228     1.092720
	   25 R(24,26)        =      1.093651     0.011390     0.002124     1.095775
	   26 B(1,9,10)       =    109.842275    -0.000003    -0.021550   109.820725
	   27 B(1,9,11)       =    109.915515    -0.000002    -0.036847   109.878669
	   28 B(1,9,15)       =    112.383273    -0.000009    -0.014636   112.368636
	   29 B(2,1,3)        =    107.702582    -0.000025    -0.101844   107.600737
	   30 B(2,1,4)        =    108.023196    -0.000026    -0.111405   107.911791
	   31 B(2,1,9)        =    110.675970     0.000027     0.121680   110.797650
	   32 B(3,1,4)        =    107.999119    -0.000024    -0.114365   107.884754
	   33 B(3,1,9)        =    110.606455     0.000025     0.129154   110.735608
	   34 B(4,1,9)        =    111.688937     0.000020     0.059879   111.748815
	   35 B(5,12,13)      =    109.159217    -0.000015    -0.113923   109.045294
	   36 B(5,12,14)      =    109.593674    -0.000001     0.063325   109.656998
	   37 B(5,12,24)      =    113.548603     0.000022     0.123409   113.672012
	   38 B(6,5,7)        =    107.927787    -0.000026    -0.127083   107.800704
	   39 B(6,5,8)        =    107.571156    -0.000021    -0.082407   107.488749
	   40 B(6,5,12)       =    111.614626     0.000030     0.151569   111.766195
	   41 B(7,5,8)        =    107.910148    -0.000019    -0.107533   107.802615
	   42 B(7,5,12)       =    110.570952     0.000018     0.072577   110.643529
	   43 B(8,5,12)       =    111.090301     0.000015     0.074730   111.165031
	   44 B(9,15,16)      =    109.271901    -0.000001     0.071982   109.343884
	   45 B(9,15,17)      =    108.105261     0.000018    -0.113678   107.991584
	   46 B(9,15,18)      =    113.751256    -0.000028     0.193456   113.944713
	   47 B(10,9,11)      =    106.342183    -0.000014    -0.175916   106.166267
	   48 B(10,9,15)      =    108.410955     0.000015     0.124603   108.535558
	   49 B(11,9,15)      =    109.755137     0.000013     0.117340   109.872477
	   50 B(12,24,21)     =    113.484415     0.000024     0.122672   113.607086
	   51 B(12,24,25)     =    108.674389    -0.000005    -0.016188   108.658201
	   52 B(12,24,26)     =    109.332430    -0.000018    -0.096620   109.235809
	   53 B(13,12,14)     =    106.508705    -0.000008    -0.186835   106.321870
	   54 B(13,12,24)     =    108.860792     0.000002     0.014655   108.875446
	   55 B(14,12,24)     =    108.927962    -0.000002     0.078166   109.006128
	   56 B(15,18,19)     =    109.863729     0.000029    -0.085879   109.777850
	   57 B(15,18,20)     =    109.020032     0.000025     0.128226   109.148258
	   58 B(15,18,21)     =    113.963546    -0.000074     0.194829   114.158375
	   59 B(16,15,17)     =    106.084697    -0.000017    -0.224842   105.859855
	   60 B(16,15,18)     =    109.343100     0.000015     0.077639   109.420739
	   61 B(17,15,18)     =    109.995891     0.000013    -0.036595   109.959296
	   62 B(18,21,22)     =    108.674372     0.000024    -0.059070   108.615303
	   63 B(18,21,23)     =    108.780784     0.000030     0.061956   108.842740
	   64 B(18,21,24)     =    114.247271    -0.000080     0.173235   114.420506
	   65 B(19,18,20)     =    106.361052    -0.000027    -0.262880   106.098172
	   66 B(19,18,21)     =    108.276797     0.000032    -0.142362   108.134435
	   67 B(20,18,21)     =    109.077386     0.000017     0.133892   109.211278
	   68 B(21,24,25)     =    109.230671    -0.000005     0.018164   109.248835
	   69 B(21,24,26)     =    109.239112     0.000006     0.076099   109.315211
	   70 B(22,21,23)     =    106.650558    -0.000025    -0.217600   106.432959
	   71 B(22,21,24)     =    109.601546     0.000031    -0.036879   109.564667
	   72 B(23,21,24)     =    108.613172     0.000022     0.050791   108.663963
	   73 B(25,24,26)     =    106.652808    -0.000004    -0.120199   106.532609
	   74 D(1,9,15,16)    =     52.575350    -0.000000     0.820514    53.395864
	   75 D(1,9,15,17)    =    -62.455835     0.000003     1.109603   -61.346231
	   76 D(1,9,15,18)    =    175.069441    -0.000000     1.110474   176.179915
	   77 D(2,1,9,10)     =    -62.967024    -0.000002    -0.004900   -62.971924
	   78 D(2,1,9,11)     =   -179.640052     0.000003     0.242658  -179.397394
	   79 D(2,1,9,15)     =     57.812385     0.000000     0.128625    57.941010
	   80 D(3,1,9,10)     =    177.749928    -0.000002    -0.039630   177.710298
	   81 D(3,1,9,11)     =     61.076900     0.000002     0.207928    61.284828
	   82 D(3,1,9,15)     =    -61.470663     0.000000     0.093895   -61.376768
	   83 D(4,1,9,10)     =     57.430400    -0.000002    -0.022826    57.407574
	   84 D(4,1,9,11)     =    -59.242628     0.000002     0.224732   -59.017896
	   85 D(4,1,9,15)     =    178.209809     0.000000     0.110700   178.320509
	   86 D(5,12,24,21)   =    -63.883347    -0.000002    -1.013499   -64.896845
	   87 D(5,12,24,25)   =    174.386091    -0.000004    -1.106904   173.279187
	   88 D(5,12,24,26)   =     58.336580     0.000000    -0.901937    57.434643
	   89 D(6,5,12,13)    =   -173.050844     0.000001    -0.319539  -173.370383
	   90 D(6,5,12,14)    =    -56.756174    -0.000003    -0.573012   -57.329186
	   91 D(6,5,12,24)    =     65.298673    -0.000000    -0.339000    64.959673
	   92 D(7,5,12,13)    =     66.793490     0.000001    -0.308874    66.484615
	   93 D(7,5,12,14)    =   -176.911840    -0.000003    -0.562347  -177.474188
	   94 D(7,5,12,24)    =    -54.856993    -0.000000    -0.328335   -55.185328
	   95 D(8,5,12,13)    =    -52.994591     0.000002    -0.270630   -53.265220
	   96 D(8,5,12,14)    =     63.300079    -0.000002    -0.524103    62.775976
	   97 D(8,5,12,24)    =   -174.645074     0.000001    -0.290090  -174.935164
	   98 D(9,15,18,19)   =    139.937717     0.000005     1.536102   141.473819
	   99 D(9,15,18,20)   =     23.748001     0.000005     1.827169    25.575169
	  100 D(9,15,18,21)   =    -98.361974     0.000007     1.423156   -96.938817
	  101 D(10,9,15,16)   =    174.174756     0.000000     0.869791   175.044547
	  102 D(10,9,15,17)   =     59.143572     0.000003     1.158881    60.302452
	  103 D(10,9,15,18)   =    -63.331153     0.000000     1.159752   -62.171401
	  104 D(11,9,15,16)   =    -70.062699     0.000000     0.793475   -69.269224
	  105 D(11,9,15,17)   =    174.906117     0.000003     1.082564   175.988681
	  106 D(11,9,15,18)   =     52.431392    -0.000000     1.083436    53.514828
	  107 D(12,24,21,18)  =   -179.007908    -0.000001    -0.733759  -179.741667
	  108 D(12,24,21,22)  =     58.772272    -0.000001    -0.750942    58.021330
	  109 D(12,24,21,23)  =    -57.388058    -0.000001    -0.499126   -57.887184
	  110 D(13,12,24,21)  =    174.299918    -0.000002    -0.961123   173.338795
	  111 D(13,12,24,25)  =     52.569355    -0.000003    -1.054529    51.514827
	  112 D(13,12,24,26)  =    -63.480155     0.000001    -0.849561   -64.329717
	  113 D(14,12,24,21)  =     58.540334     0.000001    -0.789465    57.750868
	  114 D(14,12,24,25)  =    -63.190229    -0.000001    -0.882871   -64.073100
	  115 D(14,12,24,26)  =   -179.239740     0.000003    -0.677904  -179.917643
	  116 D(15,18,21,22)  =   -178.937723    -0.000001     1.323183  -177.614540
	  117 D(15,18,21,23)  =    -63.190684    -0.000001     1.066687   -62.123998
	  118 D(15,18,21,24)  =     58.336868    -0.000002     1.295742    59.632610
	  119 D(16,15,18,19)  =    -97.607384     0.000002     1.823240   -95.784144
	  120 D(16,15,18,20)  =    146.202899     0.000003     2.114307   148.317206
	  121 D(16,15,18,21)  =     24.092925     0.000005     1.710294    25.803219
	  122 D(17,15,18,19)  =     18.509837     0.000001     1.575889    20.085725
	  123 D(17,15,18,20)  =    -97.679880     0.000002     1.866955   -95.812924
	  124 D(17,15,18,21)  =    140.210146     0.000004     1.462943   141.673089
	  125 D(18,21,24,25)  =    -57.588160    -0.000000    -0.658479   -58.246640
	  126 D(18,21,24,26)  =     58.720404    -0.000001    -0.749651    57.970753
	  127 D(19,18,21,22)  =    -56.364081     0.000001     1.238937   -55.125144
	  128 D(19,18,21,23)  =     59.382958     0.000001     0.982441    60.365399
	  129 D(19,18,21,24)  =   -179.089490     0.000001     1.211496  -177.877993
	  130 D(20,18,21,22)  =     58.983878     0.000000     0.922009    59.905886
	  131 D(20,18,21,23)  =    174.730917     0.000000     0.665512   175.396429
	  132 D(20,18,21,24)  =    -63.741531    -0.000001     0.894567   -62.846964
	  133 D(22,21,24,25)  =   -179.807981     0.000000    -0.675662  -180.483643
	  134 D(22,21,24,26)  =    -63.499416    -0.000001    -0.766834   -64.266251
	  135 D(23,21,24,25)  =     64.031690     0.000000    -0.423847    63.607843
	  136 D(23,21,24,26)  =   -179.659745    -0.000001    -0.515019  -180.174764
	  137 R(9,24)         =      3.405311     0.008964     0.012336     3.417646
	 ---------------------------------------------------------------------------

  ==> Convergence Check <==

  Measures of convergence in internal coordinates in au.
  Criteria marked as inactive (o), active & met (*), and active & unmet ( ).
  --------------------------------------------------------------------------------------------- ~
   Step     Total Energy     Delta E     MAX Force     RMS Force      MAX Disp      RMS Disp    ~
  --------------------------------------------------------------------------------------------- ~
    Convergence Criteria             o    2.00e-06 *    1.00e-06 *    6.00e-06 *    4.00e-06 *  ~
  --------------------------------------------------------------------------------------------- ~
      1    -314.98033933   -3.15e+02 o    4.29e-03      1.04e-03      3.69e-02      1.23e-02    ~
  ---------------------------------------------------------------------------------------------

	Writing optimization data to binary file.
	Structure for next step:
	Cartesian Geometry (in Angstrom)
	    C     3.4114844752  -1.1472890737  -0.1616890480
	    H     4.2268381187  -0.4918369579  -0.4713479824
	    H     3.0385586227  -1.6536889289  -1.0531920274
	    H     3.8244874859  -1.9039805504   0.5049229263
	    C    -3.6277608015  -0.2549479283   0.3340230690
	    H    -3.6690336699   0.8063359053   0.0930240512
	    H    -3.5379304289  -0.3477531208   1.4178235039
	    H    -4.5803855041  -0.6948984206   0.0397597078
	    C     2.3009603139  -0.3491140413   0.5095649283
	    H     2.6802058324   0.1186252644   1.4223256446
	    H     1.4988461434  -1.0199345201   0.8225243367
	    C    -2.4617998414  -0.9485603833  -0.3636550831
	    H    -2.5306343674  -2.0245776395  -0.1883803553
	    H    -2.5436140333  -0.8074348053  -1.4452647771
	    C     1.7398871227   0.7426765993  -0.3982361649
	    H     1.4368451177   0.3000651280  -1.3536305036
	    H     2.5515862222   1.4357620895  -0.6341925818
	    C     0.5551104737   1.5096367380   0.2079822028
	    H     0.6277746280   2.5676135197  -0.0523027501
	    H     0.6166218258   1.4607410605   1.3000460023
	    C    -0.8156561745   1.0016671013  -0.2421715429
	    H    -1.5859772685   1.6333605966   0.2058943889
	    H    -0.9018635793   1.1299706836  -1.3269604400
	    C    -1.0902634229  -0.4588541049   0.0998516789
	    H    -0.3218805715  -1.0866456270  -0.3578627282
	    H    -1.0036890483  -0.5999038746   1.1830560839
			--------------------------
			 OPTKING Finished Execution 
			--------------------------

    Structure for next step:
    Molecular point group: c1
    Full point group: C1

    Geometry (in Angstrom), charge = 0, multiplicity = 1:

    C            3.411756545888    -1.146896395657    -0.161120577839
    H            4.227110189378    -0.491444279819    -0.470779512174
    H            3.038830693318    -1.653296250798    -1.052623557193
    H            3.824759556559    -1.903587872303     0.505491396489
    C           -3.627488730814    -0.254555250198     0.334591539184
    H           -3.668761599253     0.806728583399     0.093592521408
    H           -3.537658358256    -0.347360442693     1.418391974049
    H           -4.580113433481    -0.694505742484     0.040328178013
    C            2.301232384514    -0.348721363213     0.510133398477
    H            2.680477903021     0.119017942450     1.422894114763
    H            1.499118213999    -1.019541842013     0.823092806874
    C           -2.461527770751    -0.948167705220    -0.363086612970
    H           -2.530362296733    -2.024184961425    -0.187811885141
    H           -2.543341962699    -0.807042127163    -1.444696306971
    C            1.740159193378     0.743069277398    -0.397667694768
    H            1.437117188379     0.300457806075    -1.353062033404
    H            2.551858292832     1.436154767606    -0.633624111660
    C            0.555382544345     1.510029416040     0.208550672978
    H            0.628046698633     2.568006197750    -0.051734279912
    H            0.616893896423     1.461133738561     1.300614472520
    C           -0.815384103905     1.002059779431    -0.241603072696
    H           -1.585705197825     1.633753274698     0.206462859030
    H           -0.901591508675     1.130363361724    -1.326391969855
    C           -1.089991352223    -0.458461426852     0.100420149037
    H           -0.321608500858    -1.086252948928    -0.357294258050
    H           -1.003416977701    -0.599511196504     1.183624554040

gradient() will perform analytic gradient computation.

*** tstart() called on wr22
*** at Tue Sep 20 16:51:10 2016


         ---------------------------------------------------------
                                   SCF
            by Justin Turney, Rob Parrish, and Andy Simmonett
                              RHF Reference
                       12 Threads,  30000 MiB Core
         ---------------------------------------------------------

  ==> Geometry <==

    Molecular point group: c1
    Full point group: C1

    Geometry (in Angstrom), charge = 0, multiplicity = 1:

       Center              X                  Y                   Z               Mass       
    ------------   -----------------  -----------------  -----------------  -----------------
           C          3.411756545888    -1.146896395657    -0.161120577839    12.000000000000
           H          4.227110189378    -0.491444279819    -0.470779512174     1.007825032070
           H          3.038830693318    -1.653296250798    -1.052623557193     1.007825032070
           H          3.824759556559    -1.903587872303     0.505491396489     1.007825032070
           C         -3.627488730814    -0.254555250198     0.334591539184    12.000000000000
           H         -3.668761599253     0.806728583399     0.093592521408     1.007825032070
           H         -3.537658358256    -0.347360442693     1.418391974049     1.007825032070
           H         -4.580113433481    -0.694505742484     0.040328178013     1.007825032070
           C          2.301232384514    -0.348721363213     0.510133398477    12.000000000000
           H          2.680477903021     0.119017942450     1.422894114763     1.007825032070
           H          1.499118213999    -1.019541842013     0.823092806874     1.007825032070
           C         -2.461527770751    -0.948167705220    -0.363086612970    12.000000000000
           H         -2.530362296733    -2.024184961425    -0.187811885141     1.007825032070
           H         -2.543341962699    -0.807042127163    -1.444696306971     1.007825032070
           C          1.740159193378     0.743069277398    -0.397667694768    12.000000000000
           H          1.437117188379     0.300457806075    -1.353062033404     1.007825032070
           H          2.551858292832     1.436154767606    -0.633624111660     1.007825032070
           C          0.555382544345     1.510029416040     0.208550672978    12.000000000000
           H          0.628046698633     2.568006197750    -0.051734279912     1.007825032070
           H          0.616893896423     1.461133738561     1.300614472520     1.007825032070
           C         -0.815384103905     1.002059779431    -0.241603072696    12.000000000000
           H         -1.585705197825     1.633753274698     0.206462859030     1.007825032070
           H         -0.901591508675     1.130363361724    -1.326391969855     1.007825032070
           C         -1.089991352223    -0.458461426852     0.100420149037    12.000000000000
           H         -0.321608500858    -1.086252948928    -0.357294258050     1.007825032070
           H         -1.003416977701    -0.599511196504     1.183624554040     1.007825032070

  Running in c1 symmetry.

  Rotational constants: A =      0.12675  B =      0.02604  C =      0.02311 [cm^-1]
  Rotational constants: A =   3799.89700  B =    780.76777  C =    692.73701 [MHz]
  Nuclear repulsion =  393.723649391463880

  Charge       = 0
  Multiplicity = 1
  Electrons    = 66
  Nalpha       = 33
  Nbeta        = 33

  ==> Algorithm <==

  SCF Algorithm Type is DF.
  DIIS enabled.
  MOM disabled.
  Fractional occupation disabled.
  Guess Type is READ.
  Energy threshold   = 1.00e-10
  Density threshold  = 1.00e-10
  Integral threshold = 0.00e+00

  ==> Primary Basis <==

  Basis Set: AUG-CC-PVTZ
    Number of shells: 274
    Number of basis function: 782
    Number of Cartesian functions: 890
    Spherical Harmonics?: true
    Max angular momentum: 3

  ==> Pre-Iterations <==

   -------------------------------------------------------
    Irrep   Nso     Nmo     Nalpha   Nbeta   Ndocc  Nsocc
   -------------------------------------------------------
     A        782     782       0       0       0       0
   -------------------------------------------------------
    Total     782     782      33      33      33       0
   -------------------------------------------------------

  ==> Integral Setup <==

  ==> DFJK: Density-Fitted J/K Matrices <==

    J tasked:                  Yes
    K tasked:                  Yes
    wK tasked:                  No
    OpenMP threads:             12
    Integrals threads:          12
    Memory (MB):             21457
    Algorithm:                Core
    Integral Cache:           NONE
    Schwarz Cutoff:          1E-12
    Fitting Condition:       1E-12

   => Auxiliary Basis Set <=

  Basis Set: 
    Number of shells: 492
    Number of basis function: 1660
    Number of Cartesian functions: 2038
    Spherical Harmonics?: true
    Max angular momentum: 4

  Minimum eigenvalue in the overlap matrix is 1.8982011597E-06.
  Using Symmetric Orthogonalization.
  SCF Guess: Reading in previously saved MOs, projecting if necessary.

  Using orbitals from previous SCF, no projection.
  Recomputing DOCC and SOCC from number of alpha and beta electrons from previous calculation.
              A 
    DOCC [    33 ]

  ==> Iterations <==

                           Total Energy        Delta E     RMS |[F,P]|

   @DF-RHF iter   0:  -313.48632031710684   -3.13486e+02   1.08784e-04 
   @DF-RHF iter   1:  -313.53846676574670   -5.21464e-02   2.48195e-05 
   @DF-RHF iter   2:  -313.53875278256663   -2.86017e-04   1.13394e-05 DIIS
   @DF-RHF iter   3:  -313.53880236375375   -4.95812e-05   3.53625e-06 DIIS
   @DF-RHF iter   4:  -313.53881193381545   -9.57006e-06   4.89197e-07 DIIS
   @DF-RHF iter   5:  -313.53881209759965   -1.63784e-07   1.69650e-07 DIIS
   @DF-RHF iter   6:  -313.53881211281936   -1.52197e-08   3.46426e-08 DIIS
   @DF-RHF iter   7:  -313.53881211369486   -8.75502e-10   6.89305e-09 DIIS
   @DF-RHF iter   8:  -313.53881211372692   -3.20597e-11   2.08568e-09 DIIS
   @DF-RHF iter   9:  -313.53881211372919   -2.27374e-12   5.97221e-10 DIIS
   @DF-RHF iter  10:  -313.53881211372965   -4.54747e-13   1.51455e-10 DIIS
   @DF-RHF iter  11:  -313.53881211372919    4.54747e-13   4.35851e-11 DIIS

  ==> Post-Iterations <==

    Orbital Energies (a.u.)
    -----------------------

    Doubly Occupied:                                                      

       1A    -11.213257     2A    -11.211340     3A    -11.210958  
       4A    -11.210552     5A    -11.210101     6A    -11.209901  
       7A    -11.206776     8A    -11.206748     9A     -1.093553  
      10A     -1.058771    11A     -1.009598    12A     -0.944630  
      13A     -0.889198    14A     -0.824527    15A     -0.785236  
      16A     -0.764783    17A     -0.648503    18A     -0.620396  
      19A     -0.608377    20A     -0.596630    21A     -0.578777  
      22A     -0.561112    23A     -0.547436    24A     -0.528690  
      25A     -0.519140    26A     -0.496239    27A     -0.484671  
      28A     -0.475348    29A     -0.467396    30A     -0.461751  
      31A     -0.452436    32A     -0.434586    33A     -0.432485  

    Virtual:                                                              

      34A      0.029925    35A      0.032969    36A      0.033408  
      37A      0.035476    38A      0.045962    39A      0.047769  
      40A      0.049899    41A      0.053812    42A      0.056271  
      43A      0.065017    44A      0.067343    45A      0.072176  
      46A      0.073260    47A      0.079383    48A      0.083044  
      49A      0.091512    50A      0.095286    51A      0.104408  
      52A      0.113687    53A      0.114812    54A      0.119306  
      55A      0.123647    56A      0.128411    57A      0.130417  
      58A      0.133540    59A      0.138736    60A      0.139891  
      61A      0.143682    62A      0.151418    63A      0.152700  
      64A      0.155804    65A      0.157539    66A      0.159220  
      67A      0.163804    68A      0.169441    69A      0.173114  
      70A      0.175772    71A      0.179935    72A      0.181594  
      73A      0.185557    74A      0.188372    75A      0.198924  
      76A      0.200115    77A      0.214633    78A      0.215975  
      79A      0.233703    80A      0.236351    81A      0.243504  
      82A      0.246388    83A      0.251607    84A      0.253863  
      85A      0.266589    86A      0.269727    87A      0.276287  
      88A      0.281423    89A      0.286702    90A      0.291505  
      91A      0.297523    92A      0.305738    93A      0.311408  
      94A      0.314180    95A      0.319224    96A      0.321509  
      97A      0.323866    98A      0.329619    99A      0.330569  
     100A      0.334343   101A      0.341048   102A      0.345287  
     103A      0.347964   104A      0.354857   105A      0.355330  
     106A      0.361272   107A      0.364638   108A      0.365230  
     109A      0.365943   110A      0.370775   111A      0.374853  
     112A      0.376362   113A      0.383534   114A      0.384181  
     115A      0.389626   116A      0.392361   117A      0.393245  
     118A      0.396015   119A      0.404541   120A      0.410246  
     121A      0.414829   122A      0.419016   123A      0.424897  
     124A      0.429524   125A      0.432629   126A      0.437044  
     127A      0.438421   128A      0.442786   129A      0.448725  
     130A      0.450324   131A      0.455509   132A      0.456497  
     133A      0.462768   134A      0.465150   135A      0.467814  
     136A      0.471203   137A      0.476734   138A      0.480163  
     139A      0.483069   140A      0.485560   141A      0.493895  
     142A      0.495242   143A      0.497106   144A      0.500475  
     145A      0.504765   146A      0.506363   147A      0.512804  
     148A      0.519890   149A      0.522377   150A      0.524154  
     151A      0.527691   152A      0.533972   153A      0.536200  
     154A      0.542061   155A      0.547210   156A      0.550523  
     157A      0.555153   158A      0.557233   159A      0.563181  
     160A      0.567412   161A      0.571226   162A      0.578922  
     163A      0.583083   164A      0.586201   165A      0.592816  
     166A      0.599214   167A      0.601542   168A      0.607702  
     169A      0.607927   170A      0.617404   171A      0.621131  
     172A      0.623757   173A      0.631713   174A      0.636717  
     175A      0.639697   176A      0.641715   177A      0.649084  
     178A      0.651664   179A      0.656812   180A      0.664608  
     181A      0.669400   182A      0.672177   183A      0.681750  
     184A      0.683272   185A      0.688335   186A      0.691731  
     187A      0.702749   188A      0.708719   189A      0.716203  
     190A      0.720004   191A      0.727671   192A      0.732720  
     193A      0.743035   194A      0.746383   195A      0.752316  
     196A      0.758437   197A      0.763370   198A      0.767112  
     199A      0.775255   200A      0.783708   201A      0.800697  
     202A      0.812118   203A      0.819324   204A      0.825864  
     205A      0.832978   206A      0.838000   207A      0.846851  
     208A      0.849143   209A      0.853770   210A      0.863362  
     211A      0.867609   212A      0.873014   213A      0.876327  
     214A      0.887519   215A      0.891834   216A      0.898381  
     217A      0.899932   218A      0.902534   219A      0.904496  
     220A      0.906339   221A      0.915815   222A      0.916811  
     223A      0.921407   224A      0.926228   225A      0.933156  
     226A      0.941740   227A      0.942938   228A      0.948773  
     229A      0.952933   230A      0.956295   231A      0.963234  
     232A      0.964952   233A      0.972382   234A      0.973288  
     235A      0.979352   236A      0.987186   237A      0.989622  
     238A      0.994059   239A      1.000633   240A      1.003820  
     241A      1.013080   242A      1.015033   243A      1.018936  
     244A      1.023186   245A      1.029853   246A      1.035347  
     247A      1.042778   248A      1.045631   249A      1.054319  
     250A      1.059963   251A      1.061896   252A      1.074627  
     253A      1.079840   254A      1.082066   255A      1.087207  
     256A      1.091466   257A      1.095368   258A      1.103324  
     259A      1.110010   260A      1.112336   261A      1.115079  
     262A      1.121014   263A      1.125050   264A      1.131617  
     265A      1.143564   266A      1.147432   267A      1.152396  
     268A      1.156281   269A      1.165539   270A      1.168392  
     271A      1.170174   272A      1.176706   273A      1.182712  
[...]
	 Skipping Hessian update for step 16.
	Denominators (dg)(dq) or (dq)(dq) are very small.
	 Skipping Hessian update for step 15.
	Denominators (dg)(dq) or (dq)(dq) are very small.
	 Skipping Hessian update for step 14.
	Denominators (dg)(dq) or (dq)(dq) are very small.
	 Skipping Hessian update for step 13.
	Denominators (dg)(dq) or (dq)(dq) are very small.
	 Skipping Hessian update for step 12.
	Denominators (dg)(dq) or (dq)(dq) are very small.
	 Skipping Hessian update for step 11.
	Denominators (dg)(dq) or (dq)(dq) are very small.
	 Skipping Hessian update for step 10.
	Denominators (dg)(dq) or (dq)(dq) are very small.
	 Skipping Hessian update for step 9.
	Denominators (dg)(dq) or (dq)(dq) are very small.
	 Skipping Hessian update for step 8.
	Denominators (dg)(dq) or (dq)(dq) are very small.
	 Skipping Hessian update for step 7.
	Steps to be used in Hessian update: 6 5
	Taking RFO optimization step.
	Going to follow RFO solution 1.
	Using RFO vector 1.
	Norm of target step-size    0.00002
	Projected energy change by RFO approximation:        -0.0000000000

	Back-transformation to cartesian coordinates...
	Successfully converged to displaced geometry.

	--- Internal Coordinate Step in ANG or DEG, aJ/ANG or AJ/DEG ---
	 ---------------------------------------------------------------------------
	   Coordinate                Previous        Force       Change         New 
	   ----------                --------       ------       ------       ------
	    1 R(1,2)          =      1.090926     0.000002     0.000000     1.090926
	    2 R(1,3)          =      1.090915     0.000001     0.000000     1.090915
	    3 R(1,4)          =      1.089736     0.000001     0.000000     1.089736
	    4 R(1,9)          =      1.523295     0.000001     0.000000     1.523295
	    5 R(5,6)          =      1.089112     0.000000     0.000000     1.089112
	    6 R(5,7)          =      1.091314     0.000000     0.000000     1.091314
	    7 R(5,8)          =      1.089767    -0.000000     0.000000     1.089767
	    8 R(5,12)         =      1.525111    -0.000001    -0.000000     1.525111
	    9 R(9,10)         =      1.093322     0.000002     0.000000     1.093322
	   10 R(9,11)         =      1.091327     0.000002     0.000000     1.091327
	   11 R(9,15)         =      1.526295     0.000001     0.000000     1.526295
	   12 R(12,13)        =      1.092269     0.000001     0.000000     1.092269
	   13 R(12,14)        =      1.093669     0.000001     0.000000     1.093669
	   14 R(12,24)        =      1.527992    -0.000001    -0.000000     1.527992
	   15 R(15,16)        =      1.095548     0.000001     0.000000     1.095548
	   16 R(15,17)        =      1.093185     0.000000    -0.000000     1.093185
	   17 R(15,18)        =      1.535093     0.000000     0.000000     1.535093
	   18 R(18,19)        =      1.092034    -0.000001    -0.000000     1.092034
	   19 R(18,20)        =      1.094712    -0.000001    -0.000000     1.094712
	   20 R(18,21)        =      1.529043    -0.000001    -0.000000     1.529042
	   21 R(21,22)        =      1.092364     0.000001     0.000000     1.092364
	   22 R(21,23)        =      1.095453     0.000000     0.000000     1.095453
	   23 R(21,24)        =      1.524488    -0.000001    -0.000000     1.524488
	   24 R(24,25)        =      1.092668     0.000001     0.000000     1.092668
	   25 R(24,26)        =      1.095562     0.000001     0.000000     1.095562
	   26 B(1,9,10)       =    109.798177    -0.000000     0.000025   109.798201
	   27 B(1,9,11)       =    109.834362     0.000000    -0.000018   109.834345
	   28 B(1,9,15)       =    112.204041     0.000000     0.000018   112.204060
	   29 B(2,1,3)        =    107.651504    -0.000000    -0.000003   107.651501
	   30 B(2,1,4)        =    107.938457     0.000000    -0.000003   107.938454
	   31 B(2,1,9)        =    110.766318    -0.000000    -0.000011   110.766307
	   32 B(3,1,4)        =    107.915742    -0.000000    -0.000008   107.915733
	   33 B(3,1,9)        =    110.704343     0.000000     0.000029   110.704372
	   34 B(4,1,9)        =    111.709156    -0.000000    -0.000004   111.709152
	   35 B(5,12,13)      =    109.023569     0.000000     0.000007   109.023576
	   36 B(5,12,14)      =    109.679782    -0.000000    -0.000010   109.679772
	   37 B(5,12,24)      =    113.509759     0.000000     0.000013   113.509772
	   38 B(6,5,7)        =    107.838288    -0.000000    -0.000014   107.838274
	   39 B(6,5,8)        =    107.539115    -0.000000    -0.000004   107.539112
	   40 B(6,5,12)       =    111.756636     0.000000     0.000032   111.756668
	   41 B(7,5,8)        =    107.851846    -0.000000    -0.000007   107.851839
	   42 B(7,5,12)       =    110.572442     0.000000     0.000016   110.572458
	   43 B(8,5,12)       =    111.116218    -0.000000    -0.000025   111.116193
	   44 B(9,15,16)      =    109.362574    -0.000000    -0.000025   109.362549
	   45 B(9,15,17)      =    107.881881     0.000000     0.000033   107.881914
	   46 B(9,15,18)      =    114.038134     0.000000     0.000005   114.038139
	   47 B(10,9,11)      =    106.304244     0.000000     0.000008   106.304252
	   48 B(10,9,15)      =    108.554291     0.000000     0.000039   108.554330
	   49 B(11,9,15)      =    109.964878    -0.000000    -0.000071   109.964807
	   50 B(12,24,21)     =    113.418668    -0.000000    -0.000041   113.418627
	   51 B(12,24,25)     =    108.740311     0.000000     0.000036   108.740347
	   52 B(12,24,26)     =    109.238545     0.000000     0.000020   109.238565
	   53 B(13,12,14)     =    106.429856    -0.000000    -0.000014   106.429842
	   54 B(13,12,24)     =    108.914553     0.000000    -0.000000   108.914553
	   55 B(14,12,24)     =    109.038050     0.000000     0.000002   109.038052
	   56 B(15,18,19)     =    109.678318    -0.000000    -0.000015   109.678303
	   57 B(15,18,20)     =    109.142253     0.000000     0.000041   109.142294
	   58 B(15,18,21)     =    114.196566    -0.000000    -0.000029   114.196538
	   59 B(16,15,17)     =    105.995485     0.000000     0.000009   105.995493
	   60 B(16,15,18)     =    109.391115    -0.000000    -0.000019   109.391096
	   61 B(17,15,18)     =    109.854592    -0.000000    -0.000003   109.854589
	   62 B(18,21,22)     =    108.585745     0.000000     0.000033   108.585778
	   63 B(18,21,23)     =    108.782228    -0.000000    -0.000009   108.782219
	   64 B(18,21,24)     =    114.475377     0.000000     0.000017   114.475394
	   65 B(19,18,20)     =    106.214952    -0.000000    -0.000008   106.214943
	   66 B(19,18,21)     =    108.032465     0.000000    -0.000006   108.032459
	   67 B(20,18,21)     =    109.270411     0.000000     0.000018   109.270429
	   68 B(21,24,25)     =    109.203790     0.000000     0.000046   109.203836
	   69 B(21,24,26)     =    109.376614     0.000000    -0.000044   109.376569
	   70 B(22,21,23)     =    106.502539     0.000000    -0.000009   106.502530
	   71 B(22,21,24)     =    109.599890    -0.000000    -0.000036   109.599855
	   72 B(23,21,24)     =    108.596034    -0.000000     0.000002   108.596035
	   73 B(25,24,26)     =    106.638102    -0.000000    -0.000015   106.638087
	   74 D(1,9,15,16)    =     53.919809    -0.000000    -0.000295    53.919514
	   75 D(1,9,15,17)    =    -60.933185    -0.000000    -0.000311   -60.933496
	   76 D(1,9,15,18)    =    176.745261    -0.000000    -0.000334   176.744927
	   77 D(2,1,9,10)     =    -62.687412    -0.000000     0.000117   -62.687295
	   78 D(2,1,9,11)     =   -179.241199    -0.000000     0.000103  -179.241096
	   79 D(2,1,9,15)     =     58.124288     0.000000     0.000195    58.124483
	   80 D(3,1,9,10)     =    177.971876    -0.000000     0.000109   177.971985
	   81 D(3,1,9,11)     =     61.418089    -0.000000     0.000095    61.418184
	   82 D(3,1,9,15)     =    -61.216424     0.000000     0.000187   -61.216237
	   83 D(4,1,9,10)     =     57.677798    -0.000000     0.000102    57.677900
	   84 D(4,1,9,11)     =    -58.875990    -0.000000     0.000089   -58.875900
	   85 D(4,1,9,15)     =    178.489498     0.000000     0.000181   178.489678
	   86 D(5,12,24,21)   =    -65.845866     0.000000     0.000074   -65.845792
	   87 D(5,12,24,25)   =    172.454296     0.000000     0.000017   172.454313
	   88 D(5,12,24,26)   =     56.437177    -0.000000     0.000004    56.437181
	   89 D(6,5,12,13)    =   -174.233084     0.000000     0.000065  -174.233019
	   90 D(6,5,12,14)    =    -58.061852    -0.000000     0.000047   -58.061805
	   91 D(6,5,12,24)    =     64.171962     0.000000     0.000051    64.172013
	   92 D(7,5,12,13)    =     65.629028    -0.000000     0.000050    65.629078
	   93 D(7,5,12,14)    =   -178.199740    -0.000000     0.000033  -178.199708
	   94 D(7,5,12,24)    =    -55.965926    -0.000000     0.000037   -55.965889
	   95 D(8,5,12,13)    =    -54.103781     0.000000     0.000065   -54.103716
	   96 D(8,5,12,14)    =     62.067451    -0.000000     0.000047    62.067498
	   97 D(8,5,12,24)    =   -175.698735     0.000000     0.000051  -175.698684
	   98 D(9,15,18,19)   =    141.330573     0.000000    -0.000086   141.330487
	   99 D(9,15,18,20)   =     25.350849     0.000000    -0.000091    25.350758
	  100 D(9,15,18,21)   =    -97.262155     0.000000    -0.000125   -97.262280
	  101 D(10,9,15,16)   =    175.446681     0.000000    -0.000225   175.446455
	  102 D(10,9,15,17)   =     60.593687    -0.000000    -0.000241    60.593445
	  103 D(10,9,15,18)   =    -61.727867     0.000000    -0.000265   -61.728132
	  104 D(11,9,15,16)   =    -68.640822     0.000000    -0.000234   -68.641056
	  105 D(11,9,15,17)   =    176.506184    -0.000000    -0.000250   176.505934
	  106 D(11,9,15,18)   =     54.184630    -0.000000    -0.000273    54.184357
	  107 D(12,24,21,18)  =    179.266048     0.000000     0.000013   179.266061
	  108 D(12,24,21,22)  =     57.002004    -0.000000    -0.000014    57.001989
	  109 D(12,24,21,23)  =    -58.970910     0.000000     0.000014   -58.970896
	  110 D(13,12,24,21)  =    172.498331     0.000000     0.000057   172.498388
	  111 D(13,12,24,25)  =     50.798493    -0.000000    -0.000001    50.798493
	  112 D(13,12,24,26)  =    -65.218625    -0.000000    -0.000014   -65.218639
	  113 D(14,12,24,21)  =     56.743082     0.000000     0.000072    56.743154
	  114 D(14,12,24,25)  =    -64.956756    -0.000000     0.000015   -64.956741
	  115 D(14,12,24,26)  =    179.026125    -0.000000     0.000001   179.026127
	  116 D(15,18,21,22)  =   -178.154265     0.000000     0.000191  -178.154074
	  117 D(15,18,21,23)  =    -62.629618     0.000000     0.000194   -62.629424
	  118 D(15,18,21,24)  =     59.031493     0.000000     0.000201    59.031694
	  119 D(16,15,18,19)  =    -95.859540     0.000000    -0.000129   -95.859669
	  120 D(16,15,18,20)  =    148.160736     0.000000    -0.000134   148.160602
	  121 D(16,15,18,21)  =     25.547732    -0.000000    -0.000168    25.547565
	  122 D(17,15,18,19)  =     20.097409    -0.000000    -0.000131    20.097278
	  123 D(17,15,18,20)  =    -95.882315    -0.000000    -0.000136   -95.882451
	  124 D(17,15,18,21)  =    141.504681    -0.000000    -0.000170   141.504511
	  125 D(18,21,24,25)  =    -59.293414     0.000000     0.000065   -59.293349
	  126 D(18,21,24,26)  =     57.059684     0.000000     0.000048    57.059732
	  127 D(19,18,21,22)  =    -55.842522    -0.000000     0.000148   -55.842373
	  128 D(19,18,21,23)  =     59.682126    -0.000000     0.000151    59.682277
	  129 D(19,18,21,24)  =   -178.656764     0.000000     0.000158  -178.656606
	  130 D(20,18,21,22)  =     59.302600    -0.000000     0.000144    59.302744
	  131 D(20,18,21,23)  =    174.827247    -0.000000     0.000147   174.827395
	  132 D(20,18,21,24)  =    -63.511642     0.000000     0.000154   -63.511488
	  133 D(22,21,24,25)  =    178.442542    -0.000000     0.000037   178.442579
	  134 D(22,21,24,26)  =    -65.204360    -0.000000     0.000021   -65.204340
	  135 D(23,21,24,25)  =     62.469628     0.000000     0.000066    62.469694
	  136 D(23,21,24,26)  =    178.822726     0.000000     0.000049   178.822775
	  137 R(9,24)         =      3.421525     0.000000     0.000003     3.421529
	 ---------------------------------------------------------------------------

  ==> Convergence Check <==

  Measures of convergence in internal coordinates in au.
  Criteria marked as inactive (o), active & met (*), and active & unmet ( ).
  ---------------------------------------------------------------------------------------------
   Step     Total Energy     Delta E     MAX Force     RMS Force      MAX Disp      RMS Disp   
  ---------------------------------------------------------------------------------------------
    Convergence Criteria             o    2.00e-06 *    1.00e-06 *    6.00e-06 *    4.00e-06 *
  ---------------------------------------------------------------------------------------------
     22    -314.98061640    5.78e-09 o    2.42e-07 *    6.03e-08 *    5.83e-06 *    1.79e-06 *  ~
  ---------------------------------------------------------------------------------------------


  **** Optimization is complete! (in 22 steps) ****

  ==> Optimization Summary <==

  Measures of convergence in internal coordinates in au.
  --------------------------------------------------------------------------------------------------------------- ~
   Step         Total Energy             Delta E       MAX Force       RMS Force        MAX Disp        RMS Disp  ~
  --------------------------------------------------------------------------------------------------------------- ~
      1    -314.980339332503   -314.980339332503      0.00428637      0.00104112      0.03690161      0.01226185  ~
      2    -314.980592471128     -0.000253138626      0.00076806      0.00017090      0.03950750      0.01426437  ~
      3    -314.980563186150      0.000029284978      0.00074655      0.00017712      0.02926537      0.00929459  ~
      4    -314.980615196633     -0.000052010483      0.00015221      0.00003458      0.00690811      0.00190305  ~
      5    -314.980616038890     -0.000000842258      0.00007465      0.00001454      0.00302449      0.00117978  ~
      6    -314.980616339542     -0.000000300652      0.00003108      0.00000839      0.00141316      0.00044740  ~
      7    -314.980616400445     -0.000000060902      0.00000627      0.00000235      0.00061301      0.00013934  ~
      8    -314.980616403910     -0.000000003465      0.00000419      0.00000092      0.00019892      0.00004454  ~
      9    -314.980616406676     -0.000000002767      0.00000124      0.00000035      0.00006540      0.00001602  ~
     10    -314.980616404521      0.000000002156      0.00000185      0.00000052      0.00002395      0.00001009  ~
     11    -314.980616408004     -0.000000003484      0.00000370      0.00000087      0.00005116      0.00001519  ~
     12    -314.980616407480      0.000000000524      0.00000096      0.00000023      0.00001721      0.00000612  ~
     13    -314.980616406442      0.000000001038      0.00000045      0.00000010      0.00001151      0.00000315  ~
     14    -314.980616401931      0.000000004511      0.00000150      0.00000034      0.00002969      0.00001064  ~
     15    -314.980616404084     -0.000000002154      0.00000196      0.00000049      0.00003495      0.00001008  ~
     16    -314.980616402596      0.000000001489      0.00000346      0.00000093      0.00005102      0.00001316  ~
     17    -314.980616403636     -0.000000001041      0.00000182      0.00000050      0.00002897      0.00000764  ~
     18    -314.980616407778     -0.000000004142      0.00000180      0.00000044      0.00001958      0.00000633  ~
     19    -314.980616405234      0.000000002544      0.00000193      0.00000053      0.00001980      0.00000678  ~
     20    -314.980616405031      0.000000000203      0.00000080      0.00000021      0.00001021      0.00000365  ~
     21    -314.980616408549     -0.000000003518      0.00000116      0.00000027      0.00003312      0.00001117  ~
     22    -314.980616402773      0.000000005776      0.00000024      0.00000006      0.00000583      0.00000179  ~
  --------------------------------------------------------------------------------------------------------------- ~

	Writing optimization data to binary file.
	Final energy is   -314.9806164027732
	Final (previous) structure:
	Cartesian Geometry (in Angstrom)
	    C     3.4181331133  -1.1496036469  -0.1227684844
	    H     4.2346418946  -0.4920501120  -0.4245233595
	    H     3.0580280635  -1.6613415787  -1.0163809907
	    H     3.8249411787  -1.9014396250   0.5530818552
	    C    -3.6223924631  -0.2454122778   0.3509213734
	    H    -3.6518253173   0.8232147612   0.1427486472
	    H    -3.5216858017  -0.3731330655   1.4300467021
	    H    -4.5832248554  -0.6645917152   0.0531276792
	    C     2.2962069479  -0.3527446719   0.5304735706
	    H     2.6635779972   0.1242690198   1.4430789443
	    H     1.4943591756  -1.0260693050   0.8381558104
	    C    -2.4731955728  -0.9322057100  -0.3795743243
	    H    -2.5461043059  -2.0108068832  -0.2235152588
	    H    -2.5708929159  -0.7681563272  -1.4564469490
	    C     1.7428805751   0.7285170020  -0.3937988929
	    H     1.4454383128   0.2752481488  -1.3457967898
	    H     2.5579985538   1.4176362575  -0.6299172024
	    C     0.5564880734   1.5059055482   0.1932707588
	    H     0.6366749181   2.5603161312  -0.0793596883
	    H     0.6079259193   1.4679648330   1.2861148774
	    C    -0.8120613494   1.0011937800  -0.2653243994
	    H    -1.5833617315   1.6352921116   0.1777047794
	    H    -0.8896176576   1.1290042323  -1.3505276297
	    C    -1.0930335509  -0.4583439672   0.0735992511
	    H    -0.3338723527  -1.0888310429  -0.3955316969
	    H    -0.9980967283  -0.6051323831   1.1551240665
	Saving final (previous) structure.
			--------------------------
			 OPTKING Finished Execution 
			--------------------------

    Final optimized geometry and variables:
    Molecular point group: c1
    Full point group: C1

    Geometry (in Angstrom), charge = 0, multiplicity = 1:

    C            3.418133113257    -1.149603646863    -0.122768484439
    H            4.234641894555    -0.492050112031    -0.424523359455
    H            3.058028063525    -1.661341578667    -1.016380990740
    H            3.824941178745    -1.901439624977     0.553081855156
    C           -3.622392463136    -0.245412277811     0.350921373389
    H           -3.651825317268     0.823214761171     0.142748647199
    H           -3.521685801683    -0.373133065451     1.430046702092
    H           -4.583224855423    -0.664591715211     0.053127679163
    C            2.296206947874    -0.352744671945     0.530473570582
    H            2.663577997164     0.124269019817     1.443078944327
    H            1.494359175580    -1.026069305026     0.838155810417
    C           -2.473195572777    -0.932205710037    -0.379574324299
    H           -2.546104305897    -2.010806883225    -0.223515258823
    H           -2.570892915909    -0.768156327176    -1.456446948979
    C            1.742880575096     0.728517001968    -0.393798892858
    H            1.445438312847     0.275248148781    -1.345796789789
    H            2.557998553831     1.417636257464    -0.629917202364
    C            0.556488073398     1.505905548201     0.193270758792
    H            0.636674918113     2.560316131161    -0.079359688272
    H            0.607925919257     1.467964833041     1.286114877427
    C           -0.812061349359     1.001193780042    -0.265324399360
    H           -1.583361731514     1.635292111647     0.177704779430
    H           -0.889617657639     1.129004232255    -1.350527629750
    C           -1.093033550922    -0.458343967235     0.073599251119
    H           -0.333872352685    -1.088831042945    -0.395531696910
    H           -0.998096728329    -0.605132383132     1.155124066537

	Cleaning optimization helper files.

*** Psi4 exiting successfully. Buy a developer a beer!
