    -----------------------------------------------------------------------
          Psi4: An Open-Source Ab Initio Electronic Structure Package
                              Psi4 1.0.0 Driver

                          Git: Rev {master} 6a9a71b dirty

    J. M. Turney, A. C. Simmonett, R. M. Parrish, E. G. Hohenstein,
    F. A. Evangelista, J. T. Fermann, B. J. Mintz, L. A. Burns, J. J. Wilke,
    M. L. Abrams, N. J. Russ, M. L. Leininger, C. L. Janssen, E. T. Seidl,
    W. D. Allen, H. F. Schaefer, R. A. King, E. F. Valeev, C. D. Sherrill,
    and T. D. Crawford, WIREs Comput. Mol. Sci. 2, 556-565 (2012)
    (doi: 10.1002/wcms.93)

                         Additional Contributions by
    A. E. DePrince, U. Bozkaya, A. Yu. Sokolov, D. G. A. Smith, R. Di Remigio,
    R. M. Richard, J. F. Gonthier, H. R. McAlexander, M. Saitow, and
    B. P. Pritchard
    -----------------------------------------------------------------------


    Psi4 started on: Tue Sep 20 22:40:03 2016

    Process ID:  26261
    PSI4DATADIR: /usr/local/hpc5/psi4conda/share/psi4
    Memory level set to 256.000 MB

  ==> Input File <==

--------------------------------------------------------------------------
memory 60 Gb

molecule molecule_45_psi {
0 1
C            3.526636775403    -0.112519742439    -0.010608463076
H            4.454905290029     0.240720599559     0.437757588441
H            3.677843434884    -0.172892116828    -1.089821231811
H            3.346294807434    -1.121404837316     0.358039961889
C           -2.515936298511     1.411285864915    -0.436588220053
H           -2.661908483194     2.443191680999    -0.117432982700
H           -3.434868443676     1.077522081193    -0.921429344010
H           -1.726217334516     1.405618011399    -1.187182758992
C            2.366975924278     0.822272629503     0.317420565526
H            2.637531989761     1.841943014899     0.034136862032
H            2.200796801793     0.834991042673     1.398453319906
C           -2.179554059476     0.508782022000     0.745222398998
H           -1.272381858298     0.861033512768     1.242157958446
H           -2.977692103102     0.583864270232     1.487482613937
C            1.063384515224     0.443065964302    -0.381672061354
H            1.218555583511     0.456153445596    -1.465875777459
H            0.312118025173     1.205493069271    -0.169689761086
C            0.531841583310    -0.931469953379     0.019660539584
H            0.478880866454    -0.993121164165     1.112751437207
H            1.253790723400    -1.688053757882    -0.292788661523
C           -0.842834604650    -1.269997965313    -0.575135453139
H           -0.963826647755    -0.748944913914    -1.528980453331
H           -0.883439569397    -2.336027772883    -0.809054211655
C           -2.018845542678    -0.958531884686     0.353037015829
H           -2.945567060108    -1.294976165500    -0.122182320820
H           -1.901202092268    -1.557869657879     1.260541540145
}

set globals {
  reference rhf
  g_convergence gau_verytight
  basis aug-cc-pvtz
  freeze_core true
  scf_type df
  mp_type df
}
optimize('mp2')
--------------------------------------------------------------------------
/usr/local/hpc5/psi4conda/lib/python2.7/site-packages/v2rdm_casscf/v2rdm_casscf.so loaded.

  Memory set to  60.000 GiB by Python script.
gradient() will perform analytic gradient computation.

*** tstart() called on wr25
*** at Tue Sep 20 22:40:03 2016


         ---------------------------------------------------------
                                   SCF
            by Justin Turney, Rob Parrish, and Andy Simmonett
                              RHF Reference
                       12 Threads,  60000 MiB Core
         ---------------------------------------------------------

  ==> Geometry <==

    Molecular point group: c1
    Full point group: C1

    Geometry (in Angstrom), charge = 0, multiplicity = 1:

       Center              X                  Y                   Z               Mass       
    ------------   -----------------  -----------------  -----------------  -----------------
           C          3.526636775403    -0.112519742439    -0.010608463076    12.000000000000
           H          4.454905290029     0.240720599559     0.437757588441     1.007825032070
           H          3.677843434884    -0.172892116828    -1.089821231811     1.007825032070
           H          3.346294807434    -1.121404837316     0.358039961889     1.007825032070
           C         -2.515936298511     1.411285864915    -0.436588220053    12.000000000000
           H         -2.661908483194     2.443191680999    -0.117432982700     1.007825032070
           H         -3.434868443676     1.077522081193    -0.921429344010     1.007825032070
           H         -1.726217334516     1.405618011399    -1.187182758992     1.007825032070
           C          2.366975924278     0.822272629503     0.317420565526    12.000000000000
           H          2.637531989761     1.841943014899     0.034136862032     1.007825032070
           H          2.200796801793     0.834991042673     1.398453319906     1.007825032070
           C         -2.179554059476     0.508782022000     0.745222398998    12.000000000000
           H         -1.272381858298     0.861033512768     1.242157958446     1.007825032070
           H         -2.977692103102     0.583864270232     1.487482613937     1.007825032070
           C          1.063384515224     0.443065964302    -0.381672061354    12.000000000000
           H          1.218555583511     0.456153445596    -1.465875777459     1.007825032070
           H          0.312118025173     1.205493069271    -0.169689761086     1.007825032070
           C          0.531841583310    -0.931469953379     0.019660539584    12.000000000000
           H          0.478880866454    -0.993121164165     1.112751437207     1.007825032070
           H          1.253790723400    -1.688053757882    -0.292788661523     1.007825032070
           C         -0.842834604650    -1.269997965313    -0.575135453139    12.000000000000
           H         -0.963826647755    -0.748944913914    -1.528980453331     1.007825032070
           H         -0.883439569397    -2.336027772883    -0.809054211655     1.007825032070
           C         -2.018845542678    -0.958531884686     0.353037015829    12.000000000000
           H         -2.945567060108    -1.294976165500    -0.122182320820     1.007825032070
           H         -1.901202092268    -1.557869657879     1.260541540145     1.007825032070

  Running in c1 symmetry.

  Rotational constants: A =      0.11635  B =      0.02979  C =      0.02631 [cm^-1]
  Rotational constants: A =   3488.11453  B =    893.09716  C =    788.64910 [MHz]
  Nuclear repulsion =  400.777397818046950

  Charge       = 0
  Multiplicity = 1
  Electrons    = 66
  Nalpha       = 33
  Nbeta        = 33

  ==> Algorithm <==

  SCF Algorithm Type is DF.
  DIIS enabled.
  MOM disabled.
  Fractional occupation disabled.
  Guess Type is SAD.
  Energy threshold   = 1.00e-10
  Density threshold  = 1.00e-10
  Integral threshold = 0.00e+00

  ==> Primary Basis <==

  Basis Set: AUG-CC-PVTZ
    Number of shells: 274
    Number of basis function: 782
    Number of Cartesian functions: 890
    Spherical Harmonics?: true
    Max angular momentum: 3

  ==> Pre-Iterations <==

   -------------------------------------------------------
    Irrep   Nso     Nmo     Nalpha   Nbeta   Ndocc  Nsocc
   -------------------------------------------------------
     A        782     782       0       0       0       0
   -------------------------------------------------------
    Total     782     782      33      33      33       0
   -------------------------------------------------------

  ==> Integral Setup <==

  ==> DFJK: Density-Fitted J/K Matrices <==

    J tasked:                  Yes
    K tasked:                  Yes
    wK tasked:                  No
    OpenMP threads:             12
    Integrals threads:          12
    Memory (MB):             42915
    Algorithm:                Core
    Integral Cache:           NONE
    Schwarz Cutoff:          1E-12
    Fitting Condition:       1E-12

   => Auxiliary Basis Set <=

  Basis Set: 
    Number of shells: 492
    Number of basis function: 1660
    Number of Cartesian functions: 2038
    Spherical Harmonics?: true
    Max angular momentum: 4

  Minimum eigenvalue in the overlap matrix is 1.4688376693E-06.
  Using Symmetric Orthogonalization.
  SCF Guess: Superposition of Atomic Densities via on-the-fly atomic UHF.

  ==> Iterations <==

                           Total Energy        Delta E     RMS |[F,P]|

   @DF-RHF iter   0:  -317.02792401096161   -3.17028e+02   7.03720e-03 
   @DF-RHF iter   1:  -313.29420122280595    3.73372e+00   7.09914e-04 
   @DF-RHF iter   2:  -313.50755744804115   -2.13356e-01   2.46037e-04 DIIS
   @DF-RHF iter   3:  -313.53184947023516   -2.42920e-02   9.65651e-05 DIIS
   @DF-RHF iter   4:  -313.53641955858944   -4.57009e-03   1.65221e-05 DIIS
   @DF-RHF iter   5:  -313.53660076932755   -1.81211e-04   4.07606e-06 DIIS
   @DF-RHF iter   6:  -313.53661126691367   -1.04976e-05   1.32672e-06 DIIS
   @DF-RHF iter   7:  -313.53661220465818   -9.37745e-07   2.73962e-07 DIIS
   @DF-RHF iter   8:  -313.53661225677587   -5.21177e-08   7.42010e-08 DIIS
   @DF-RHF iter   9:  -313.53661226038520   -3.60933e-09   2.34938e-08 DIIS
   @DF-RHF iter  10:  -313.53661226073081   -3.45608e-10   7.02047e-09 DIIS
   @DF-RHF iter  11:  -313.53661226076628   -3.54703e-11   1.55218e-09 DIIS
   @DF-RHF iter  12:  -313.53661226076605    2.27374e-13   3.96313e-10 DIIS
   @DF-RHF iter  13:  -313.53661226076684   -7.95808e-13   1.29993e-10 DIIS
   @DF-RHF iter  14:  -313.53661226076684    0.00000e+00   3.16925e-11 DIIS

  ==> Post-Iterations <==

    Orbital Energies (a.u.)
    -----------------------

    Doubly Occupied:                                                      

       1A    -11.212798     2A    -11.212441     3A    -11.210981  
       4A    -11.210146     5A    -11.209729     6A    -11.209255  
       7A    -11.206588     8A    -11.206505     9A     -1.093943  
      10A     -1.059260    11A     -1.005863    12A     -0.947532  
      13A     -0.888229    14A     -0.836272    15A     -0.778307  
      16A     -0.757247    17A     -0.650761    18A     -0.624957  
      19A     -0.610603    20A     -0.597010    21A     -0.573078  
      22A     -0.561480    23A     -0.549898    24A     -0.530270  
      25A     -0.515496    26A     -0.496091    27A     -0.493720  
      28A     -0.476153    29A     -0.464869    30A     -0.460437  
      31A     -0.446903    32A     -0.436400    33A     -0.431515  

    Virtual:                                                              

      34A      0.029721    35A      0.032804    36A      0.034179  
      37A      0.034844    38A      0.047578    39A      0.047688  
      40A      0.049616    41A      0.054305    42A      0.055697  
      43A      0.066885    44A      0.068439    45A      0.069529  
      46A      0.075947    47A      0.077205    48A      0.082234  
      49A      0.094154    50A      0.097133    51A      0.099163  
      52A      0.114037    53A      0.116247    54A      0.120266  
      55A      0.121110    56A      0.130070    57A      0.130634  
      58A      0.134317    59A      0.136531    60A      0.139224  
      61A      0.145898    62A      0.149950    63A      0.152472  
      64A      0.155429    65A      0.157041    66A      0.163501  
      67A      0.165906    68A      0.167101    69A      0.171485  
      70A      0.173559    71A      0.177836    72A      0.182126  
      73A      0.184756    74A      0.186216    75A      0.194054  
      76A      0.196564    77A      0.208619    78A      0.214741  
      79A      0.221249    80A      0.234609    81A      0.241670  
      82A      0.248381    83A      0.256116    84A      0.260687  
      85A      0.271660    86A      0.274645    87A      0.283802  
      88A      0.290110    89A      0.292363    90A      0.293330  
      91A      0.298794    92A      0.303898    93A      0.314097  
      94A      0.316240    95A      0.319914    96A      0.324744  
      97A      0.329777    98A      0.331765    99A      0.333574  
     100A      0.339338   101A      0.340021   102A      0.346486  
     103A      0.348413   104A      0.351667   105A      0.353753  
     106A      0.360552   107A      0.362066   108A      0.366042  
     109A      0.367376   110A      0.369342   111A      0.374853  
     112A      0.375774   113A      0.381269   114A      0.386247  
     115A      0.388594   116A      0.391050   117A      0.393811  
     118A      0.401461   119A      0.403978   120A      0.413204  
     121A      0.415892   122A      0.423859   123A      0.429150  
     124A      0.432621   125A      0.436411   126A      0.439899  
     127A      0.443357   128A      0.446396   129A      0.451284  
     130A      0.456161   131A      0.459854   132A      0.462623  
     133A      0.465617   134A      0.466587   135A      0.474924  
     136A      0.477493   137A      0.481551   138A      0.485634  
     139A      0.487187   140A      0.489837   141A      0.493040  
     142A      0.495011   143A      0.500894   144A      0.503178  
     145A      0.509189   146A      0.516552   147A      0.519233  
     148A      0.523176   149A      0.525324   150A      0.527166  
     151A      0.536126   152A      0.539400   153A      0.542393  
     154A      0.549317   155A      0.551359   156A      0.557961  
     157A      0.562389   158A      0.567165   159A      0.573100  
     160A      0.577917   161A      0.581279   162A      0.585241  
     163A      0.588001   164A      0.595740   165A      0.598386  
     166A      0.599307   167A      0.600339   168A      0.609689  
     169A      0.611361   170A      0.622785   171A      0.626411  
     172A      0.629798   173A      0.636984   174A      0.642050  
     175A      0.647500   176A      0.651055   177A      0.658334  
     178A      0.659973   179A      0.665965   180A      0.671884  
     181A      0.675542   182A      0.678745   183A      0.685495  
     184A      0.690879   185A      0.694593   186A      0.696325  
     187A      0.704669   188A      0.707141   189A      0.714515  
     190A      0.721550   191A      0.726436   192A      0.730244  
     193A      0.735200   194A      0.741547   195A      0.749314  
     196A      0.761128   197A      0.769495   198A      0.775859  
     199A      0.782335   200A      0.789831   201A      0.795880  
     202A      0.813494   203A      0.821060   204A      0.824934  
     205A      0.830301   206A      0.836953   207A      0.843988  
     208A      0.844825   209A      0.860389   210A      0.865248  
     211A      0.871495   212A      0.874881   213A      0.884332  
     214A      0.886441   215A      0.891616   216A      0.896578  
     217A      0.906233   218A      0.910187   219A      0.918294  
     220A      0.919364   221A      0.921825   222A      0.924438  
     223A      0.929126   224A      0.932686   225A      0.939150  
     226A      0.943670   227A      0.953762   228A      0.954693  
     229A      0.961572   230A      0.965842   231A      0.973025  
     232A      0.977394   233A      0.984243   234A      0.985185  
     235A      0.988030   236A      0.994681   237A      1.007014  
     238A      1.007268   239A      1.012512   240A      1.020471  
     241A      1.025322   242A      1.026612   243A      1.033921  
     244A      1.037114   245A      1.044170   246A      1.046346  
     247A      1.050006   248A      1.053692   249A      1.062986  
     250A      1.066780   251A      1.074256   252A      1.080554  
     253A      1.083811   254A      1.089521   255A      1.092189  
     256A      1.094682   257A      1.099791   258A      1.103995  
     259A      1.112441   260A      1.118967   261A      1.121828  
     262A      1.132054   263A      1.136886   264A      1.140973  
     265A      1.151494   266A      1.155610   267A      1.161476  
     268A      1.173290   269A      1.175036   270A      1.181395  
     271A      1.188350   272A      1.191360   273A      1.196139  
     274A      1.202461   275A      1.205557   276A      1.206217  
     277A      1.213619   278A      1.221061   279A      1.223738  
     280A      1.227242   281A      1.235760   282A      1.238901  
     283A      1.245485   284A      1.246876   285A      1.253458  
     286A      1.261281   287A      1.268875   288A      1.272531  
     289A      1.279154   290A      1.281556   291A      1.284112  
     292A      1.290789   293A      1.295542   294A      1.306817  
     295A      1.308780   296A      1.313010   297A      1.325927  
     298A      1.328857   299A      1.335883   300A      1.343366  
     301A      1.345219   302A      1.352452   303A      1.361840  
     304A      1.365898   305A      1.377221   306A      1.380281  
     307A      1.387971   308A      1.395633   309A      1.406139  
     310A      1.413873   311A      1.419265   312A      1.424015  
     313A      1.429609   314A      1.436373   315A      1.446289  
     316A      1.456592   317A      1.463771   318A      1.466179  
     319A      1.477012   320A      1.484863   321A      1.488530  
     322A      1.500447   323A      1.501328   324A      1.513379  
     325A      1.517351   326A      1.525988   327A      1.535731  
     328A      1.539177   329A      1.549261   330A      1.550603  
     331A      1.564188   332A      1.566389   333A      1.572975  
     334A      1.575092   335A      1.584476   336A      1.586881  
     337A      1.595697   338A      1.602192   339A      1.625651  
     340A      1.630107   341A      1.640367   342A      1.650188  
     343A      1.655201   344A      1.659470   345A      1.667864  
     346A      1.672956   347A      1.680071   348A      1.685544  
     349A      1.688280   350A      1.694097   351A      1.701382  
     352A      1.703866   353A      1.710625   354A      1.719404  
     355A      1.726672   356A      1.728593   357A      1.737202  
     358A      1.744422   359A      1.747689   360A      1.753377  
     361A      1.757068   362A      1.766542   363A      1.779124  
     364A      1.783598   365A      1.792411   366A      1.794470  
     367A      1.800592   368A      1.804830   369A      1.811471  
     370A      1.814715   371A      1.824845   372A      1.830185  
     373A      1.840601   374A      1.843970   375A      1.849006  
     376A      1.855550   377A      1.858681   378A      1.866489  
     379A      1.872705   380A      1.882323   381A      1.884680  
     382A      1.887926   383A      1.890635   384A      1.905573  
     385A      1.909401   386A      1.911136   387A      1.919089  
     388A      1.924996   389A      1.929768   390A      1.937691  
     391A      1.949092   392A      1.953618   393A      1.960731  
     394A      1.974913   395A      1.977409   396A      1.985387  
     397A      1.990986   398A      2.000073   399A      2.004693  
     400A      2.014881   401A      2.015344   402A      2.023659  
     403A      2.030688   404A      2.036291   405A      2.042291  
     406A      2.052457   407A      2.057956   408A      2.064819  
     409A      2.073410   410A      2.078634   411A      2.083257  
     412A      2.095146   413A      2.102428   414A      2.104618  
     415A      2.110197   416A      2.122205   417A      2.124577  
     418A      2.138767   419A      2.146403   420A      2.149225  
     421A      2.163713   422A      2.167345   423A      2.174107  
     424A      2.183989   425A      2.192157   426A      2.196761  
     427A      2.218771   428A      2.221064   429A      2.228403  
     430A      2.241994   431A      2.249684   432A      2.255868  
     433A      2.258979   434A      2.276027   435A      2.280243  
     436A      2.286728   437A      2.296254   438A      2.316311  
     439A      2.324892   440A      2.328827   441A      2.342779  
     442A      2.349049   443A      2.352875   444A      2.363899  
     445A      2.368533   446A      2.374430   447A      2.378366  
     448A      2.389933   449A      2.396859   450A      2.403976  
     451A      2.415334   452A      2.435705   453A      2.435828  
     454A      2.447208   455A      2.455700   456A      2.466382  
     457A      2.473705   458A      2.489842   459A      2.492345  
     460A      2.503647   461A      2.512939   462A      2.522050  
     463A      2.528480   464A      2.546560   465A      2.553176  
     466A      2.575930   467A      2.585851   468A      2.590689  
     469A      2.598732   470A      2.608846   471A      2.635495  
     472A      2.646394   473A      2.661874   474A      2.672564  
     475A      2.680285   476A      2.697996   477A      2.718609  
     478A      2.736752   479A      2.738236   480A      2.757575  
     481A      2.768548   482A      2.812455   483A      2.821599  
     484A      2.847082   485A      2.916410   486A      2.962614  
     487A      2.983592   488A      3.017388   489A      3.118406  
     490A      3.131827   491A      3.185581   492A      3.249520  
     493A      3.272034   494A      3.325243   495A      3.340129  
     496A      3.397866   497A      3.422914   498A      3.442259  
     499A      3.449331   500A      3.473673   501A      3.492564  
     502A      3.508801   503A      3.518545   504A      3.529933  
     505A      3.546810   506A      3.559270   507A      3.570295  
     508A      3.584878   509A      3.594044   510A      3.609132  
     511A      3.611121   512A      3.629849   513A      3.646799  
     514A      3.654465   515A      3.658987   516A      3.671343  
     517A      3.685341   518A      3.698008   519A      3.702667  
     520A      3.712234   521A      3.716994   522A      3.724060  
     523A      3.731189   524A      3.746773   525A      3.757262  
     526A      3.768790   527A      3.777218   528A      3.780545  
     529A      3.786416   530A      3.791932   531A      3.816691  
     532A      3.826018   533A      3.839769   534A      3.846702  
     535A      3.854753   536A      3.856837   537A      3.869519  
     538A      3.877492   539A      3.880618   540A      3.888384  
     541A      3.895215   542A      3.896450   543A      3.901958  
     544A      3.907179   545A      3.924391   546A      3.930111  
     547A      3.936170   548A      3.947602   549A      3.959245  
     550A      3.962748   551A      3.973071   552A      3.977196  
     553A      3.985934   554A      3.996379   555A      3.998343  
     556A      4.001623   557A      4.004581   558A      4.014347  
     559A      4.028904   560A      4.037381   561A      4.042500  
     562A      4.044632   563A      4.054274   564A      4.062560  
     565A      4.069435   566A      4.071470   567A      4.076545  
     568A      4.086422   569A      4.091832   570A      4.108274  
     571A      4.121707   572A      4.122648   573A      4.138418  
     574A      4.147337   575A      4.147741   576A      4.159086  
     577A      4.165357   578A      4.172391   579A      4.179548  
     580A      4.184771   581A      4.194900   582A      4.207006  
     583A      4.211836   584A      4.216536   585A      4.229625  
     586A      4.243212   587A      4.245400   588A      4.253500  
     589A      4.262274   590A      4.279297   591A      4.292145  
     592A      4.298043   593A      4.311110   594A      4.312633  
     595A      4.320123   596A      4.334225   597A      4.353926  
     598A      4.359765   599A      4.364323   600A      4.367436  
     601A      4.383988   602A      4.394195   603A      4.401092  
     604A      4.418751   605A      4.424613   606A      4.441716  
     607A      4.447579   608A      4.453055   609A      4.475092  
     610A      4.488467   611A      4.512712   612A      4.524385  
     613A      4.551583   614A      4.553335   615A      4.564648  
     616A      4.576087   617A      4.590977   618A      4.600263  
     619A      4.618513   620A      4.630835   621A      4.634877  
     622A      4.644318   623A      4.664970   624A      4.676430  
     625A      4.688452   626A      4.695191   627A      4.706971  
     628A      4.727166   629A      4.731034   630A      4.738131  
     631A      4.747655   632A      4.763624   633A      4.768434  
     634A      4.779327   635A      4.791063   636A      4.803964  
     637A      4.819073   638A      4.830627   639A      4.838267  
     640A      4.843803   641A      4.862418   642A      4.873752  
     643A      4.887902   644A      4.898258   645A      4.904916  
     646A      4.914562   647A      4.924479   648A      4.936123  
     649A      4.941856   650A      4.953045   651A      4.967005  
     652A      4.974528   653A      4.983114   654A      5.003324  
     655A      5.008232   656A      5.018761   657A      5.035742  
     658A      5.043530   659A      5.047572   660A      5.068772  
     661A      5.088398   662A      5.101556   663A      5.110588  
     664A      5.125394   665A      5.130075   666A      5.148335  
     667A      5.154553   668A      5.173512   669A      5.179828  
     670A      5.187315   671A      5.196112   672A      5.210533  
     673A      5.226817   674A      5.247297   675A      5.253663  
     676A      5.262128   677A      5.272821   678A      5.278594  
     679A      5.290409   680A      5.301495   681A      5.309242  
     682A      5.322204   683A      5.330235   684A      5.348040  
     685A      5.356850   686A      5.363249   687A      5.372713  
     688A      5.383401   689A      5.390777   690A      5.407979  
     691A      5.412073   692A      5.418706   693A      5.432825  
     694A      5.449658   695A      5.459156   696A      5.474813  
     697A      5.487467   698A      5.499598   699A      5.514753  
     700A      5.515903   701A      5.533960   702A      5.553018  
     703A      5.562988   704A      5.573395   705A      5.583206  
     706A      5.596044   707A      5.602788   708A      5.618626  
     709A      5.632351   710A      5.647523   711A      5.655843  
     712A      5.667006   713A      5.680192   714A      5.685880  
     715A      5.696130   716A      5.715964   717A      5.727686  
     718A      5.731271   719A      5.743896   720A      5.749694  
     721A      5.778921   722A      5.782612   723A      5.799701  
     724A      5.808912   725A      5.826559   726A      5.838893  
     727A      5.856172   728A      5.867099   729A      5.872089  
     730A      5.886411   731A      5.923878   732A      5.958149  
     733A      5.983687   734A      6.021212   735A      6.029845  
     736A      6.056793   737A      6.060352   738A      6.074248  
     739A      6.088643   740A      6.125615   741A      6.143565  
     742A      6.149480   743A      6.185523   744A      6.202386  
     745A      6.218102   746A      6.238649   747A      6.257271  
     748A      6.278760   749A      6.303879   750A      6.313175  
     751A      6.330271   752A      6.345785   753A      6.359409  
     754A      6.378063   755A      6.398238   756A      6.407977  
     757A      6.420123   758A      6.483309   759A      6.596044  
     760A      6.622756   761A      6.683204   762A      6.729973  
     763A      6.745669   764A      6.778553   765A      6.804085  
     766A      6.899394   767A      6.913832   768A      6.931569  
     769A      6.993914   770A      7.007415   771A      7.023948  
     772A      7.080708   773A      7.096213   774A      7.142576  
     775A     17.994969   776A     18.087913   777A     18.225229  
     778A     18.562687   779A     18.773065   780A     19.156204  
     781A     19.745650   782A     19.879928  

    Final Occupation by Irrep:
              A 
    DOCC [    33 ]

  Energy converged.

  @DF-RHF Final Energy:  -313.53661226076684

   => Energetics <=

    Nuclear Repulsion Energy =            400.7773978180469499
    One-Electron Energy =               -1216.6985474085092847
    Two-Electron Energy =                 502.3845373296962862
    DFT Exchange-Correlation Energy =       0.0000000000000000
    Empirical Dispersion Energy =           0.0000000000000000
    PCM Polarization Energy =               0.0000000000000000
    EFP Energy =                            0.0000000000000000
    Total Energy =                       -313.5366122607661055


  Saving occupied orbitals to File 180.

*** tstop() called on wr25 at Tue Sep 20 22:41:27 2016
Module time:
	user time   =     913.46 seconds =      15.22 minutes
	system time =      10.89 seconds =       0.18 minutes
	total time  =         84 seconds =       1.40 minutes
Total time:
	user time   =     913.46 seconds =      15.22 minutes
	system time =      10.89 seconds =       0.18 minutes
	total time  =         84 seconds =       1.40 minutes


Properties will be evaluated at   0.000000,   0.000000,   0.000000 Bohr

Properties computed using the SCF density matrix

  Nuclear Dipole Moment: (a.u.)
     X:     0.7627      Y:     0.9724      Z:    -0.3498

  Electronic Dipole Moment: (a.u.)
     X:    -0.7761      Y:    -0.9757      Z:     0.3701

  Dipole Moment: (a.u.)
     X:    -0.0134      Y:    -0.0033      Z:     0.0204     Total:     0.0246

  Dipole Moment: (Debye)
     X:    -0.0340      Y:    -0.0083      Z:     0.0517     Total:     0.0624


  //>>>>>>>>>>>>>>>>>>>>>>>>>>>>>>>>>>>//
  //               DFMP2               //
  //<<<<<<<<<<<<<<<<<<<<<<<<<<<<<<<<<<<//


*** tstart() called on wr25
*** at Tue Sep 20 22:41:27 2016


*** tstop() called on wr25 at Tue Sep 20 22:41:27 2016
Module time:
	user time   =       4.66 seconds =       0.08 minutes
	system time =       0.24 seconds =       0.00 minutes
	total time  =          0 seconds =       0.00 minutes
Total time:
	user time   =     918.44 seconds =      15.31 minutes
	system time =      11.15 seconds =       0.19 minutes
	total time  =         84 seconds =       1.40 minutes
	 --------------------------------------------------------
	                          DF-MP2                         
	      2nd-Order Density-Fitted Moller-Plesset Theory     
	              RMP2 Wavefunction,  12 Threads             
	                                                         
	        Rob Parrish, Justin Turney, Andy Simmonett,      
	           Ed Hohenstein, and C. David Sherrill          
	 --------------------------------------------------------

   => Auxiliary Basis Set <=

  Basis Set: 
    Number of shells: 476
    Number of basis function: 1676
    Number of Cartesian functions: 2078
    Spherical Harmonics?: true
    Max angular momentum: 4

	 --------------------------------------------------------
	                 NBF =   782, NAUX =  1676
	 --------------------------------------------------------
	   CLASS    FOCC     OCC    AOCC    AVIR     VIR    FVIR
	   PAIRS       8      33      25     749     749       0
	 --------------------------------------------------------

DGAS Warning! /src/lib/libfock/apps.cc:80 is not currently checking restricted

         ------------------------------------------------------------
                                     CPHF                           
                                  Rob Parrish                       
         ------------------------------------------------------------

  ==> Geometry <==

    Molecular point group: c1
    Full point group: C1

    Geometry (in Angstrom), charge = 0, multiplicity = 1:

       Center              X                  Y                   Z               Mass       
    ------------   -----------------  -----------------  -----------------  -----------------
           C          3.526636775403    -0.112519742439    -0.010608463076    12.000000000000
           H          4.454905290029     0.240720599559     0.437757588441     1.007825032070
           H          3.677843434884    -0.172892116828    -1.089821231811     1.007825032070
           H          3.346294807434    -1.121404837316     0.358039961889     1.007825032070
           C         -2.515936298511     1.411285864915    -0.436588220053    12.000000000000
           H         -2.661908483194     2.443191680999    -0.117432982700     1.007825032070
           H         -3.434868443676     1.077522081193    -0.921429344010     1.007825032070
           H         -1.726217334516     1.405618011399    -1.187182758992     1.007825032070
           C          2.366975924278     0.822272629503     0.317420565526    12.000000000000
           H          2.637531989761     1.841943014899     0.034136862032     1.007825032070
           H          2.200796801793     0.834991042673     1.398453319906     1.007825032070
           C         -2.179554059476     0.508782022000     0.745222398998    12.000000000000
           H         -1.272381858298     0.861033512768     1.242157958446     1.007825032070
           H         -2.977692103102     0.583864270232     1.487482613937     1.007825032070
           C          1.063384515224     0.443065964302    -0.381672061354    12.000000000000
           H          1.218555583511     0.456153445596    -1.465875777459     1.007825032070
           H          0.312118025173     1.205493069271    -0.169689761086     1.007825032070
           C          0.531841583310    -0.931469953379     0.019660539584    12.000000000000
           H          0.478880866454    -0.993121164165     1.112751437207     1.007825032070
           H          1.253790723400    -1.688053757882    -0.292788661523     1.007825032070
           C         -0.842834604650    -1.269997965313    -0.575135453139    12.000000000000
           H         -0.963826647755    -0.748944913914    -1.528980453331     1.007825032070
           H         -0.883439569397    -2.336027772883    -0.809054211655     1.007825032070
           C         -2.018845542678    -0.958531884686     0.353037015829    12.000000000000
           H         -2.945567060108    -1.294976165500    -0.122182320820     1.007825032070
           H         -1.901202092268    -1.557869657879     1.260541540145     1.007825032070

  Nuclear repulsion =  400.777397818046950
  Reference energy  = -313.536612260766844

  ==> Basis Set <==

  Basis Set: AUG-CC-PVTZ
    Number of shells: 274
    Number of basis function: 782
    Number of Cartesian functions: 890
    Spherical Harmonics?: true
    Max angular momentum: 3

  ==> CGRSolver (by Rob Parrish) <==

   Number of roots    =         1
   Preconditioning    =    JACOBI
   Convergence cutoff =     1E-06
   Maximum iterations =       100

  ==> CPHFRHamiltonian (by Rob Parrish) <== 

  ==> DFJK: Density-Fitted J/K Matrices <==

    J tasked:                  Yes
    K tasked:                  Yes
    wK tasked:                  No
    OpenMP threads:             12
    Integrals threads:          12
    Memory (MB):             42915
    Algorithm:                Core
    Integral Cache:           NONE
    Schwarz Cutoff:          1E-12
    Fitting Condition:       1E-12

   => Auxiliary Basis Set <=

  Basis Set: 
    Number of shells: 492
    Number of basis function: 1660
    Number of Cartesian functions: 2038
    Spherical Harmonics?: true
    Max angular momentum: 4

  ==> CPHF Iterations <==

  => Iterations <=

             Iter  Converged  Remaining    Residual
  CGR           1          0          1   9.266E-02
  CGR           2          0          1   1.325E-02
  CGR           3          0          1   3.818E-03
  CGR           4          0          1   8.968E-04
  CGR           5          0          1   2.149E-04
  CGR           6          0          1   4.471E-05
  CGR           7          0          1   1.335E-05
  CGR           8          0          1   3.272E-06
  CGR           9          1          0   8.276E-07

    CGRSolver converged.

  ==> DFCorrGrad: Density-Fitted Correlated Gradients <==

    OpenMP threads:             12
    Integrals threads:          12
    Memory (MB):             42915
    Schwarz Cutoff:          0E+00
    Fitting Condition:       1E-12

   => Auxiliary Basis Set <=

  Basis Set: 
    Number of shells: 492
    Number of basis function: 1660
    Number of Cartesian functions: 2038
    Spherical Harmonics?: true
    Max angular momentum: 4

	-----------------------------------------------------------
	 ==================> DF-MP2 Energies <==================== 
	-----------------------------------------------------------
	 Reference Energy          =    -313.5366122607668444 [Eh]
	 Singles Energy            =      -0.0000000000000001 [Eh]
	 Same-Spin Energy          =      -0.3171209524253326 [Eh]
	 Opposite-Spin Energy      =      -1.1266533577413056 [Eh]
	 Correlation Energy        =      -1.4437743101666380 [Eh]
	 Total Energy              =    -314.9803865709334900 [Eh]
	-----------------------------------------------------------
	 ================> DF-SCS-MP2 Energies <================== 
	-----------------------------------------------------------
	 SCS Same-Spin Scale       =       0.3333333333333333 [-]
	 SCS Opposite-Spin Scale   =       1.2000000000000000 [-]
	 SCS Same-Spin Energy      =      -0.1057069841417775 [Eh]
	 SCS Opposite-Spin Energy  =      -1.3519840292895666 [Eh]
	 SCS Correlation Energy    =      -1.4576910134313441 [Eh]
	 SCS Total Energy          =    -314.9943032741982165 [Eh]
	-----------------------------------------------------------


  -Total Gradient:
     Atom            X                  Y                   Z
    ------   -----------------  -----------------  -----------------
       1       -0.000000172223     0.000000294589     0.000000114847
       2        0.000000349530     0.000000160428     0.000000174000
       3        0.000000111592    -0.000000092415    -0.000000461168
       4       -0.000000011079    -0.000000441883     0.000000129928
       5        0.000000138528     0.000000126459    -0.000000333493
       6        0.000000095937    -0.000000465291    -0.000000176992
       7        0.000000399716     0.000000104440     0.000000230536
       8       -0.000000483490     0.000000000975     0.000000445906
       9        0.000000513805    -0.000000537794    -0.000000283903
      10        0.000000163049     0.000000492928    -0.000000132739
      11       -0.000000110662     0.000000028985     0.000000505573
      12        0.000000402191     0.000000147267     0.000000306701
      13       -0.000000645438    -0.000000211889    -0.000000415101
      14        0.000000225433     0.000000008026    -0.000000006288
      15        0.000000430344     0.000000377818     0.000000319497
      16       -0.000000037913    -0.000000026852    -0.000000150365
      17       -0.000000234810    -0.000000078391    -0.000000100980
      18       -0.000001499725    -0.000000434776     0.000000096387
      19       -0.000000032299     0.000000097699    -0.000000159270
      20       -0.000000086092    -0.000000075117    -0.000000029045
      21       -0.000000103599     0.000000334300    -0.000000526968
      22        0.000000096859    -0.000000304075     0.000000594072
      23        0.000000186219     0.000000152242    -0.000000020539
      24        0.000000146538     0.000000271086    -0.000000170952
      25        0.000000200192     0.000000030695     0.000000068846
      26       -0.000000042599     0.000000040550    -0.000000018489


			-----------------------------------------
			 OPTKING 2.0: for geometry optimizations 
			  - R.A. King,  Bethel University        
			-----------------------------------------

	Internal coordinates to be generated automatically.
	Detected frag 1 with atoms:  1 2 3 4 5 6 7 8 9 10 11 12 13 14 15 16 17 18 19 20
	 21 22 23 24 25 26
	---Fragment 1 Bond Connectivity---
	 1 : 2 3 4 9
	 2 : 1
	 3 : 1
	 4 : 1
	 5 : 6 7 8 12
	 6 : 5
	 7 : 5
	 8 : 5
	 9 : 1 10 11 15
	 10 : 9
	 11 : 9
	 12 : 5 13 14 24
	 13 : 12
	 14 : 12
	 15 : 9 16 17 18
	 16 : 15
	 17 : 15
	 18 : 15 19 20 21
	 19 : 18
	 20 : 18
	 21 : 18 22 23 24
	 22 : 21
	 23 : 21
	 24 : 12 21 25 26
	 25 : 24
	 26 : 24

	---Fragment 1 Geometry and Gradient---
	 C           6.6643776757       -0.2126314978       -0.0200470899
	 H           8.4185509461        0.4548960077        0.8272419547
	 H           6.9501168516       -0.3267187513       -2.0594636619
	 H           6.3235807459       -2.1191480266        0.6765974726
	 C          -4.7544305720        2.6669437799       -0.8250321687
	 H          -5.0302780240        4.6169631672       -0.2219161763
	 H          -6.4909606610        2.0362216356       -1.7412491110
	 H          -3.2620780081        2.6562330890       -2.2434502842
	 C           4.4729362600        1.5538700763        0.5998379378
	 H           4.9842131274        3.4807678505        0.0645093203
	 H           4.1589032295        1.5779043941        2.6426937842
	 C          -4.1187602642        0.9614586829        1.4082662422
	 H          -2.4044532486        1.6271175304        2.3473383552
	 H          -5.6270225829        1.1033435695        2.8109347678
	 C           2.0095055077        0.8372733313       -0.7212556685
	 H           2.3027363305        0.8620050867       -2.7701037642
	 H           0.5898175887        2.2780517560       -0.3206671760
	 C           1.0050349385       -1.7602231129        0.0371530354
	 H           0.9049536879       -1.8767270170        2.1027954703
	 H           2.3693210952       -3.1899593000       -0.5532903851
	 C          -1.5927265781       -2.3999483438       -1.0868484957
	 H          -1.8213684038       -1.4153007759       -2.8893543193
	 H          -1.6694588411       -4.4144527296       -1.5288908867
	 C          -3.8150651803       -1.8113627517        0.6671432747
	 H          -5.5663150497       -2.4471503014       -0.2308911246
	 H          -3.5927512777       -2.9439470041        2.3820782900
	            -0.0000001722        0.0000002946        0.0000001148
	             0.0000003495        0.0000001604        0.0000001740
	             0.0000001116       -0.0000000924       -0.0000004612
	            -0.0000000111       -0.0000004419        0.0000001299
	             0.0000001385        0.0000001265       -0.0000003335
	             0.0000000959       -0.0000004653       -0.0000001770
	             0.0000003997        0.0000001044        0.0000002305
	            -0.0000004835        0.0000000010        0.0000004459
	             0.0000005138       -0.0000005378       -0.0000002839
	             0.0000001630        0.0000004929       -0.0000001327
	            -0.0000001107        0.0000000290        0.0000005056
	             0.0000004022        0.0000001473        0.0000003067
	            -0.0000006454       -0.0000002119       -0.0000004151
	             0.0000002254        0.0000000080       -0.0000000063
	             0.0000004303        0.0000003778        0.0000003195
	            -0.0000000379       -0.0000000269       -0.0000001504
	            -0.0000002348       -0.0000000784       -0.0000001010
	            -0.0000014997       -0.0000004348        0.0000000964
	            -0.0000000323        0.0000000977       -0.0000001593
	            -0.0000000861       -0.0000000751       -0.0000000290
	            -0.0000001036        0.0000003343       -0.0000005270
	             0.0000000969       -0.0000003041        0.0000005941
	             0.0000001862        0.0000001522       -0.0000000205
	             0.0000001465        0.0000002711       -0.0000001710
	             0.0000002002        0.0000000307        0.0000000688
	            -0.0000000426        0.0000000405       -0.0000000185

	Previous optimization step data not found.  Starting new optimization.

	---Fragment 1 Intrafragment Coordinates---
	 - Coordinate -           - BOHR/RAD -       - ANG/DEG -
	 R(1,2)           =         2.059275	       1.089722
	 R(1,3)           =         2.062494	       1.091425
	 R(1,4)           =         2.058218	       1.089162
	 R(1,9)           =         2.882221	       1.525206
	 R(5,6)           =         2.059713	       1.089953
	 R(5,7)           =         2.062232	       1.091286
	 R(5,8)           =         2.058917	       1.089532
	 R(5,12)          =         2.881038	       1.524579
	 R(9,10)          =         2.064199	       1.092327
	 R(9,11)          =         2.066992	       1.093805
	 R(9,15)          =         2.885704	       1.527049
	 R(12,13)         =         2.064899	       1.092697
	 R(12,14)         =         2.064574	       1.092525
	 R(12,24)         =         2.886180	       1.527300
	 R(15,16)         =         2.069873	       1.095330
	 R(15,17)         =         2.061996	       1.091161
	 R(15,18)         =         2.886370	       1.527401
	 R(18,19)         =         2.071345	       1.096108
	 R(18,20)         =         2.062534	       1.091446
	 R(18,21)         =         2.901895	       1.535617
	 R(21,22)         =         2.066600	       1.093598
	 R(21,23)         =         2.063860	       1.092148
	 R(21,24)         =         2.891662	       1.530202
	 R(24,25)         =         2.068228	       1.094459
	 R(24,26)         =         2.067165	       1.093897
	 B(1,9,10)        =         1.905011	     109.149099
	 B(1,9,11)        =         1.912616	     109.584844
	 B(1,9,15)        =         1.980579	     113.478798
	 B(2,1,3)         =         1.882586	     107.864239
	 B(2,1,4)         =         1.877636	     107.580625
	 B(2,1,9)         =         1.939616	     111.131800
	 B(3,1,4)         =         1.882188	     107.841432
	 B(3,1,9)         =         1.930401	     110.603852
	 B(4,1,9)         =         1.948764	     111.655951
	 B(5,12,13)       =         1.922904	     110.174290
	 B(5,12,14)       =         1.901577	     108.952332
	 B(5,12,24)       =         1.974562	     113.134077
	 B(6,5,7)         =         1.882705	     107.871064
	 B(6,5,8)         =         1.879393	     107.681303
	 B(6,5,12)        =         1.942292	     111.285144
	 B(7,5,8)         =         1.878303	     107.618814
	 B(7,5,12)        =         1.927448	     110.434620
	 B(8,5,12)        =         1.950906	     111.778708
	 B(9,15,16)       =         1.906309	     109.223458
	 B(9,15,17)       =         1.902124	     108.983697
	 B(9,15,18)       =         1.982600	     113.594600
	 B(10,9,11)       =         1.857808	     106.444580
	 B(10,9,15)       =         1.901305	     108.936772
	 B(11,9,15)       =         1.902498	     109.005109
	 B(12,24,21)      =         2.017701	     115.605742
	 B(12,24,25)      =         1.894133	     108.525848
	 B(12,24,26)      =         1.901449	     108.944997
	 B(13,12,14)      =         1.849778	     105.984499
	 B(13,12,24)      =         1.916787	     109.823796
	 B(14,12,24)      =         1.893734	     108.502941
	 B(15,18,19)      =         1.906531	     109.236173
	 B(15,18,20)      =         1.894845	     108.566613
	 B(15,18,21)      =         1.991219	     114.088416
	 B(16,15,17)      =         1.856140	     106.349002
	 B(16,15,18)      =         1.896673	     108.671350
	 B(17,15,18)      =         1.915749	     109.764309
	 B(18,21,22)      =         1.909051	     109.380591
	 B(18,21,23)      =         1.908606	     109.355077
	 B(18,21,24)      =         1.991246	     114.089980
	 B(19,18,20)      =         1.852980	     106.167934
	 B(19,18,21)      =         1.907751	     109.306099
	 B(20,18,21)      =         1.905447	     109.174067
	 B(21,24,25)      =         1.901598	     108.953515
	 B(21,24,26)      =         1.884980	     108.001409
	 B(22,21,23)      =         1.848490	     105.910690
	 B(22,21,24)      =         1.925215	     110.306704
	 B(23,21,24)      =         1.875511	     107.458876
	 B(25,24,26)      =         1.857567	     106.430747
	 D(1,9,15,16)     =        -1.031901	     -59.123547
	 D(1,9,15,17)     =        -3.052969	    -174.922247
	 D(1,9,15,18)     =         1.088413	      62.361488
	 D(2,1,9,10)      =         0.932317	      53.417838
	 D(2,1,9,11)      =        -1.095876	     -62.789076
	 D(2,1,9,15)      =         3.056268	     175.111263
	 D(3,1,9,10)      =        -1.158226	     -66.361439
	 D(3,1,9,11)      =         3.096766	     177.431648
	 D(3,1,9,15)      =         0.965725	      55.331987
	 D(4,1,9,10)      =         3.028886	     173.542368
	 D(4,1,9,11)      =         1.000692	      57.335455
	 D(4,1,9,15)      =        -1.130349	     -64.764206
	 D(5,12,24,21)    =         1.135180	      65.041015
	 D(5,12,24,25)    =        -1.006589	     -57.673321
	 D(5,12,24,26)    =        -3.022347	    -173.167742
	 D(6,5,12,13)     =        -1.027192	     -58.853745
	 D(6,5,12,14)     =         0.995157	      57.018313
	 D(6,5,12,24)     =         3.102996	     177.788600
	 D(7,5,12,13)     =        -3.117679	    -178.629862
	 D(7,5,12,14)     =        -1.095330	     -62.757804
	 D(7,5,12,24)     =         1.012509	      58.012483
	 D(8,5,12,13)     =         1.074918	      61.588265
	 D(8,5,12,14)     =         3.097267	     177.460324
	 D(8,5,12,24)     =        -1.078079	     -61.769389
	 D(9,15,18,19)    =         0.906822	      51.957050
	 D(9,15,18,20)    =        -1.106605	     -63.403819
	 D(9,15,18,21)    =         3.047548	     174.611647
	 D(10,9,15,16)    =         1.094117	      62.688299
	 D(10,9,15,17)    =        -0.926951	     -53.110401
	 D(10,9,15,18)    =        -3.068754	    -175.826667
	 D(11,9,15,16)    =         3.114632	     178.455243
	 D(11,9,15,17)    =         1.093563	      62.656543
	 D(11,9,15,18)    =        -1.048240	     -60.059723
	 D(12,24,21,18)   =         1.072494	      61.449395
	 D(12,24,21,22)   =        -1.084312	     -62.126491
	 D(12,24,21,23)   =        -3.091646	    -177.138273
	 D(13,12,24,21)   =        -1.021187	     -58.509702
	 D(13,12,24,25)   =         3.120229	     178.775962
	 D(13,12,24,26)   =         1.104471	      63.281541
	 D(14,12,24,21)   =        -3.035723	    -173.934111
	 D(14,12,24,25)   =         1.105693	      63.351553
	 D(14,12,24,26)   =        -0.910065	     -52.142868
	 D(15,18,21,22)   =         0.502113	      28.768984
	 D(15,18,21,23)   =         2.519157	     144.337076
	 D(15,18,21,24)   =        -1.663398	     -95.305683
	 D(16,15,18,19)   =         3.032505	     173.749710
	 D(16,15,18,20)   =         1.019078	      58.388841
	 D(16,15,18,21)   =        -1.109954	     -63.595692
	 D(17,15,18,19)   =        -1.227461	     -70.328349
	 D(17,15,18,20)   =         3.042297	     174.310782
	 D(17,15,18,21)   =         0.913265	      52.326249
	 D(18,21,24,25)   =        -3.072881	    -176.063128
	 D(18,21,24,26)   =        -1.061954	     -60.845486
	 D(19,18,21,22)   =         2.642174	     151.385405
	 D(19,18,21,23)   =        -1.623968	     -93.046503
	 D(19,18,21,24)   =         0.476662	      27.310738
	 D(20,18,21,22)   =        -1.621078	     -92.880905
	 D(20,18,21,23)   =         0.395966	      22.687187
	 D(20,18,21,24)   =         2.496596	     143.044428
	 D(22,21,24,25)   =         1.053498	      60.360986
	 D(22,21,24,26)   =         3.064425	     175.578628
	 D(23,21,24,25)   =        -0.953836	     -54.650796
	 D(23,21,24,26)   =         1.057091	      60.566847
	 R(5,15)          =         7.007802	       3.708369
	 R(12,15)         =         6.488908	       3.433782

	Current energy   :      -314.9803865709

	Generating empirical Hessian (Schlegel '84) for each fragment.
	Taking RFO optimization step.
	Going to follow RFO solution 1.
	Using RFO vector 1.
	Norm of target step-size    0.00013
	Projected energy change by RFO approximation:        -0.0000000002

	Back-transformation to cartesian coordinates...
	Successfully converged to displaced geometry.

	--- Internal Coordinate Step in ANG or DEG, aJ/ANG or AJ/DEG ---
	 ---------------------------------------------------------------------------
	   Coordinate                Previous        Force       Change         New 
	   ----------                --------       ------       ------       ------
	    1 R(1,2)          =      1.089722    -0.000004    -0.000001     1.089721
	    2 R(1,3)          =      1.091425    -0.000004    -0.000001     1.091424
	    3 R(1,4)          =      1.089162    -0.000003    -0.000001     1.089161
	    4 R(1,9)          =      1.525206    -0.000002    -0.000000     1.525206
	    5 R(5,6)          =      1.089953     0.000004     0.000001     1.089954
	    6 R(5,7)          =      1.091286     0.000004     0.000001     1.091287
	    7 R(5,8)          =      1.089532     0.000005     0.000001     1.089533
	    8 R(5,12)         =      1.524579     0.000003     0.000001     1.524580
	    9 R(9,10)         =      1.092327    -0.000005    -0.000001     1.092326
	   10 R(9,11)         =      1.093805    -0.000004    -0.000001     1.093804
	   11 R(9,15)         =      1.527049    -0.000006    -0.000001     1.527048
	   12 R(12,13)        =      1.092697     0.000007     0.000001     1.092699
	   13 R(12,14)        =      1.092525     0.000001     0.000000     1.092526
	   14 R(12,24)        =      1.527300     0.000004     0.000001     1.527301
	   15 R(15,16)        =      1.095330    -0.000001    -0.000000     1.095329
	   16 R(15,17)        =      1.091161    -0.000001    -0.000000     1.091161
	   17 R(15,18)        =      1.527401    -0.000006    -0.000001     1.527400
	   18 R(18,19)        =      1.096108     0.000001     0.000000     1.096109
	   19 R(18,20)        =      1.091446    -0.000000    -0.000000     1.091446
	   20 R(18,21)        =      1.535617     0.000005     0.000001     1.535618
	   21 R(21,22)        =      1.093598     0.000006     0.000001     1.093599
	   22 R(21,23)        =      1.092148     0.000001     0.000000     1.092148
	   23 R(21,24)        =      1.530202     0.000003     0.000001     1.530203
	   24 R(24,25)        =      1.094459     0.000002     0.000000     1.094460
	   25 R(24,26)        =      1.093897     0.000000     0.000000     1.093897
	   26 B(1,9,10)       =    109.149099     0.000000     0.000103   109.149201
	   27 B(1,9,11)       =    109.584844     0.000000    -0.000054   109.584790
	   28 B(1,9,15)       =    113.478798    -0.000000    -0.000159   113.478639
	   29 B(2,1,3)        =    107.864239     0.000000     0.000020   107.864259
	   30 B(2,1,4)        =    107.580625     0.000000     0.000003   107.580628
	   31 B(2,1,9)        =    111.131800     0.000000     0.000054   111.131854
	   32 B(3,1,4)        =    107.841432     0.000000     0.000004   107.841437
	   33 B(3,1,9)        =    110.603852    -0.000000    -0.000030   110.603822
	   34 B(4,1,9)        =    111.655951    -0.000000    -0.000049   111.655901
	   35 B(5,12,13)      =    110.174290    -0.000000     0.000032   110.174322
	   36 B(5,12,14)      =    108.952332    -0.000000    -0.000115   108.952217
	   37 B(5,12,24)      =    113.134077     0.000000     0.000148   113.134225
	   38 B(6,5,7)        =    107.871064    -0.000000    -0.000015   107.871049
	   39 B(6,5,8)        =    107.681303     0.000000    -0.000011   107.681291
	   40 B(6,5,12)       =    111.285144    -0.000000    -0.000034   111.285110
	   41 B(7,5,8)        =    107.618814    -0.000000     0.000011   107.618825
	   42 B(7,5,12)       =    110.434620     0.000000     0.000050   110.434670
	   43 B(8,5,12)       =    111.778708    -0.000000    -0.000002   111.778707
	   44 B(9,15,16)      =    109.223458     0.000000     0.000052   109.223510
	   45 B(9,15,17)      =    108.983697    -0.000000    -0.000098   108.983599
	   46 B(9,15,18)      =    113.594600    -0.000000    -0.000217   113.594383
	   47 B(10,9,11)      =    106.444580    -0.000000     0.000043   106.444623
	   48 B(10,9,15)      =    108.936772     0.000000     0.000081   108.936852
	   49 B(11,9,15)      =    109.005109     0.000000     0.000000   109.005110
	   50 B(12,24,21)     =    115.605742     0.000000     0.000185   115.605927
	   51 B(12,24,25)     =    108.525848    -0.000000    -0.000092   108.525756
	   52 B(12,24,26)     =    108.944997    -0.000000    -0.000014   108.944982
	   53 B(13,12,14)     =    105.984499     0.000000    -0.000002   105.984497
	   54 B(13,12,24)     =    109.823796    -0.000000     0.000001   109.823797
	   55 B(14,12,24)     =    108.502941    -0.000000    -0.000076   108.502864
	   56 B(15,18,19)     =    109.236173     0.000000     0.000040   109.236213
	   57 B(15,18,20)     =    108.566613     0.000000    -0.000019   108.566594
	   58 B(15,18,21)     =    114.088416    -0.000000    -0.000065   114.088351
	   59 B(16,15,17)     =    106.349002    -0.000000     0.000080   106.349082
	   60 B(16,15,18)     =    108.671350     0.000000     0.000066   108.671415
	   61 B(17,15,18)     =    109.764309     0.000000     0.000138   109.764447
	   62 B(18,21,22)     =    109.380591    -0.000000    -0.000034   109.380556
	   63 B(18,21,23)     =    109.355077     0.000000     0.000022   109.355099
	   64 B(18,21,24)     =    114.089980     0.000000     0.000242   114.090222
	   65 B(19,18,20)     =    106.167934    -0.000000    -0.000020   106.167914
	   66 B(19,18,21)     =    109.306099     0.000000    -0.000008   109.306090
	   67 B(20,18,21)     =    109.174067     0.000000     0.000075   109.174141
	   68 B(21,24,25)     =    108.953515    -0.000000    -0.000041   108.953474
	   69 B(21,24,26)     =    108.001409    -0.000000    -0.000029   108.001381
	   70 B(22,21,23)     =    105.910690     0.000000    -0.000045   105.910645
	   71 B(22,21,24)     =    110.306704    -0.000000    -0.000060   110.306644
	   72 B(23,21,24)     =    107.458876    -0.000000    -0.000146   107.458730
	   73 B(25,24,26)     =    106.430747     0.000000    -0.000024   106.430722
	   74 D(1,9,15,16)    =    -59.123547    -0.000000    -0.001488   -59.125035
	   75 D(1,9,15,17)    =   -174.922247    -0.000000    -0.001558  -174.923805
	   76 D(1,9,15,18)    =     62.361488    -0.000000    -0.001514    62.359974
	   77 D(2,1,9,10)     =     53.417838     0.000000     0.000379    53.418217
	   78 D(2,1,9,11)     =    -62.789076    -0.000000     0.000300   -62.788776
	   79 D(2,1,9,15)     =    175.111263     0.000000     0.000449   175.111712
	   80 D(3,1,9,10)     =    -66.361439     0.000000     0.000338   -66.361100
	   81 D(3,1,9,11)     =    177.431648    -0.000000     0.000259   177.431907
	   82 D(3,1,9,15)     =     55.331987     0.000000     0.000409    55.332395
	   83 D(4,1,9,10)     =    173.542368     0.000000     0.000386   173.542754
	   84 D(4,1,9,11)     =     57.335455    -0.000000     0.000306    57.335761
	   85 D(4,1,9,15)     =    -64.764206     0.000000     0.000456   -64.763750
	   86 D(5,12,24,21)   =     65.041015    -0.000000    -0.000517    65.040498
	   87 D(5,12,24,25)   =    -57.673321    -0.000000    -0.000522   -57.673844
	   88 D(5,12,24,26)   =   -173.167742     0.000000    -0.000436  -173.168178
	   89 D(6,5,12,13)    =    -58.853745     0.000000    -0.000003   -58.853748
	   90 D(6,5,12,14)    =     57.018313    -0.000000    -0.000055    57.018259
	   91 D(6,5,12,24)    =    177.788600    -0.000000    -0.000135   177.788464
	   92 D(7,5,12,13)    =   -178.629862     0.000000     0.000004  -178.629858
	   93 D(7,5,12,14)    =    -62.757804    -0.000000    -0.000047   -62.757851
	   94 D(7,5,12,24)    =     58.012483    -0.000000    -0.000128    58.012355
	   95 D(8,5,12,13)    =     61.588265     0.000000    -0.000042    61.588223
	   96 D(8,5,12,14)    =    177.460324    -0.000000    -0.000094   177.460230
	   97 D(8,5,12,24)    =    -61.769389    -0.000000    -0.000174   -61.769564
	   98 D(9,15,18,19)   =     51.957050    -0.000000    -0.001243    51.955806
	   99 D(9,15,18,20)   =    -63.403819    -0.000000    -0.001231   -63.405051
	  100 D(9,15,18,21)   =    174.611647    -0.000000    -0.001269   174.610378
	  101 D(10,9,15,16)   =     62.688299    -0.000000    -0.001406    62.686893
	  102 D(10,9,15,17)   =    -53.110401    -0.000000    -0.001475   -53.111877
	  103 D(10,9,15,18)   =   -175.826667    -0.000000    -0.001431  -175.828098
	  104 D(11,9,15,16)   =    178.455243     0.000000    -0.001310   178.453933
	  105 D(11,9,15,17)   =     62.656543     0.000000    -0.001380    62.655163
	  106 D(11,9,15,18)   =    -60.059723     0.000000    -0.001335   -60.061058
	  107 D(12,24,21,18)  =     61.449395    -0.000000     0.000212    61.449606
	  108 D(12,24,21,22)  =    -62.126491    -0.000000     0.000124   -62.126367
	  109 D(12,24,21,23)  =   -177.138273     0.000000     0.000290  -177.137983
	  110 D(13,12,24,21)  =    -58.509702    -0.000000    -0.000665   -58.510367
	  111 D(13,12,24,25)  =    178.775962    -0.000000    -0.000671   178.775291
	  112 D(13,12,24,26)  =     63.281541    -0.000000    -0.000584    63.280957
	  113 D(14,12,24,21)  =   -173.934111    -0.000000    -0.000620  -173.934731
	  114 D(14,12,24,25)  =     63.351553    -0.000000    -0.000625    63.350927
	  115 D(14,12,24,26)  =    -52.142868    -0.000000    -0.000539   -52.143408
	  116 D(15,18,21,22)  =     28.768984     0.000000     0.001255    28.770239
	  117 D(15,18,21,23)  =    144.337076     0.000000     0.001194   144.338269
	  118 D(15,18,21,24)  =    -95.305683     0.000000     0.001185   -95.304498
	  119 D(16,15,18,19)  =    173.749710    -0.000000    -0.001275   173.748435
	  120 D(16,15,18,20)  =     58.388841    -0.000000    -0.001263    58.387578
	  121 D(16,15,18,21)  =    -63.595692    -0.000000    -0.001301   -63.596994
	  122 D(17,15,18,19)  =    -70.328349     0.000000    -0.001066   -70.329415
	  123 D(17,15,18,20)  =    174.310782     0.000000    -0.001054   174.309728
	  124 D(17,15,18,21)  =     52.326249     0.000000    -0.001092    52.325157
	  125 D(18,21,24,25)  =   -176.063128    -0.000000     0.000190  -176.062938
	  126 D(18,21,24,26)  =    -60.845486    -0.000000     0.000125   -60.845361
	  127 D(19,18,21,22)  =    151.385405    -0.000000     0.001256   151.386661
	  128 D(19,18,21,23)  =    -93.046503    -0.000000     0.001195   -93.045309
	  129 D(19,18,21,24)  =     27.310738     0.000000     0.001185    27.311923
	  130 D(20,18,21,22)  =    -92.880905     0.000000     0.001269   -92.879635
	  131 D(20,18,21,23)  =     22.687187     0.000000     0.001208    22.688395
	  132 D(20,18,21,24)  =    143.044428     0.000000     0.001198   143.045627
	  133 D(22,21,24,25)  =     60.360986    -0.000000     0.000103    60.361089
	  134 D(22,21,24,26)  =    175.578628    -0.000000     0.000038   175.578666
	  135 D(23,21,24,25)  =    -54.650796     0.000000     0.000269   -54.650527
	  136 D(23,21,24,26)  =     60.566847     0.000000     0.000204    60.567051
	  137 R(5,15)         =      3.708369    -0.000001    -0.000010     3.708359
	  138 R(12,15)        =      3.433782     0.000001    -0.000007     3.433775
	 ---------------------------------------------------------------------------

  ==> Convergence Check <==

  Measures of convergence in internal coordinates in au.
  Criteria marked as inactive (o), active & met (*), and active & unmet ( ).
  --------------------------------------------------------------------------------------------- ~
   Step     Total Energy     Delta E     MAX Force     RMS Force      MAX Disp      RMS Disp    ~
  --------------------------------------------------------------------------------------------- ~
    Convergence Criteria             o    2.00e-06 *    1.00e-06 *    6.00e-06 *    4.00e-06 *  ~
  --------------------------------------------------------------------------------------------- ~
      1    -314.98038657   -3.15e+02 o    8.02e-07 *    2.42e-07 *    2.72e-05      1.07e-05    ~
  ---------------------------------------------------------------------------------------------

	Writing optimization data to binary file.
	Structure for next step:
	Cartesian Geometry (in Angstrom)
	    C     3.5266227562  -0.1125231610  -0.0105906179
	    H     4.4548878828   0.2407127083   0.4377843762
	    H     3.6778420871  -0.1729044707  -1.0898003736
	    H     3.3462679605  -1.1214034958   0.3580626637
	    C    -2.5159305808   1.4112883763  -0.4365855134
	    H    -2.6619052381   2.4431944917  -0.1174296358
	    H    -3.4348624668   1.0775228989  -0.9214275133
	    H    -1.7262104835   1.4056227692  -1.1871803451
	    C     2.3669645855   0.8222796556   0.3174165237
	    H     2.6375271115   1.8419448820   0.0341237041
	    H     2.2007757840   0.8350103961   1.3984468443
	    C    -2.1795461345   0.5087851240   0.7452258508
	    H    -1.2723738050   0.8610387735   1.2421623502
	    H    -2.9776851977   0.5838677988   1.4874853016
	    C     1.0633799428   0.4430680302  -0.3816831337
	    H     1.2185536290   0.4561656807  -1.4658861263
	    H     0.3121071882   1.2054871230  -0.1696949724
	    C     0.5318526278  -0.9314757982   0.0196389240
	    H     0.4789114608  -0.9931437448   1.1127300758
	    H     1.2538009636  -1.6880505871  -0.2928339356
	    C    -0.8428337617  -1.2700018777  -0.5751382914
	    H    -0.9638357725  -0.7489520112  -1.5289849720
	    H    -0.8834456268  -2.3360325745  -0.8090528216
	    C    -2.0188364579  -0.9585307665   0.3530448211
	    H    -2.9455624326  -1.2949786074  -0.1221640609
	    H    -1.9011837989  -1.5578643362   1.2605509784
			--------------------------
			 OPTKING Finished Execution 
			--------------------------

    Structure for next step:
    Molecular point group: c1
    Full point group: C1

    Geometry (in Angstrom), charge = 0, multiplicity = 1:

    C            3.526622305056    -0.112523416029    -0.010589870715
    H            4.454887431621     0.240712453367     0.437785123475
    H            3.677841635977    -0.172904725692    -1.089799626351
    H            3.346267509319    -1.121403750759     0.358063410919
    C           -2.515931031933     1.411288121276    -0.436584766160
    H           -2.661905689259     2.443194236691    -0.117428888617
    H           -3.434862917981     1.077522643882    -0.921426766109
    H           -1.726210934613     1.405622514221    -1.187179597858
    C            2.366964134327     0.822279400618     0.317417270972
    H            2.637526660385     1.841944627035     0.034124451378
    H            2.200775332855     0.835010141132     1.398447591521
    C           -2.179546585590     0.508784869049     0.745226597981
    H           -1.272374256111     0.861038518478     1.242163097461
    H           -2.977685648867     0.583867543783     1.487486048805
    C            1.063379491648     0.443067775263    -0.381682386457
    H            1.218553177900     0.456165425740    -1.465885379078
    H            0.312106737063     1.205486868044    -0.169694225177
    C            0.531852176711    -0.931476053193     0.019639671276
    H            0.478911009655    -0.993143999784     1.112730823058
    H            1.253800512505    -1.688050842065    -0.292833188330
    C           -0.842834212805    -1.270002132724    -0.575137544182
    H           -0.963836223615    -0.748952266214    -1.528984224809
    H           -0.883446077981    -2.336032829458    -0.809052074415
    C           -2.018836909081    -0.958531021527     0.353045568335
    H           -2.945562883700    -1.294978862391    -0.122163313709
    H           -1.901184250045    -1.557864591131     1.260551725665

gradient() will perform analytic gradient computation.

*** tstart() called on wr25
*** at Tue Sep 20 22:47:13 2016


         ---------------------------------------------------------
                                   SCF
            by Justin Turney, Rob Parrish, and Andy Simmonett
                              RHF Reference
                       12 Threads,  60000 MiB Core
         ---------------------------------------------------------

  ==> Geometry <==

    Molecular point group: c1
    Full point group: C1

    Geometry (in Angstrom), charge = 0, multiplicity = 1:

       Center              X                  Y                   Z               Mass       
    ------------   -----------------  -----------------  -----------------  -----------------
           C          3.526622305056    -0.112523416029    -0.010589870715    12.000000000000
           H          4.454887431621     0.240712453367     0.437785123475     1.007825032070
           H          3.677841635977    -0.172904725692    -1.089799626351     1.007825032070
           H          3.346267509319    -1.121403750759     0.358063410919     1.007825032070
           C         -2.515931031933     1.411288121276    -0.436584766160    12.000000000000
           H         -2.661905689259     2.443194236691    -0.117428888617     1.007825032070
           H         -3.434862917981     1.077522643882    -0.921426766109     1.007825032070
           H         -1.726210934613     1.405622514221    -1.187179597858     1.007825032070
           C          2.366964134327     0.822279400618     0.317417270972    12.000000000000
           H          2.637526660385     1.841944627035     0.034124451378     1.007825032070
           H          2.200775332855     0.835010141132     1.398447591521     1.007825032070
           C         -2.179546585590     0.508784869049     0.745226597981    12.000000000000
           H         -1.272374256111     0.861038518478     1.242163097461     1.007825032070
           H         -2.977685648867     0.583867543783     1.487486048805     1.007825032070
           C          1.063379491648     0.443067775263    -0.381682386457    12.000000000000
           H          1.218553177900     0.456165425740    -1.465885379078     1.007825032070
           H          0.312106737063     1.205486868044    -0.169694225177     1.007825032070
           C          0.531852176711    -0.931476053193     0.019639671276    12.000000000000
           H          0.478911009655    -0.993143999784     1.112730823058     1.007825032070
           H          1.253800512505    -1.688050842065    -0.292833188330     1.007825032070
           C         -0.842834212805    -1.270002132724    -0.575137544182    12.000000000000
           H         -0.963836223615    -0.748952266214    -1.528984224809     1.007825032070
           H         -0.883446077981    -2.336032829458    -0.809052074415     1.007825032070
           C         -2.018836909081    -0.958531021527     0.353045568335    12.000000000000
           H         -2.945562883700    -1.294978862391    -0.122163313709     1.007825032070
           H         -1.901184250045    -1.557864591131     1.260551725665     1.007825032070

  Running in c1 symmetry.

  Rotational constants: A =      0.11635  B =      0.02979  C =      0.02631 [cm^-1]
  Rotational constants: A =   3488.09377  B =    893.10260  C =    788.65278 [MHz]
  Nuclear repulsion =  400.777607078055894

  Charge       = 0
  Multiplicity = 1
  Electrons    = 66
  Nalpha       = 33
  Nbeta        = 33

  ==> Algorithm <==

  SCF Algorithm Type is DF.
  DIIS enabled.
  MOM disabled.
  Fractional occupation disabled.
  Guess Type is READ.
  Energy threshold   = 1.00e-10
  Density threshold  = 1.00e-10
  Integral threshold = 0.00e+00

  ==> Primary Basis <==

  Basis Set: AUG-CC-PVTZ
    Number of shells: 274
    Number of basis function: 782
    Number of Cartesian functions: 890
    Spherical Harmonics?: true
    Max angular momentum: 3

  ==> Pre-Iterations <==

   -------------------------------------------------------
    Irrep   Nso     Nmo     Nalpha   Nbeta   Ndocc  Nsocc
   -------------------------------------------------------
     A        782     782       0       0       0       0
   -------------------------------------------------------
    Total     782     782      33      33      33       0
   -------------------------------------------------------

  ==> Integral Setup <==

  ==> DFJK: Density-Fitted J/K Matrices <==

    J tasked:                  Yes
    K tasked:                  Yes
    wK tasked:                  No
    OpenMP threads:             12
    Integrals threads:          12
    Memory (MB):             42915
    Algorithm:                Core
    Integral Cache:           NONE
    Schwarz Cutoff:          1E-12
    Fitting Condition:       1E-12

   => Auxiliary Basis Set <=

  Basis Set: 
    Number of shells: 492
    Number of basis function: 1660
    Number of Cartesian functions: 2038
    Spherical Harmonics?: true
    Max angular momentum: 4

  Minimum eigenvalue in the overlap matrix is 1.4688227379E-06.
  Using Symmetric Orthogonalization.
  SCF Guess: Reading in previously saved MOs, projecting if necessary.

  Using orbitals from previous SCF, no projection.
  Recomputing DOCC and SOCC from number of alpha and beta electrons from previous calculation.
              A 
    DOCC [    33 ]

  ==> Iterations <==

                           Total Energy        Delta E     RMS |[F,P]|

   @DF-RHF iter   0:  -313.53661326120618   -3.13537e+02   5.69107e-08 
   @DF-RHF iter   1:  -313.53661216604610    1.09516e-06   1.20954e-08 
   @DF-RHF iter   2:  -313.53661216611897   -7.28733e-11   5.15399e-09 DIIS
   @DF-RHF iter   3:  -313.53661216612988   -1.09139e-11   1.93504e-09 DIIS
   @DF-RHF iter   4:  -313.53661216613102   -1.13687e-12   2.22020e-10 DIIS
   @DF-RHF iter   5:  -313.53661216613182   -7.95808e-13   7.46642e-11 DIIS

  ==> Post-Iterations <==

    Orbital Energies (a.u.)
    -----------------------

    Doubly Occupied:                                                      

       1A    -11.212798     2A    -11.212442     3A    -11.210981  
       4A    -11.210146     5A    -11.209729     6A    -11.209255  
       7A    -11.206588     8A    -11.206504     9A     -1.093943  
      10A     -1.059260    11A     -1.005862    12A     -0.947532  
      13A     -0.888229    14A     -0.836272    15A     -0.778307  
      16A     -0.757247    17A     -0.650761    18A     -0.624957  
      19A     -0.610603    20A     -0.597009    21A     -0.573079  
      22A     -0.561480    23A     -0.549898    24A     -0.530270  
      25A     -0.515496    26A     -0.496091    27A     -0.493720  
      28A     -0.476153    29A     -0.464869    30A     -0.460437  
      31A     -0.446903    32A     -0.436400    33A     -0.431515  

    Virtual:                                                              

      34A      0.029721    35A      0.032804    36A      0.034179  
      37A      0.034844    38A      0.047578    39A      0.047688  
      40A      0.049616    41A      0.054304    42A      0.055697  
      43A      0.066885    44A      0.068439    45A      0.069529  
      46A      0.075947    47A      0.077205    48A      0.082234  
      49A      0.094154    50A      0.097133    51A      0.099163  
      52A      0.114037    53A      0.116247    54A      0.120266  
      55A      0.121110    56A      0.130070    57A      0.130634  
      58A      0.134317    59A      0.136531    60A      0.139225  
      61A      0.145898    62A      0.149950    63A      0.152471  
      64A      0.155429    65A      0.157041    66A      0.163501  
      67A      0.165906    68A      0.167101    69A      0.171485  
      70A      0.173559    71A      0.177836    72A      0.182126  
      73A      0.184756    74A      0.186216    75A      0.194054  
      76A      0.196564    77A      0.208619    78A      0.214742  
      79A      0.221249    80A      0.234609    81A      0.241670  
      82A      0.248381    83A      0.256116    84A      0.260687  
      85A      0.271660    86A      0.274645    87A      0.283802  
      88A      0.290110    89A      0.292363    90A      0.293331  
      91A      0.298794    92A      0.303898    93A      0.314097  
      94A      0.316240    95A      0.319914    96A      0.324744  
      97A      0.329777    98A      0.331765    99A      0.333574  
     100A      0.339337   101A      0.340020   102A      0.346486  
     103A      0.348412   104A      0.351667   105A      0.353753  
     106A      0.360552   107A      0.362065   108A      0.366041  
     109A      0.367376   110A      0.369341   111A      0.374854  
     112A      0.375774   113A      0.381269   114A      0.386247  
     115A      0.388595   116A      0.391050   117A      0.393811  
     118A      0.401461   119A      0.403978   120A      0.413204  
     121A      0.415892   122A      0.423859   123A      0.429150  
     124A      0.432621   125A      0.436412   126A      0.439899  
     127A      0.443357   128A      0.446396   129A      0.451284  
     130A      0.456161   131A      0.459854   132A      0.462623  
     133A      0.465617   134A      0.466586   135A      0.474924  
     136A      0.477492   137A      0.481551   138A      0.485635  
     139A      0.487188   140A      0.489836   141A      0.493040  
     142A      0.495012   143A      0.500894   144A      0.503178  
     145A      0.509188   146A      0.516551   147A      0.519234  
     148A      0.523176   149A      0.525324   150A      0.527167  
     151A      0.536126   152A      0.539401   153A      0.542393  
     154A      0.549318   155A      0.551359   156A      0.557962  
     157A      0.562389   158A      0.567166   159A      0.573099  
     160A      0.577918   161A      0.581279   162A      0.585240  
     163A      0.588001   164A      0.595740   165A      0.598386  
     166A      0.599307   167A      0.600339   168A      0.609689  
     169A      0.611361   170A      0.622785   171A      0.626411  
     172A      0.629798   173A      0.636984   174A      0.642051  
     175A      0.647500   176A      0.651055   177A      0.658334  
     178A      0.659972   179A      0.665965   180A      0.671883  
     181A      0.675542   182A      0.678745   183A      0.685495  
     184A      0.690879   185A      0.694593   186A      0.696325  
     187A      0.704669   188A      0.707140   189A      0.714516  
     190A      0.721550   191A      0.726436   192A      0.730244  
     193A      0.735199   194A      0.741547   195A      0.749315  
     196A      0.761127   197A      0.769495   198A      0.775861  
     199A      0.782336   200A      0.789832   201A      0.795879  
     202A      0.813497   203A      0.821061   204A      0.824935  
     205A      0.830302   206A      0.836953   207A      0.843987  
     208A      0.844825   209A      0.860390   210A      0.865249  
     211A      0.871495   212A      0.874882   213A      0.884330  
     214A      0.886440   215A      0.891617   216A      0.896578  
     217A      0.906233   218A      0.910187   219A      0.918296  
     220A      0.919365   221A      0.921824   222A      0.924437  
     223A      0.929126   224A      0.932686   225A      0.939150  
     226A      0.943671   227A      0.953762   228A      0.954693  
     229A      0.961572   230A      0.965842   231A      0.973026  
     232A      0.977394   233A      0.984244   234A      0.985187  
     235A      0.988031   236A      0.994682   237A      1.007015  
     238A      1.007268   239A      1.012513   240A      1.020471  
     241A      1.025322   242A      1.026613   243A      1.033921  
     244A      1.037114   245A      1.044170   246A      1.046346  
     247A      1.050007   248A      1.053692   249A      1.062987  
     250A      1.066779   251A      1.074256   252A      1.080554  
     253A      1.083810   254A      1.089521   255A      1.092188  
     256A      1.094682   257A      1.099792   258A      1.103996  
     259A      1.112440   260A      1.118967   261A      1.121828  
     262A      1.132052   263A      1.136887   264A      1.140974  
     265A      1.151493   266A      1.155611   267A      1.161477  
     268A      1.173289   269A      1.175036   270A      1.181397  
     271A      1.188350   272A      1.191359   273A      1.196139  
     274A      1.202461   275A      1.205557   276A      1.206217  
     277A      1.213619   278A      1.221062   279A      1.223738  
     280A      1.227243   281A      1.235761   282A      1.238902  
     283A      1.245486   284A      1.246876   285A      1.253459  
     286A      1.261281   287A      1.268876   288A      1.272531  
     289A      1.279155   290A      1.281558   291A      1.284112  
[...]
	 D(16,15,18,20)   =         1.019067	      58.388219
	 D(16,15,18,21)   =        -1.109966	     -63.596353
	 D(17,15,18,19)   =        -1.227470	     -70.328871
	 D(17,15,18,20)   =         3.042288	     174.310260
	 D(17,15,18,21)   =         0.913256	      52.325687
	 D(18,21,24,25)   =        -3.072882	    -176.063186
	 D(18,21,24,26)   =        -1.061955	     -60.845556
	 D(19,18,21,22)   =         2.642178	     151.385642
	 D(19,18,21,23)   =        -1.623964	     -93.046269
	 D(19,18,21,24)   =         0.476667	      27.310990
	 D(20,18,21,22)   =        -1.621074	     -92.880684
	 D(20,18,21,23)   =         0.395970	      22.687405
	 D(20,18,21,24)   =         2.496600	     143.044663
	 D(22,21,24,25)   =         1.053497	      60.360924
	 D(22,21,24,26)   =         3.064424	     175.578554
	 D(23,21,24,25)   =        -0.953836	     -54.650757
	 D(23,21,24,26)   =         1.057091	      60.566873
	 R(5,15)          =         7.007784	       3.708360
	 R(12,15)         =         6.488908	       3.433782

	Current energy   :      -314.9803865786

	Energy change for the previous step:
		Projected    :        -0.0000000000
		Actual       :        -0.0000000070

	Performing BFGS update.
	Previous computed or guess Hessian on step 1.
	Denominators (dg)(dq) or (dq)(dq) are very small.
	 Skipping Hessian update for step 10.
	Denominators (dg)(dq) or (dq)(dq) are very small.
	 Skipping Hessian update for step 9.
	Denominators (dg)(dq) or (dq)(dq) are very small.
	 Skipping Hessian update for step 8.
	Denominators (dg)(dq) or (dq)(dq) are very small.
	 Skipping Hessian update for step 7.
	Denominators (dg)(dq) or (dq)(dq) are very small.
	 Skipping Hessian update for step 6.
	Denominators (dg)(dq) or (dq)(dq) are very small.
	 Skipping Hessian update for step 5.
	Denominators (dg)(dq) or (dq)(dq) are very small.
	 Skipping Hessian update for step 4.
	Denominators (dg)(dq) or (dq)(dq) are very small.
	 Skipping Hessian update for step 3.
	Denominators (dg)(dq) or (dq)(dq) are very small.
	 Skipping Hessian update for step 2.
	Steps to be used in Hessian update: 1
	Taking RFO optimization step.
	Going to follow RFO solution 1.
	Using RFO vector 1.
	Norm of target step-size    0.00003
	Projected energy change by RFO approximation:        -0.0000000000

	Back-transformation to cartesian coordinates...
	Successfully converged to displaced geometry.

	--- Internal Coordinate Step in ANG or DEG, aJ/ANG or AJ/DEG ---
	 ---------------------------------------------------------------------------
	   Coordinate                Previous        Force       Change         New 
	   ----------                --------       ------       ------       ------
	    1 R(1,2)          =      1.089721     0.000005     0.000000     1.089721
	    2 R(1,3)          =      1.091425     0.000006     0.000000     1.091425
	    3 R(1,4)          =      1.089162     0.000006     0.000000     1.089162
	    4 R(1,9)          =      1.525206     0.000001    -0.000000     1.525206
	    5 R(5,6)          =      1.089954    -0.000003    -0.000000     1.089954
	    6 R(5,7)          =      1.091287    -0.000003    -0.000000     1.091287
	    7 R(5,8)          =      1.089533    -0.000004    -0.000000     1.089533
	    8 R(5,12)         =      1.524580    -0.000002    -0.000000     1.524580
	    9 R(9,10)         =      1.092326     0.000007     0.000000     1.092327
	   10 R(9,11)         =      1.093805     0.000008     0.000000     1.093805
	   11 R(9,15)         =      1.527048     0.000007     0.000000     1.527049
	   12 R(12,13)        =      1.092698    -0.000007    -0.000000     1.092698
	   13 R(12,14)        =      1.092526    -0.000004    -0.000000     1.092525
	   14 R(12,24)        =      1.527301    -0.000005    -0.000000     1.527301
	   15 R(15,16)        =      1.095330     0.000008     0.000000     1.095330
	   16 R(15,17)        =      1.091162     0.000008     0.000000     1.091162
	   17 R(15,18)        =      1.527402     0.000009     0.000000     1.527402
	   18 R(18,19)        =      1.096109     0.000004     0.000000     1.096109
	   19 R(18,20)        =      1.091446     0.000004     0.000000     1.091446
	   20 R(18,21)        =      1.535617     0.000003     0.000001     1.535618
	   21 R(21,22)        =      1.093598    -0.000003     0.000000     1.093598
	   22 R(21,23)        =      1.092148    -0.000001     0.000000     1.092148
	   23 R(21,24)        =      1.530202    -0.000005    -0.000000     1.530202
	   24 R(24,25)        =      1.094459    -0.000004    -0.000000     1.094459
	   25 R(24,26)        =      1.093896    -0.000002     0.000000     1.093896
	   26 B(1,9,10)       =    109.149160    -0.000000    -0.000035   109.149125
	   27 B(1,9,11)       =    109.584789    -0.000000     0.000017   109.584806
	   28 B(1,9,15)       =    113.478670     0.000000     0.000041   113.478711
	   29 B(2,1,3)        =    107.864259     0.000000    -0.000004   107.864256
	   30 B(2,1,4)        =    107.580635     0.000000    -0.000002   107.580633
	   31 B(2,1,9)        =    111.131842    -0.000000    -0.000033   111.131809
	   32 B(3,1,4)        =    107.841439    -0.000000     0.000002   107.841441
	   33 B(3,1,9)        =    110.603846     0.000000     0.000009   110.603856
	   34 B(4,1,9)        =    111.655879     0.000000     0.000027   111.655906
	   35 B(5,12,13)      =    110.174319     0.000000    -0.000017   110.174302
	   36 B(5,12,14)      =    108.952251     0.000000     0.000038   108.952289
	   37 B(5,12,24)      =    113.134185    -0.000000    -0.000038   113.134147
	   38 B(6,5,7)        =    107.871065     0.000000    -0.000001   107.871064
	   39 B(6,5,8)        =    107.681308     0.000000     0.000002   107.681309
	   40 B(6,5,12)       =    111.285127     0.000000     0.000006   111.285133
	   41 B(7,5,8)        =    107.618799     0.000000    -0.000003   107.618796
	   42 B(7,5,12)       =    110.434650    -0.000000    -0.000003   110.434647
	   43 B(8,5,12)       =    111.778704    -0.000000    -0.000000   111.778704
	   44 B(9,15,16)      =    109.223496    -0.000000    -0.000004   109.223492
	   45 B(9,15,17)      =    108.983672     0.000000    -0.000009   108.983664
	   46 B(9,15,18)      =    113.594493     0.000000     0.000005   113.594498
	   47 B(10,9,11)      =    106.444609     0.000000    -0.000014   106.444595
	   48 B(10,9,15)      =    108.936874    -0.000000    -0.000039   108.936835
	   49 B(11,9,15)      =    109.005111    -0.000000     0.000027   109.005137
	   50 B(12,24,21)     =    115.605827    -0.000000    -0.000051   115.605776
	   51 B(12,24,25)     =    108.525821     0.000000     0.000019   108.525841
	   52 B(12,24,26)     =    108.944968     0.000000     0.000019   108.944987
	   53 B(13,12,14)     =    105.984489    -0.000000     0.000009   105.984498
	   54 B(13,12,24)     =    109.823760     0.000000    -0.000005   109.823756
	   55 B(14,12,24)     =    108.502922     0.000000     0.000017   108.502939
	   56 B(15,18,19)     =    109.236227    -0.000000    -0.000016   109.236211
	   57 B(15,18,20)     =    108.566628    -0.000000    -0.000048   108.566580
	   58 B(15,18,21)     =    114.088345     0.000000     0.000069   114.088414
	   59 B(16,15,17)     =    106.349065     0.000000     0.000001   106.349066
	   60 B(16,15,18)     =    108.671398    -0.000000     0.000025   108.671423
	   61 B(17,15,18)     =    109.764305    -0.000000    -0.000019   109.764286
	   62 B(18,21,22)     =    109.380571     0.000000     0.000027   109.380598
	   63 B(18,21,23)     =    109.355148    -0.000000    -0.000029   109.355119
	   64 B(18,21,24)     =    114.090077    -0.000000     0.000010   114.090087
	   65 B(19,18,20)     =    106.167903     0.000000    -0.000000   106.167903
	   66 B(19,18,21)     =    109.306076    -0.000000    -0.000026   109.306050
	   67 B(20,18,21)     =    109.174126    -0.000000     0.000016   109.174142
	   68 B(21,24,25)     =    108.953501     0.000000     0.000021   108.953521
	   69 B(21,24,26)     =    108.001381     0.000000    -0.000016   108.001365
	   70 B(22,21,23)     =    105.910665    -0.000000    -0.000008   105.910657
	   71 B(22,21,24)     =    110.306651     0.000000    -0.000012   110.306640
	   72 B(23,21,24)     =    107.458799     0.000000     0.000009   107.458808
	   73 B(25,24,26)     =    106.430755    -0.000000     0.000013   106.430768
	   74 D(1,9,15,16)    =    -59.124213     0.000000     0.000246   -59.123967
	   75 D(1,9,15,17)    =   -174.922994     0.000000     0.000251  -174.922743
	   76 D(1,9,15,18)    =     62.360838     0.000000     0.000278    62.361116
	   77 D(2,1,9,10)     =     53.418000    -0.000000    -0.000147    53.417853
	   78 D(2,1,9,11)     =    -62.788951     0.000000    -0.000119   -62.789071
	   79 D(2,1,9,15)     =    175.111515    -0.000000    -0.000195   175.111320
	   80 D(3,1,9,10)     =    -66.361326    -0.000000    -0.000127   -66.361452
	   81 D(3,1,9,11)     =    177.431722     0.000000    -0.000099   177.431623
	   82 D(3,1,9,15)     =     55.332189    -0.000000    -0.000175    55.332015
	   83 D(4,1,9,10)     =    173.542524    -0.000000    -0.000153   173.542370
	   84 D(4,1,9,11)     =     57.335572     0.000000    -0.000126    57.335446
	   85 D(4,1,9,15)     =    -64.763961    -0.000000    -0.000201   -64.764162
	   86 D(5,12,24,21)   =     65.040583    -0.000000     0.000237    65.040820
	   87 D(5,12,24,25)   =    -57.673774    -0.000000     0.000231   -57.673543
	   88 D(5,12,24,26)   =   -173.168175    -0.000000     0.000195  -173.167980
	   89 D(6,5,12,13)    =    -58.853315    -0.000000    -0.000161   -58.853476
	   90 D(6,5,12,14)    =     57.018700     0.000000    -0.000137    57.018563
	   91 D(6,5,12,24)    =    177.788977     0.000000    -0.000114   177.788863
	   92 D(7,5,12,13)    =   -178.629443    -0.000000    -0.000161  -178.629603
	   93 D(7,5,12,14)    =    -62.757427    -0.000000    -0.000137   -62.757565
	   94 D(7,5,12,24)    =     58.012850     0.000000    -0.000114    58.012736
	   95 D(8,5,12,13)    =     61.588687    -0.000000    -0.000154    61.588533
	   96 D(8,5,12,14)    =    177.460703     0.000000    -0.000131   177.460571
	   97 D(8,5,12,24)    =    -61.769021     0.000000    -0.000108   -61.769128
	   98 D(9,15,18,19)   =     51.956417     0.000000     0.000064    51.956481
	   99 D(9,15,18,20)   =    -63.404453     0.000000     0.000099   -63.404354
	  100 D(9,15,18,21)   =    174.610975     0.000000     0.000067   174.611042
	  101 D(10,9,15,16)   =     62.687699    -0.000000     0.000201    62.687900
	  102 D(10,9,15,17)   =    -53.111082     0.000000     0.000206   -53.110876
	  103 D(10,9,15,18)   =   -175.827250     0.000000     0.000233  -175.827017
	  104 D(11,9,15,16)   =    178.454735    -0.000000     0.000176   178.454911
	  105 D(11,9,15,17)   =     62.655953    -0.000000     0.000181    62.656135
	  106 D(11,9,15,18)   =    -60.060214     0.000000     0.000209   -60.060005
	  107 D(12,24,21,18)  =     61.449324     0.000000    -0.000196    61.449128
	  108 D(12,24,21,22)  =    -62.126566    -0.000000    -0.000230   -62.126796
	  109 D(12,24,21,23)  =   -177.138247    -0.000000    -0.000220  -177.138467
	  110 D(13,12,24,21)  =    -58.510222     0.000000     0.000291   -58.509932
	  111 D(13,12,24,25)  =    178.775421     0.000000     0.000284   178.775705
	  112 D(13,12,24,26)  =     63.281020    -0.000000     0.000248    63.281269
	  113 D(14,12,24,21)  =   -173.934589     0.000000     0.000273  -173.934316
	  114 D(14,12,24,25)  =     63.351055     0.000000     0.000266    63.351321
	  115 D(14,12,24,26)  =    -52.143346    -0.000000     0.000230   -52.143116
	  116 D(15,18,21,22)  =     28.769219    -0.000000    -0.000156    28.769062
	  117 D(15,18,21,23)  =    144.337307    -0.000000    -0.000167   144.337141
	  118 D(15,18,21,24)  =    -95.305434    -0.000000    -0.000169   -95.305603
	  119 D(16,15,18,19)  =    173.749089     0.000000     0.000080   173.749169
	  120 D(16,15,18,20)  =     58.388219     0.000000     0.000116    58.388335
	  121 D(16,15,18,21)  =    -63.596353     0.000000     0.000083   -63.596270
	  122 D(17,15,18,19)  =    -70.328871    -0.000000     0.000086   -70.328785
	  123 D(17,15,18,20)  =    174.310260    -0.000000     0.000121   174.310381
	  124 D(17,15,18,21)  =     52.325687    -0.000000     0.000088    52.325776
	  125 D(18,21,24,25)  =   -176.063186     0.000000    -0.000190  -176.063376
	  126 D(18,21,24,26)  =    -60.845556     0.000000    -0.000173   -60.845729
	  127 D(19,18,21,22)  =    151.385642     0.000000    -0.000148   151.385494
	  128 D(19,18,21,23)  =    -93.046269     0.000000    -0.000158   -93.046427
	  129 D(19,18,21,24)  =     27.310990     0.000000    -0.000161    27.310829
	  130 D(20,18,21,22)  =    -92.880684    -0.000000    -0.000153   -92.880838
	  131 D(20,18,21,23)  =     22.687405    -0.000000    -0.000164    22.687241
	  132 D(20,18,21,24)  =    143.044663    -0.000000    -0.000166   143.044497
	  133 D(22,21,24,25)  =     60.360924    -0.000000    -0.000224    60.360700
	  134 D(22,21,24,26)  =    175.578554    -0.000000    -0.000207   175.578347
	  135 D(23,21,24,25)  =    -54.650757    -0.000000    -0.000214   -54.650971
	  136 D(23,21,24,26)  =     60.566873    -0.000000    -0.000197    60.566677
	  137 R(5,15)         =      3.708360     0.000000     0.000003     3.708363
	  138 R(12,15)        =      3.433782     0.000002     0.000002     3.433784
	 ---------------------------------------------------------------------------

  ==> Convergence Check <==

  Measures of convergence in internal coordinates in au.
  Criteria marked as inactive (o), active & met (*), and active & unmet ( ).
  ---------------------------------------------------------------------------------------------
   Step     Total Energy     Delta E     MAX Force     RMS Force      MAX Disp      RMS Disp   
  ---------------------------------------------------------------------------------------------
    Convergence Criteria             o    2.00e-06 *    1.00e-06 *    6.00e-06 *    4.00e-06 *
  ---------------------------------------------------------------------------------------------
     11    -314.98038658   -7.02e-09 o    1.11e-06 *    3.25e-07 *    5.74e-06 *    2.24e-06 *  ~
  ---------------------------------------------------------------------------------------------


  **** Optimization is complete! (in 11 steps) ****

  ==> Optimization Summary <==

  Measures of convergence in internal coordinates in au.
  --------------------------------------------------------------------------------------------------------------- ~
   Step         Total Energy             Delta E       MAX Force       RMS Force        MAX Disp        RMS Disp  ~
  --------------------------------------------------------------------------------------------------------------- ~
      1    -314.980386570933   -314.980386570933      0.00000080      0.00000024      0.00002720      0.00001070  ~
      2    -314.980386573876     -0.000000002943      0.00000070      0.00000020      0.00001908      0.00000590  ~
      3    -314.980386569139      0.000000004737      0.00000132      0.00000027      0.00002143      0.00000923  ~
      4    -314.980386573258     -0.000000004119      0.00000091      0.00000021      0.00002687      0.00000966  ~
      5    -314.980386575528     -0.000000002270      0.00000046      0.00000012      0.00001901      0.00000660  ~
      6    -314.980386571069      0.000000004459      0.00000073      0.00000019      0.00000635      0.00000185  ~
      7    -314.980386574232     -0.000000003163      0.00000107      0.00000025      0.00003382      0.00000923  ~
      8    -314.980386572178      0.000000002054      0.00000172      0.00000038      0.00003284      0.00000918  ~
      9    -314.980386576467     -0.000000004289      0.00000098      0.00000020      0.00001293      0.00000381  ~
     10    -314.980386571550      0.000000004917      0.00000121      0.00000032      0.00001527      0.00000437  ~
     11    -314.980386578574     -0.000000007024      0.00000111      0.00000032      0.00000574      0.00000224  ~
  --------------------------------------------------------------------------------------------------------------- ~

	Writing optimization data to binary file.
	Final energy is   -314.9803865785743
	Final (previous) structure:
	Cartesian Geometry (in Angstrom)
	    C     3.5266287264  -0.1125197470  -0.0105974789
	    H     4.4548947946   0.2407195162   0.4377736464
	    H     3.6778436950  -0.1729005947  -1.0898083386
	    H     3.3462788298  -1.1214010148   0.3580567689
	    C    -2.5159281233   1.4112883377  -0.4365821149
	    H    -2.6618935515   2.4431950302  -0.1174243769
	    H    -3.4348629191   1.0775315431  -0.9214241456
	    H    -1.7262088538   1.4056168743  -1.1871774760
	    C     2.3669685222   0.8222790509   0.3174153065
	    H     2.6375284830   1.8419461342   0.0341247868
	    H     2.2007824941   0.8350064178   1.3984466441
	    C    -2.1795509979   0.5087797184   0.7452271451
	    H    -1.2723800358   0.8610286944   1.2421682326
	    H    -2.9776923942   0.5838614295   1.4874839562
	    C     1.0633822409   0.4430663391  -0.3816822789
	    H     1.2185572042   0.4561534925  -1.4658857232
	    H     0.3121112451   1.2054900173  -0.1697022349
	    C     0.5318455175  -0.9314719642   0.0196512178
	    H     0.4788916016  -0.9931263351   1.1127424728
	    H     1.2537945181  -1.6880534298  -0.2928039209
	    C    -0.8428347491  -1.2700006652  -0.5751370203
	    H    -0.9638318398  -0.7489481289  -1.5289823294
	    H    -0.8834423322  -2.3360305291  -0.8090549733
	    C    -2.0188424982  -0.9585340239   0.3530401056
	    H    -2.9455657427  -1.2949784587  -0.1221758150
	    H    -1.9011953807  -1.5578716362   1.2605437523
	Saving final (previous) structure.
			--------------------------
			 OPTKING Finished Execution 
			--------------------------

    Final optimized geometry and variables:
    Molecular point group: c1
    Full point group: C1

    Geometry (in Angstrom), charge = 0, multiplicity = 1:

    C            3.526628726367    -0.112519747027    -0.010597478869
    H            4.454894794600     0.240719516176     0.437773646380
    H            3.677843694979    -0.172900594679    -1.089808338612
    H            3.346278829837    -1.121401014792     0.358056768929
    C           -2.515928123311     1.411288337713    -0.436582114898
    H           -2.661893551511     2.443195030212    -0.117424376931
    H           -3.434862919097     1.077531543079    -0.921424145587
    H           -1.726208853762     1.405616874267    -1.187177475962
    C            2.366968522226     0.822279050902     0.317415306536
    H            2.637528482998     1.841946134188     0.034124786773
    H            2.200782494057     0.835006417789     1.398446644116
    C           -2.179550997860     0.508779718373     0.745227145146
    H           -1.272380035848     0.861028694396     1.242168232578
    H           -2.977692394213     0.583861429544     1.487483956192
    C            1.063382240871     0.443066339120    -0.381682278943
    H            1.218557204196     0.456153492511    -1.465885723227
    H            0.312111245073     1.205490017341    -0.169702234894
    C            0.531845517482    -0.931471964191     0.019651217848
    H            0.478891601600    -0.993126335110     1.112742472827
    H            1.253794518135    -1.688053429799    -0.292803920916
    C           -0.842834749099    -1.270000665247    -0.575137020302
    H           -0.963831839801    -0.748948128919    -1.528982329351
    H           -0.883442332212    -2.336030529109    -0.809054973280
    C           -2.018842498224    -0.958534023872     0.353040105635
    H           -2.945565742658    -1.294978458727    -0.122175814967
    H           -1.901195380707    -1.557871636230     1.260543752299

	Cleaning optimization helper files.

*** Psi4 exiting successfully. Buy a developer a beer!
