    -----------------------------------------------------------------------
          Psi4: An Open-Source Ab Initio Electronic Structure Package
                              Psi4 1.0.0 Driver

                          Git: Rev {master} 6a9a71b dirty

    J. M. Turney, A. C. Simmonett, R. M. Parrish, E. G. Hohenstein,
    F. A. Evangelista, J. T. Fermann, B. J. Mintz, L. A. Burns, J. J. Wilke,
    M. L. Abrams, N. J. Russ, M. L. Leininger, C. L. Janssen, E. T. Seidl,
    W. D. Allen, H. F. Schaefer, R. A. King, E. F. Valeev, C. D. Sherrill,
    and T. D. Crawford, WIREs Comput. Mol. Sci. 2, 556-565 (2012)
    (doi: 10.1002/wcms.93)

                         Additional Contributions by
    A. E. DePrince, U. Bozkaya, A. Yu. Sokolov, D. G. A. Smith, R. Di Remigio,
    R. M. Richard, J. F. Gonthier, H. R. McAlexander, M. Saitow, and
    B. P. Pritchard
    -----------------------------------------------------------------------


    Psi4 started on: Tue Sep 20 22:40:02 2016

    Process ID:  31054
    PSI4DATADIR: /usr/local/hpc5/psi4conda/share/psi4
    Memory level set to 256.000 MB

  ==> Input File <==

--------------------------------------------------------------------------
memory 60 Gb

molecule molecule_26_psi {
0 1
C           -3.580299676914     0.522391477116    -0.508754027996
H           -4.660490580677     0.636232362795    -0.420774825529
H           -3.364946172893     0.126248944869    -1.502699327358
H           -3.137334855783     1.515353692745    -0.442595819910
C            3.729096424566     0.637298710358    -0.459155717873
H            3.506810997112     1.313563972066    -1.286356810899
H            4.792873871360     0.403511581709    -0.495490018982
H            3.542602677469     1.174097188929     0.469956284374
C           -3.033817021873    -0.407520868853     0.569389410161
H           -3.576336723505    -1.354918699641     0.535227839633
H           -3.222841877712     0.023827224761     1.556335994860
C            2.884486935727    -0.628574472947    -0.559730170640
H            3.180523260720    -1.184318559315    -1.452232615652
H            3.094326830168    -1.279623574908     0.293544703648
C           -1.539001821091    -0.683308837385     0.422432464350
H           -1.360453684467    -1.144687012955    -0.552523972990
H           -1.231163533562    -1.415311467793     1.175703132904
C           -0.675121162046     0.565377594375     0.575487450526
H           -0.983237292143     1.091994703362     1.484338515076
H           -0.857372784148     1.250008181624    -0.257304280443
C            0.821765168106     0.269673258429     0.651273239150
H            1.352855008867     1.199703341797     0.864944969284
H            1.015272672787    -0.402229526318     1.494513652978
C            1.382459371058    -0.356275823671    -0.621532348645
H            0.862610450103    -1.295353623938    -0.822399253657
H            1.170511183009     0.305627631456    -1.468644706799
}

set globals {
  reference rhf
  g_convergence gau_verytight
  basis aug-cc-pvtz
  freeze_core true
  scf_type df
  mp_type df
}
optimize('mp2')
--------------------------------------------------------------------------
/usr/local/hpc5/psi4conda/lib/python2.7/site-packages/v2rdm_casscf/v2rdm_casscf.so loaded.

  Memory set to  60.000 GiB by Python script.
gradient() will perform analytic gradient computation.

*** tstart() called on wr32
*** at Tue Sep 20 22:40:03 2016


         ---------------------------------------------------------
                                   SCF
            by Justin Turney, Rob Parrish, and Andy Simmonett
                              RHF Reference
                       12 Threads,  60000 MiB Core
         ---------------------------------------------------------

  ==> Geometry <==

    Molecular point group: c1
    Full point group: C1

    Geometry (in Angstrom), charge = 0, multiplicity = 1:

       Center              X                  Y                   Z               Mass       
    ------------   -----------------  -----------------  -----------------  -----------------
           C         -3.580299676914     0.522391477116    -0.508754027996    12.000000000000
           H         -4.660490580677     0.636232362795    -0.420774825529     1.007825032070
           H         -3.364946172893     0.126248944869    -1.502699327358     1.007825032070
           H         -3.137334855783     1.515353692745    -0.442595819910     1.007825032070
           C          3.729096424566     0.637298710358    -0.459155717873    12.000000000000
           H          3.506810997112     1.313563972066    -1.286356810899     1.007825032070
           H          4.792873871360     0.403511581709    -0.495490018982     1.007825032070
           H          3.542602677469     1.174097188929     0.469956284374     1.007825032070
           C         -3.033817021873    -0.407520868853     0.569389410161    12.000000000000
           H         -3.576336723505    -1.354918699641     0.535227839633     1.007825032070
           H         -3.222841877712     0.023827224761     1.556335994860     1.007825032070
           C          2.884486935727    -0.628574472947    -0.559730170640    12.000000000000
           H          3.180523260720    -1.184318559315    -1.452232615652     1.007825032070
           H          3.094326830168    -1.279623574908     0.293544703648     1.007825032070
           C         -1.539001821091    -0.683308837385     0.422432464350    12.000000000000
           H         -1.360453684467    -1.144687012955    -0.552523972990     1.007825032070
           H         -1.231163533562    -1.415311467793     1.175703132904     1.007825032070
           C         -0.675121162046     0.565377594375     0.575487450526    12.000000000000
           H         -0.983237292143     1.091994703362     1.484338515076     1.007825032070
           H         -0.857372784148     1.250008181624    -0.257304280443     1.007825032070
           C          0.821765168106     0.269673258429     0.651273239150    12.000000000000
           H          1.352855008867     1.199703341797     0.864944969284     1.007825032070
           H          1.015272672787    -0.402229526318     1.494513652978     1.007825032070
           C          1.382459371058    -0.356275823671    -0.621532348645    12.000000000000
           H          0.862610450103    -1.295353623938    -0.822399253657     1.007825032070
           H          1.170511183009     0.305627631456    -1.468644706799     1.007825032070

  Running in c1 symmetry.

  Rotational constants: A =      0.18749  B =      0.02135  C =      0.02124 [cm^-1]
  Rotational constants: A =   5620.77886  B =    640.20468  C =    636.68224 [MHz]
  Nuclear repulsion =  389.458612229176708

  Charge       = 0
  Multiplicity = 1
  Electrons    = 66
  Nalpha       = 33
  Nbeta        = 33

  ==> Algorithm <==

  SCF Algorithm Type is DF.
  DIIS enabled.
  MOM disabled.
  Fractional occupation disabled.
  Guess Type is SAD.
  Energy threshold   = 1.00e-10
  Density threshold  = 1.00e-10
  Integral threshold = 0.00e+00

  ==> Primary Basis <==

  Basis Set: AUG-CC-PVTZ
    Number of shells: 274
    Number of basis function: 782
    Number of Cartesian functions: 890
    Spherical Harmonics?: true
    Max angular momentum: 3

  ==> Pre-Iterations <==

   -------------------------------------------------------
    Irrep   Nso     Nmo     Nalpha   Nbeta   Ndocc  Nsocc
   -------------------------------------------------------
     A        782     782       0       0       0       0
   -------------------------------------------------------
    Total     782     782      33      33      33       0
   -------------------------------------------------------

  ==> Integral Setup <==

  ==> DFJK: Density-Fitted J/K Matrices <==

    J tasked:                  Yes
    K tasked:                  Yes
    wK tasked:                  No
    OpenMP threads:             12
    Integrals threads:          12
    Memory (MB):             42915
    Algorithm:                Core
    Integral Cache:           NONE
    Schwarz Cutoff:          1E-12
    Fitting Condition:       1E-12

   => Auxiliary Basis Set <=

  Basis Set: 
    Number of shells: 492
    Number of basis function: 1660
    Number of Cartesian functions: 2038
    Spherical Harmonics?: true
    Max angular momentum: 4

  Minimum eigenvalue in the overlap matrix is 1.7892460363E-06.
  Using Symmetric Orthogonalization.
  SCF Guess: Superposition of Atomic Densities via on-the-fly atomic UHF.

  ==> Iterations <==

                           Total Energy        Delta E     RMS |[F,P]|

   @DF-RHF iter   0:  -316.75286505651087   -3.16753e+02   6.91184e-03 
   @DF-RHF iter   1:  -313.27820011103546    3.47466e+00   7.50221e-04 
   @DF-RHF iter   2:  -313.50532475357414   -2.27125e-01   2.80838e-04 DIIS
   @DF-RHF iter   3:  -313.53617675517609   -3.08520e-02   1.04044e-04 DIIS
   @DF-RHF iter   4:  -313.54175152709939   -5.57477e-03   1.54366e-05 DIIS
   @DF-RHF iter   5:  -313.54191570053712   -1.64173e-04   4.35335e-06 DIIS
   @DF-RHF iter   6:  -313.54192655077799   -1.08502e-05   1.35042e-06 DIIS
   @DF-RHF iter   7:  -313.54192753044634   -9.79668e-07   2.62799e-07 DIIS
   @DF-RHF iter   8:  -313.54192757651600   -4.60697e-08   6.80415e-08 DIIS
   @DF-RHF iter   9:  -313.54192757949960   -2.98360e-09   1.95163e-08 DIIS
   @DF-RHF iter  10:  -313.54192757973254   -2.32944e-10   6.04752e-09 DIIS
   @DF-RHF iter  11:  -313.54192757975528   -2.27374e-11   1.29203e-09 DIIS
   @DF-RHF iter  12:  -313.54192757975574   -4.54747e-13   3.15622e-10 DIIS
   @DF-RHF iter  13:  -313.54192757975733   -1.59162e-12   8.81559e-11 DIIS

  ==> Post-Iterations <==

    Orbital Energies (a.u.)
    -----------------------

    Doubly Occupied:                                                      

       1A    -11.212659     2A    -11.212549     3A    -11.210165  
       4A    -11.209786     5A    -11.209424     6A    -11.209115  
       7A    -11.206337     8A    -11.206308     9A     -1.094021  
      10A     -1.060686    11A     -1.008395    12A     -0.941709  
      13A     -0.891635    14A     -0.828390    15A     -0.786130  
      16A     -0.757312    17A     -0.638117    18A     -0.625258  
      19A     -0.618956    20A     -0.593219    21A     -0.584174  
      22A     -0.562880    23A     -0.542009    24A     -0.526008  
      25A     -0.518087    26A     -0.502714    27A     -0.486334  
      28A     -0.471963    29A     -0.466284    30A     -0.460765  
      31A     -0.448928    32A     -0.436471    33A     -0.434736  

    Virtual:                                                              

      34A      0.030811    35A      0.032636    36A      0.033968  
      37A      0.036293    38A      0.043986    39A      0.047679  
      40A      0.049313    41A      0.054093    42A      0.056472  
      43A      0.062234    44A      0.069319    45A      0.070229  
      46A      0.071986    47A      0.076488    48A      0.087068  
      49A      0.092781    50A      0.099621    51A      0.110970  
      52A      0.112631    53A      0.116737    54A      0.119603  
      55A      0.123398    56A      0.126196    57A      0.130312  
      58A      0.130766    59A      0.133671    60A      0.134693  
      61A      0.140865    62A      0.148806    63A      0.150541  
      64A      0.154432    65A      0.156845    66A      0.159811  
      67A      0.164785    68A      0.165923    69A      0.173747  
      70A      0.174752    71A      0.178362    72A      0.184614  
      73A      0.187153    74A      0.190074    75A      0.197534  
      76A      0.202060    77A      0.214343    78A      0.228576  
      79A      0.230916    80A      0.241554    81A      0.243434  
      82A      0.246206    83A      0.250652    84A      0.262564  
      85A      0.265758    86A      0.275841    87A      0.279392  
      88A      0.282507    89A      0.286159    90A      0.293833  
      91A      0.300797    92A      0.303999    93A      0.309576  
      94A      0.315639    95A      0.318771    96A      0.321173  
      97A      0.323540    98A      0.327390    99A      0.332326  
     100A      0.334291   101A      0.341249   102A      0.344769  
     103A      0.346975   104A      0.348769   105A      0.355635  
     106A      0.356920   107A      0.360436   108A      0.362452  
     109A      0.365252   110A      0.368678   111A      0.373353  
     112A      0.375444   113A      0.379405   114A      0.383659  
     115A      0.390200   116A      0.392654   117A      0.394694  
     118A      0.397471   119A      0.401173   120A      0.403396  
     121A      0.413658   122A      0.417317   123A      0.420091  
     124A      0.426106   125A      0.430194   126A      0.434295  
     127A      0.438702   128A      0.439498   129A      0.446510  
     130A      0.452374   131A      0.457527   132A      0.460613  
     133A      0.462869   134A      0.470556   135A      0.474800  
     136A      0.478048   137A      0.479285   138A      0.479964  
     139A      0.483158   140A      0.488893   141A      0.492116  
     142A      0.495290   143A      0.497204   144A      0.502576  
     145A      0.504193   146A      0.507634   147A      0.510316  
     148A      0.515585   149A      0.516826   150A      0.518520  
     151A      0.523696   152A      0.529365   153A      0.532533  
     154A      0.535451   155A      0.540139   156A      0.547808  
     157A      0.549463   158A      0.554310   159A      0.559793  
     160A      0.562108   161A      0.571040   162A      0.573771  
     163A      0.580396   164A      0.582236   165A      0.585482  
     166A      0.595191   167A      0.598924   168A      0.603237  
     169A      0.609473   170A      0.612106   171A      0.613845  
     172A      0.621602   173A      0.630273   174A      0.634414  
     175A      0.641154   176A      0.644089   177A      0.645342  
     178A      0.652687   179A      0.658474   180A      0.660460  
     181A      0.667270   182A      0.669070   183A      0.680918  
     184A      0.683551   185A      0.687932   186A      0.696880  
     187A      0.701257   188A      0.710098   189A      0.713048  
     190A      0.718531   191A      0.725668   192A      0.729914  
     193A      0.737990   194A      0.742209   195A      0.752274  
     196A      0.759460   197A      0.769563   198A      0.772901  
     199A      0.781507   200A      0.787449   201A      0.797081  
     202A      0.811124   203A      0.812315   204A      0.824524  
     205A      0.828805   206A      0.835866   207A      0.842536  
     208A      0.851608   209A      0.854561   210A      0.860989  
     211A      0.862363   212A      0.869570   213A      0.874715  
     214A      0.880466   215A      0.884573   216A      0.891665  
     217A      0.893004   218A      0.902091   219A      0.904266  
     220A      0.906216   221A      0.910472   222A      0.917641  
     223A      0.920469   224A      0.922087   225A      0.932969  
     226A      0.936972   227A      0.941851   228A      0.946015  
     229A      0.951742   230A      0.954624   231A      0.961432  
     232A      0.964163   233A      0.966332   234A      0.975740  
     235A      0.981352   236A      0.984189   237A      0.990842  
     238A      0.993308   239A      1.000256   240A      1.007685  
     241A      1.011075   242A      1.014401   243A      1.017749  
     244A      1.022813   245A      1.028212   246A      1.031957  
     247A      1.034570   248A      1.049411   249A      1.052243  
     250A      1.060245   251A      1.062931   252A      1.068762  
     253A      1.077501   254A      1.084705   255A      1.086596  
     256A      1.093095   257A      1.095893   258A      1.097655  
     259A      1.105313   260A      1.108602   261A      1.112245  
     262A      1.116988   263A      1.123430   264A      1.125046  
     265A      1.130344   266A      1.140668   267A      1.143418  
     268A      1.150306   269A      1.151903   270A      1.159721  
     271A      1.162822   272A      1.168717   273A      1.170134  
     274A      1.175907   275A      1.188827   276A      1.196002  
     277A      1.196731   278A      1.204744   279A      1.210003  
     280A      1.215289   281A      1.218059   282A      1.222040  
     283A      1.226593   284A      1.230107   285A      1.237775  
     286A      1.238417   287A      1.248683   288A      1.252392  
     289A      1.256967   290A      1.269599   291A      1.273027  
     292A      1.276859   293A      1.279314   294A      1.283206  
     295A      1.291340   296A      1.292733   297A      1.304587  
     298A      1.314090   299A      1.317863   300A      1.328435  
     301A      1.330899   302A      1.338503   303A      1.344790  
     304A      1.359056   305A      1.363689   306A      1.364840  
     307A      1.380297   308A      1.384543   309A      1.390404  
     310A      1.399886   311A      1.404474   312A      1.411402  
     313A      1.416683   314A      1.426012   315A      1.432796  
     316A      1.441255   317A      1.442785   318A      1.455343  
     319A      1.459763   320A      1.465283   321A      1.474966  
     322A      1.477978   323A      1.486902   324A      1.494915  
     325A      1.497203   326A      1.508054   327A      1.512729  
     328A      1.520671   329A      1.529813   330A      1.538348  
     331A      1.546908   332A      1.554277   333A      1.558180  
     334A      1.569242   335A      1.579112   336A      1.584465  
     337A      1.592954   338A      1.605588   339A      1.612318  
     340A      1.615959   341A      1.621638   342A      1.640653  
     343A      1.641748   344A      1.647158   345A      1.655543  
     346A      1.661578   347A      1.665801   348A      1.673562  
     349A      1.678857   350A      1.688717   351A      1.691753  
     352A      1.700798   353A      1.701418   354A      1.704669  
     355A      1.710329   356A      1.716344   357A      1.718750  
     358A      1.720123   359A      1.729059   360A      1.732906  
     361A      1.738652   362A      1.747356   363A      1.752118  
     364A      1.753461   365A      1.762135   366A      1.769619  
     367A      1.774216   368A      1.781396   369A      1.786352  
     370A      1.798162   371A      1.800703   372A      1.802230  
     373A      1.813831   374A      1.822857   375A      1.828604  
     376A      1.830665   377A      1.835663   378A      1.841396  
     379A      1.845591   380A      1.863020   381A      1.866077  
     382A      1.871345   383A      1.875770   384A      1.884099  
     385A      1.890440   386A      1.893582   387A      1.900858  
     388A      1.908706   389A      1.916205   390A      1.923341  
     391A      1.933041   392A      1.936185   393A      1.944165  
     394A      1.951545   395A      1.960835   396A      1.966654  
     397A      1.971108   398A      1.976480   399A      1.988891  
     400A      1.989906   401A      1.995808   402A      2.000476  
     403A      2.003179   404A      2.016897   405A      2.023452  
     406A      2.032446   407A      2.034625   408A      2.044256  
     409A      2.051460   410A      2.055034   411A      2.062296  
     412A      2.072979   413A      2.077366   414A      2.086874  
     415A      2.091572   416A      2.095008   417A      2.097293  
     418A      2.114171   419A      2.120377   420A      2.127616  
     421A      2.133670   422A      2.137640   423A      2.148133  
     424A      2.155704   425A      2.159064   426A      2.161547  
     427A      2.177174   428A      2.196492   429A      2.202604  
     430A      2.210074   431A      2.222131   432A      2.231401  
     433A      2.240676   434A      2.257403   435A      2.266437  
     436A      2.270583   437A      2.281273   438A      2.284396  
     439A      2.297489   440A      2.308349   441A      2.312244  
     442A      2.323167   443A      2.328910   444A      2.338802  
     445A      2.339428   446A      2.347356   447A      2.350336  
     448A      2.357655   449A      2.365301   450A      2.367773  
     451A      2.380875   452A      2.408969   453A      2.421079  
     454A      2.423008   455A      2.429522   456A      2.434835  
     457A      2.454144   458A      2.460299   459A      2.469977  
     460A      2.475802   461A      2.491539   462A      2.514668  
     463A      2.517938   464A      2.526916   465A      2.553935  
     466A      2.559591   467A      2.571462   468A      2.580365  
     469A      2.583328   470A      2.600050   471A      2.611502  
     472A      2.640693   473A      2.654423   474A      2.666522  
     475A      2.670267   476A      2.694768   477A      2.702926  
     478A      2.713756   479A      2.741736   480A      2.762470  
     481A      2.782644   482A      2.797882   483A      2.815792  
     484A      2.859125   485A      2.901613   486A      2.929898  
     487A      2.948298   488A      3.005118   489A      3.024692  
     490A      3.100746   491A      3.159821   492A      3.169751  
     493A      3.291837   494A      3.306513   495A      3.324050  
     496A      3.426441   497A      3.429334   498A      3.438326  
     499A      3.458193   500A      3.470215   501A      3.483513  
     502A      3.496751   503A      3.501700   504A      3.512644  
     505A      3.532682   506A      3.548097   507A      3.548581  
     508A      3.571158   509A      3.575635   510A      3.592635  
     511A      3.596195   512A      3.604430   513A      3.620378  
     514A      3.634311   515A      3.636232   516A      3.642901  
     517A      3.653503   518A      3.670668   519A      3.678900  
     520A      3.680540   521A      3.697533   522A      3.698562  
     523A      3.724661   524A      3.731221   525A      3.733913  
     526A      3.737702   527A      3.753473   528A      3.761807  
     529A      3.771447   530A      3.776653   531A      3.786398  
     532A      3.793737   533A      3.799447   534A      3.810057  
     535A      3.814457   536A      3.826967   537A      3.842548  
     538A      3.847799   539A      3.851463   540A      3.857338  
     541A      3.868304   542A      3.880449   543A      3.894537  
     544A      3.902056   545A      3.910460   546A      3.916692  
     547A      3.927459   548A      3.929190   549A      3.939673  
     550A      3.957500   551A      3.962961   552A      3.966999  
     553A      3.974077   554A      3.984819   555A      3.987446  
     556A      3.991494   557A      3.994612   558A      3.999096  
     559A      4.009276   560A      4.013309   561A      4.021517  
     562A      4.024452   563A      4.033787   564A      4.039889  
     565A      4.044721   566A      4.059755   567A      4.061334  
     568A      4.063549   569A      4.067429   570A      4.081746  
     571A      4.089620   572A      4.093914   573A      4.096174  
     574A      4.107759   575A      4.123275   576A      4.137125  
     577A      4.145485   578A      4.149224   579A      4.153239  
     580A      4.160041   581A      4.168013   582A      4.175744  
     583A      4.178312   584A      4.196934   585A      4.202965  
     586A      4.223188   587A      4.230544   588A      4.244937  
     589A      4.257025   590A      4.278823   591A      4.282878  
     592A      4.292124   593A      4.298926   594A      4.306644  
     595A      4.317264   596A      4.321920   597A      4.333091  
     598A      4.345348   599A      4.352621   600A      4.358585  
     601A      4.365297   602A      4.371393   603A      4.390575  
     604A      4.401396   605A      4.402854   606A      4.423379  
     607A      4.434390   608A      4.445637   609A      4.461981  
     610A      4.478157   611A      4.508397   612A      4.536058  
     613A      4.536701   614A      4.540623   615A      4.557155  
     616A      4.573918   617A      4.578706   618A      4.587217  
     619A      4.603036   620A      4.621216   621A      4.633854  
     622A      4.639605   623A      4.662559   624A      4.675818  
     625A      4.684036   626A      4.697970   627A      4.704598  
     628A      4.718415   629A      4.727388   630A      4.735927  
     631A      4.750831   632A      4.758307   633A      4.771594  
     634A      4.773836   635A      4.778785   636A      4.791106  
     637A      4.795792   638A      4.819910   639A      4.827342  
     640A      4.829638   641A      4.847669   642A      4.865882  
     643A      4.868870   644A      4.880539   645A      4.885516  
     646A      4.892856   647A      4.898835   648A      4.902230  
     649A      4.921175   650A      4.927089   651A      4.944215  
     652A      4.957004   653A      4.963745   654A      4.977560  
     655A      4.995723   656A      5.011607   657A      5.028454  
     658A      5.038626   659A      5.046021   660A      5.052941  
     661A      5.059237   662A      5.063871   663A      5.072868  
     664A      5.087308   665A      5.111799   666A      5.120692  
     667A      5.131904   668A      5.134270   669A      5.154619  
     670A      5.157453   671A      5.171024   672A      5.175488  
     673A      5.197840   674A      5.205556   675A      5.219633  
     676A      5.236729   677A      5.246628   678A      5.274801  
     679A      5.284546   680A      5.290748   681A      5.308519  
     682A      5.314801   683A      5.328916   684A      5.342517  
     685A      5.353216   686A      5.368112   687A      5.378787  
     688A      5.384713   689A      5.402291   690A      5.414522  
     691A      5.425247   692A      5.432697   693A      5.444920  
     694A      5.450269   695A      5.453149   696A      5.468151  
     697A      5.478250   698A      5.480324   699A      5.492752  
     700A      5.510258   701A      5.515125   702A      5.528452  
     703A      5.545478   704A      5.556307   705A      5.580079  
     706A      5.592745   707A      5.603403   708A      5.607104  
     709A      5.629119   710A      5.640196   711A      5.644056  
     712A      5.648632   713A      5.660064   714A      5.669406  
     715A      5.689405   716A      5.691806   717A      5.707249  
     718A      5.724039   719A      5.728980   720A      5.740042  
     721A      5.755103   722A      5.758848   723A      5.770418  
     724A      5.785383   725A      5.809783   726A      5.823523  
     727A      5.845309   728A      5.850692   729A      5.865866  
     730A      5.884434   731A      5.900840   732A      5.935360  
     733A      5.977344   734A      5.989541   735A      6.005991  
     736A      6.017488   737A      6.053152   738A      6.057872  
     739A      6.082461   740A      6.118486   741A      6.148641  
     742A      6.159748   743A      6.175186   744A      6.178209  
     745A      6.206438   746A      6.216751   747A      6.247339  
     748A      6.250309   749A      6.294399   750A      6.304466  
     751A      6.309598   752A      6.321906   753A      6.344711  
     754A      6.346686   755A      6.350240   756A      6.373928  
     757A      6.397811   758A      6.420606   759A      6.580508  
     760A      6.624405   761A      6.630288   762A      6.689984  
     763A      6.738526   764A      6.751783   765A      6.794737  
     766A      6.800467   767A      6.878273   768A      6.889970  
     769A      6.926492   770A      6.937093   771A      6.987083  
     772A      7.007158   773A      7.080405   774A      7.103220  
     775A     17.898559   776A     17.922556   777A     18.351443  
     778A     18.503718   779A     18.613231   780A     18.649221  
     781A     19.194482   782A     19.656879  

    Final Occupation by Irrep:
              A 
    DOCC [    33 ]

  Energy converged.

  @DF-RHF Final Energy:  -313.54192757975733

   => Energetics <=

    Nuclear Repulsion Energy =            389.4586122291767083
    One-Electron Energy =               -1194.0780362824655185
    Two-Electron Energy =                 491.0774964735315393
    DFT Exchange-Correlation Energy =       0.0000000000000000
    Empirical Dispersion Energy =           0.0000000000000000
    PCM Polarization Energy =               0.0000000000000000
    EFP Energy =                            0.0000000000000000
    Total Energy =                       -313.5419275797573277


  Saving occupied orbitals to File 180.

*** tstop() called on wr32 at Tue Sep 20 22:41:19 2016
Module time:
	user time   =     834.84 seconds =      13.91 minutes
	system time =      10.29 seconds =       0.17 minutes
	total time  =         76 seconds =       1.27 minutes
Total time:
	user time   =     834.84 seconds =      13.91 minutes
	system time =      10.29 seconds =       0.17 minutes
	total time  =         76 seconds =       1.27 minutes


Properties will be evaluated at   0.000000,   0.000000,   0.000000 Bohr

Properties computed using the SCF density matrix

  Nuclear Dipole Moment: (a.u.)
     X:     0.1164      Y:     0.9035      Z:    -0.7748

  Electronic Dipole Moment: (a.u.)
     X:    -0.1200      Y:    -0.9363      Z:     0.7871

  Dipole Moment: (a.u.)
     X:    -0.0035      Y:    -0.0329      Z:     0.0123     Total:     0.0353

  Dipole Moment: (Debye)
     X:    -0.0090      Y:    -0.0835      Z:     0.0313     Total:     0.0896


  //>>>>>>>>>>>>>>>>>>>>>>>>>>>>>>>>>>>//
  //               DFMP2               //
  //<<<<<<<<<<<<<<<<<<<<<<<<<<<<<<<<<<<//


*** tstart() called on wr32
*** at Tue Sep 20 22:41:19 2016


*** tstop() called on wr32 at Tue Sep 20 22:41:20 2016
Module time:
	user time   =       4.13 seconds =       0.07 minutes
	system time =       0.15 seconds =       0.00 minutes
	total time  =          1 seconds =       0.02 minutes
Total time:
	user time   =     839.10 seconds =      13.98 minutes
	system time =      10.44 seconds =       0.17 minutes
	total time  =         77 seconds =       1.28 minutes
	 --------------------------------------------------------
	                          DF-MP2                         
	      2nd-Order Density-Fitted Moller-Plesset Theory     
	              RMP2 Wavefunction,  12 Threads             
	                                                         
	        Rob Parrish, Justin Turney, Andy Simmonett,      
	           Ed Hohenstein, and C. David Sherrill          
	 --------------------------------------------------------

   => Auxiliary Basis Set <=

  Basis Set: 
    Number of shells: 476
    Number of basis function: 1676
    Number of Cartesian functions: 2078
    Spherical Harmonics?: true
    Max angular momentum: 4

	 --------------------------------------------------------
	                 NBF =   782, NAUX =  1676
	 --------------------------------------------------------
	   CLASS    FOCC     OCC    AOCC    AVIR     VIR    FVIR
	   PAIRS       8      33      25     749     749       0
	 --------------------------------------------------------

DGAS Warning! /src/lib/libfock/apps.cc:80 is not currently checking restricted

         ------------------------------------------------------------
                                     CPHF                           
                                  Rob Parrish                       
         ------------------------------------------------------------

  ==> Geometry <==

    Molecular point group: c1
    Full point group: C1

    Geometry (in Angstrom), charge = 0, multiplicity = 1:

       Center              X                  Y                   Z               Mass       
    ------------   -----------------  -----------------  -----------------  -----------------
           C         -3.580299676914     0.522391477116    -0.508754027996    12.000000000000
           H         -4.660490580677     0.636232362795    -0.420774825529     1.007825032070
           H         -3.364946172893     0.126248944869    -1.502699327358     1.007825032070
           H         -3.137334855783     1.515353692745    -0.442595819910     1.007825032070
           C          3.729096424566     0.637298710358    -0.459155717873    12.000000000000
           H          3.506810997112     1.313563972066    -1.286356810899     1.007825032070
           H          4.792873871360     0.403511581709    -0.495490018982     1.007825032070
           H          3.542602677469     1.174097188929     0.469956284374     1.007825032070
           C         -3.033817021873    -0.407520868853     0.569389410161    12.000000000000
           H         -3.576336723505    -1.354918699641     0.535227839633     1.007825032070
           H         -3.222841877712     0.023827224761     1.556335994860     1.007825032070
           C          2.884486935727    -0.628574472947    -0.559730170640    12.000000000000
           H          3.180523260720    -1.184318559315    -1.452232615652     1.007825032070
           H          3.094326830168    -1.279623574908     0.293544703648     1.007825032070
           C         -1.539001821091    -0.683308837385     0.422432464350    12.000000000000
           H         -1.360453684467    -1.144687012955    -0.552523972990     1.007825032070
           H         -1.231163533562    -1.415311467793     1.175703132904     1.007825032070
           C         -0.675121162046     0.565377594375     0.575487450526    12.000000000000
           H         -0.983237292143     1.091994703362     1.484338515076     1.007825032070
           H         -0.857372784148     1.250008181624    -0.257304280443     1.007825032070
           C          0.821765168106     0.269673258429     0.651273239150    12.000000000000
           H          1.352855008867     1.199703341797     0.864944969284     1.007825032070
           H          1.015272672787    -0.402229526318     1.494513652978     1.007825032070
           C          1.382459371058    -0.356275823671    -0.621532348645    12.000000000000
           H          0.862610450103    -1.295353623938    -0.822399253657     1.007825032070
           H          1.170511183009     0.305627631456    -1.468644706799     1.007825032070

  Nuclear repulsion =  389.458612229176708
  Reference energy  = -313.541927579757328

  ==> Basis Set <==

  Basis Set: AUG-CC-PVTZ
    Number of shells: 274
    Number of basis function: 782
    Number of Cartesian functions: 890
    Spherical Harmonics?: true
    Max angular momentum: 3

  ==> CGRSolver (by Rob Parrish) <==

   Number of roots    =         1
   Preconditioning    =    JACOBI
   Convergence cutoff =     1E-06
   Maximum iterations =       100

  ==> CPHFRHamiltonian (by Rob Parrish) <== 

  ==> DFJK: Density-Fitted J/K Matrices <==

    J tasked:                  Yes
    K tasked:                  Yes
    wK tasked:                  No
    OpenMP threads:             12
    Integrals threads:          12
    Memory (MB):             42915
    Algorithm:                Core
    Integral Cache:           NONE
    Schwarz Cutoff:          1E-12
    Fitting Condition:       1E-12

   => Auxiliary Basis Set <=

  Basis Set: 
    Number of shells: 492
    Number of basis function: 1660
    Number of Cartesian functions: 2038
    Spherical Harmonics?: true
    Max angular momentum: 4

  ==> CPHF Iterations <==

  => Iterations <=

             Iter  Converged  Remaining    Residual
  CGR           1          0          1   9.059E-02
  CGR           2          0          1   1.254E-02
  CGR           3          0          1   2.939E-03
  CGR           4          0          1   7.635E-04
  CGR           5          0          1   1.828E-04
  CGR           6          0          1   4.019E-05
  CGR           7          0          1   8.867E-06
  CGR           8          0          1   2.146E-06
  CGR           9          1          0   5.935E-07

    CGRSolver converged.

  ==> DFCorrGrad: Density-Fitted Correlated Gradients <==

    OpenMP threads:             12
    Integrals threads:          12
    Memory (MB):             42915
    Schwarz Cutoff:          0E+00
    Fitting Condition:       1E-12

   => Auxiliary Basis Set <=

  Basis Set: 
    Number of shells: 492
    Number of basis function: 1660
    Number of Cartesian functions: 2038
    Spherical Harmonics?: true
    Max angular momentum: 4

	-----------------------------------------------------------
	 ==================> DF-MP2 Energies <==================== 
	-----------------------------------------------------------
	 Reference Energy          =    -313.5419275797573277 [Eh]
	 Singles Energy            =      -0.0000000000000005 [Eh]
	 Same-Spin Energy          =      -0.3159579115606933 [Eh]
	 Opposite-Spin Energy      =      -1.1249396489536787 [Eh]
	 Correlation Energy        =      -1.4408975605143723 [Eh]
	 Total Energy              =    -314.9828251402717001 [Eh]
	-----------------------------------------------------------
	 ================> DF-SCS-MP2 Energies <================== 
	-----------------------------------------------------------
	 SCS Same-Spin Scale       =       0.3333333333333333 [-]
	 SCS Opposite-Spin Scale   =       1.2000000000000000 [-]
	 SCS Same-Spin Energy      =      -0.1053193038535644 [Eh]
	 SCS Opposite-Spin Energy  =      -1.3499275787444145 [Eh]
	 SCS Correlation Energy    =      -1.4552468825979794 [Eh]
	 SCS Total Energy          =    -314.9971744623553036 [Eh]
	-----------------------------------------------------------


  -Total Gradient:
     Atom            X                  Y                   Z
    ------   -----------------  -----------------  -----------------
       1       -0.000000310080     0.000000101030    -0.000000259929
       2        0.000000218938    -0.000000024261    -0.000000075610
       3       -0.000000036291     0.000000085796     0.000000243693
       4       -0.000000240445    -0.000000415431     0.000000087025
       5        0.000000201107     0.000000141405    -0.000000011218
       6        0.000000011065    -0.000000098767     0.000000084039
       7       -0.000000074620     0.000000050343     0.000000012577
       8        0.000000019545    -0.000000067777    -0.000000097878
       9       -0.000000156939     0.000000023724     0.000000473926
      10        0.000000115858     0.000000322277    -0.000000011615
      11        0.000000013592    -0.000000115254    -0.000000238452
      12       -0.000000065636    -0.000000208505    -0.000000091781
      13       -0.000000004610     0.000000069993     0.000000111783
      14       -0.000000045171     0.000000090310    -0.000000106086
      15        0.000000386415    -0.000000478831    -0.000000503701
      16        0.000000074987     0.000000088493     0.000000213719
      17       -0.000000034543     0.000000433053    -0.000000353601
      18       -0.000000024727     0.000000337553     0.000000295596
      19        0.000000078153    -0.000000078637    -0.000000285141
      20        0.000000335366    -0.000000521049     0.000000476841
      21        0.000000053052     0.000000385356     0.000000382707
      22       -0.000000193737    -0.000000288348    -0.000000027473
      23       -0.000000147590     0.000000335066    -0.000000493271
      24       -0.000000178173    -0.000000159636    -0.000000318740
      25       -0.000000037653     0.000000187095     0.000000029646
      26        0.000000042133    -0.000000194999     0.000000462946


			-----------------------------------------
			 OPTKING 2.0: for geometry optimizations 
			  - R.A. King,  Bethel University        
			-----------------------------------------

	Internal coordinates to be generated automatically.
	Detected frag 1 with atoms:  1 2 3 4 5 6 7 8 9 10 11 12 13 14 15 16 17 18 19 20
	 21 22 23 24 25 26
	---Fragment 1 Bond Connectivity---
	 1 : 2 3 4 9
	 2 : 1
	 3 : 1
	 4 : 1
	 5 : 6 7 8 12
	 6 : 5
	 7 : 5
	 8 : 5
	 9 : 1 10 11 15
	 10 : 9
	 11 : 9
	 12 : 5 13 14 24
	 13 : 12
	 14 : 12
	 15 : 9 16 17 18
	 16 : 15
	 17 : 15
	 18 : 15 19 20 21
	 19 : 18
	 20 : 18
	 21 : 18 22 23 24
	 22 : 21
	 23 : 21
	 24 : 12 21 25 26
	 25 : 24
	 26 : 24

	---Fragment 1 Geometry and Gradient---
	 C          -6.7657858630        0.9871768259       -0.9614057819
	 H          -8.8070508424        1.2023049226       -0.7951491839
	 H          -6.3588267187        0.2385759304       -2.8396901888
	 H          -5.9287036646        2.8636034737       -0.8363848872
	 C           7.0469709656        1.2043200274       -0.8676785591
	 H           6.6269123843        2.4822761652       -2.4308620818
	 H           9.0572190063        0.7625263809       -0.9363404375
	 H           6.6945488580        2.2187221405        0.8880886719
	 C          -5.7330833086       -0.7701028356        1.0759900482
	 H          -6.7582969664       -2.5604252746        1.0114340356
	 H          -6.0902885185        0.0450269293        2.9410488010
	 C           5.4508903424       -1.1878336080       -1.0577367308
	 H           6.0103179220       -2.2380377312       -2.7443219248
	 H           5.8474302747       -2.4181381098        0.5547190977
	 C          -2.9082919599       -1.2912665668        0.7982816673
	 H          -2.5708848801       -2.1631449624       -1.0441189908
	 H          -2.3265619032       -2.6745510669        2.2217569348
	 C          -1.2757941028        1.0684088150        1.0875136744
	 H          -1.8580492058        2.0635709279        2.8049932820
	 H          -1.6201997558        2.3621731271       -0.4862346229
	 C           1.5529111133        0.5096086038        1.2307280597
	 H           2.5565254643        2.2671107567        1.6345091120
	 H           1.9185873018       -0.7601036473        2.8242215060
	 C           2.6124696011       -0.6732637345       -1.1745259217
	 H           1.6300975101       -2.4478635945       -1.5541093613
	 H           2.2119455714        0.5775525221       -2.7753362824
	            -0.0000003101        0.0000001010       -0.0000002599
	             0.0000002189       -0.0000000243       -0.0000000756
	            -0.0000000363        0.0000000858        0.0000002437
	            -0.0000002404       -0.0000004154        0.0000000870
	             0.0000002011        0.0000001414       -0.0000000112
	             0.0000000111       -0.0000000988        0.0000000840
	            -0.0000000746        0.0000000503        0.0000000126
	             0.0000000195       -0.0000000678       -0.0000000979
	            -0.0000001569        0.0000000237        0.0000004739
	             0.0000001159        0.0000003223       -0.0000000116
	             0.0000000136       -0.0000001153       -0.0000002385
	            -0.0000000656       -0.0000002085       -0.0000000918
	            -0.0000000046        0.0000000700        0.0000001118
	            -0.0000000452        0.0000000903       -0.0000001061
	             0.0000003864       -0.0000004788       -0.0000005037
	             0.0000000750        0.0000000885        0.0000002137
	            -0.0000000345        0.0000004331       -0.0000003536
	            -0.0000000247        0.0000003376        0.0000002956
	             0.0000000782       -0.0000000786       -0.0000002851
	             0.0000003354       -0.0000005210        0.0000004768
	             0.0000000531        0.0000003854        0.0000003827
	            -0.0000001937       -0.0000002883       -0.0000000275
	            -0.0000001476        0.0000003351       -0.0000004933
	            -0.0000001782       -0.0000001596       -0.0000003187
	            -0.0000000377        0.0000001871        0.0000000296
	             0.0000000421       -0.0000001950        0.0000004629

	Previous optimization step data not found.  Starting new optimization.

	---Fragment 1 Intrafragment Coordinates---
	 - Coordinate -           - BOHR/RAD -       - ANG/DEG -
	 R(1,2)           =         2.059292	       1.089730
	 R(1,3)           =         2.062516	       1.091436
	 R(1,4)           =         2.058474	       1.089297
	 R(1,9)           =         2.881924	       1.525049
	 R(5,6)           =         2.062320	       1.091333
	 R(5,7)           =         2.059367	       1.089770
	 R(5,8)           =         2.058138	       1.089120
	 R(5,12)          =         2.882012	       1.525095
	 R(9,10)          =         2.064094	       1.092272
	 R(9,11)          =         2.066513	       1.093552
	 R(9,15)          =         2.885859	       1.527131
	 R(12,13)         =         2.064088	       1.092268
	 R(12,14)         =         2.066617	       1.093607
	 R(12,24)         =         2.887049	       1.527761
	 R(15,16)         =         2.066024	       1.093293
	 R(15,17)         =         2.068373	       1.094536
	 R(15,18)         =         2.883881	       1.526084
	 R(18,19)         =         2.068600	       1.094656
	 R(18,20)         =         2.066186	       1.093379
	 R(18,21)         =         2.886926	       1.527695
	 R(21,22)         =         2.063757	       1.092093
	 R(21,23)         =         2.070051	       1.095424
	 R(21,24)         =         2.882204	       1.525196
	 R(24,25)         =         2.063575	       1.091997
	 R(24,26)         =         2.070641	       1.095736
	 B(1,9,10)        =         1.905819	     109.195371
	 B(1,9,11)        =         1.913018	     109.607883
	 B(1,9,15)        =         1.974516	     113.131446
	 B(2,1,3)         =         1.882862	     107.880027
	 B(2,1,4)         =         1.878594	     107.635502
	 B(2,1,9)         =         1.941021	     111.212294
	 B(3,1,4)         =         1.881710	     107.814043
	 B(3,1,9)         =         1.930278	     110.596788
	 B(4,1,9)         =         1.946769	     111.541665
	 B(5,12,13)       =         1.902976	     109.032516
	 B(5,12,14)       =         1.913906	     109.658750
	 B(5,12,24)       =         1.981449	     113.528677
	 B(6,5,7)         =         1.882299	     107.847799
	 B(6,5,8)         =         1.882121	     107.837594
	 B(6,5,12)        =         1.930030	     110.582568
	 B(7,5,8)         =         1.876881	     107.537374
	 B(7,5,12)        =         1.939423	     111.120750
	 B(8,5,12)        =         1.950373	     111.748117
	 B(9,15,16)       =         1.898514	     108.776820
	 B(9,15,17)       =         1.906939	     109.259543
	 B(9,15,18)       =         1.978695	     113.370848
	 B(10,9,11)       =         1.859283	     106.529045
	 B(10,9,15)       =         1.903426	     109.058293
	 B(11,9,15)       =         1.904220	     109.103772
	 B(12,24,21)      =         1.983206	     113.629350
	 B(12,24,25)      =         1.898850	     108.796106
	 B(12,24,26)      =         1.906159	     109.214883
	 B(13,12,14)      =         1.857338	     106.417641
	 B(13,12,24)      =         1.900851	     108.910729
	 B(14,12,24)      =         1.903200	     109.045343
	 B(15,18,19)      =         1.893959	     108.515880
	 B(15,18,20)      =         1.919410	     109.974118
	 B(15,18,21)      =         1.983686	     113.656815
	 B(16,15,17)      =         1.860385	     106.592185
	 B(16,15,18)      =         1.920148	     110.016387
	 B(17,15,18)      =         1.895452	     108.601425
	 B(18,21,22)      =         1.897967	     108.745480
	 B(18,21,23)      =         1.907102	     109.268872
	 B(18,21,24)      =         1.980402	     113.468664
	 B(19,18,20)      =         1.859003	     106.513003
	 B(19,18,21)      =         1.904694	     109.130934
	 B(20,18,21)      =         1.898966	     108.802741
	 B(21,24,25)      =         1.908617	     109.355708
	 B(21,24,26)      =         1.903016	     109.034801
	 B(22,21,23)      =         1.860672	     106.608641
	 B(22,21,24)      =         1.911344	     109.511945
	 B(23,21,24)      =         1.902578	     109.009689
	 B(25,24,26)      =         1.860001	     106.570184
	 D(1,9,15,16)     =        -1.039609	     -59.565189
	 D(1,9,15,17)     =        -3.064088	    -175.559288
	 D(1,9,15,18)     =         1.102525	      63.170022
	 D(2,1,9,10)      =         0.941531	      53.945750
	 D(2,1,9,11)      =        -1.089120	     -62.401972
	 D(2,1,9,15)      =         3.064692	     175.593943
	 D(3,1,9,10)      =        -1.150197	     -65.901428
	 D(3,1,9,11)      =         3.102338	     177.750850
	 D(3,1,9,15)      =         0.972965	      55.746765
	 D(4,1,9,10)      =         3.038924	     174.117539
	 D(4,1,9,11)      =         1.008274	      57.769817
	 D(4,1,9,15)      =        -1.121099	     -64.234268
	 D(5,12,24,21)    =        -1.138262	     -65.217611
	 D(5,12,24,25)    =         3.014292	     172.706236
	 D(5,12,24,26)    =         0.990512	      56.752185
	 D(6,5,12,13)     =         1.147530	      65.748654
	 D(6,5,12,14)     =        -3.108457	    -178.101474
	 D(6,5,12,24)     =        -0.974951	     -55.860596
	 D(7,5,12,13)     =        -0.942281	     -53.988710
	 D(7,5,12,14)     =         1.084917	      62.161162
	 D(7,5,12,24)     =        -3.064763	    -175.597960
	 D(8,5,12,13)     =        -3.038847	    -174.113128
	 D(8,5,12,14)     =        -1.011650	     -57.963255
	 D(8,5,12,24)     =         1.121856	      64.277623
	 D(9,15,18,19)    =         0.859456	      49.243203
	 D(9,15,18,20)    =        -1.167672	     -66.902651
	 D(9,15,18,21)    =         2.981838	     170.846757
	 D(10,9,15,16)    =         1.084897	      62.160017
	 D(10,9,15,17)    =        -0.939582	     -53.834082
	 D(10,9,15,18)    =        -3.056155	    -175.104772
	 D(11,9,15,16)    =         3.109285	     178.148913
	 D(11,9,15,17)    =         1.084806	      62.154814
	 D(11,9,15,18)    =        -1.031767	     -59.115876
	 D(12,24,21,18)   =         3.122019	     178.878512
	 D(12,24,21,22)   =         0.997875	      57.174017
	 D(12,24,21,23)   =        -1.031663	     -59.109963
	 D(13,12,24,21)   =         3.021256	     173.105200
	 D(13,12,24,25)   =         0.890625	      51.029047
	 D(13,12,24,26)   =        -1.133155	     -64.925004
	 D(14,12,24,21)   =         1.001166	      57.362607
	 D(14,12,24,25)   =        -1.129464	     -64.713546
	 D(14,12,24,26)   =         3.129941	     179.332403
	 D(15,18,21,22)   =        -3.038402	    -174.087631
	 D(15,18,21,23)   =        -1.013795	     -58.086164
	 D(15,18,21,24)   =         1.113190	      63.781072
	 D(16,15,18,19)   =         2.989582	     171.290446
	 D(16,15,18,20)   =         0.962455	      55.144593
	 D(16,15,18,21)   =        -1.171221	     -67.106000
	 D(17,15,18,19)   =        -1.263557	     -72.396472
	 D(17,15,18,20)   =         2.992501	     171.457675
	 D(17,15,18,21)   =         0.858826	      49.207082
	 D(18,21,24,25)   =        -1.035957	     -59.355982
	 D(18,21,24,26)   =         0.991502	      56.808857
	 D(19,18,21,22)   =        -0.922007	     -52.827129
	 D(19,18,21,23)   =         1.102600	      63.174338
	 D(19,18,21,24)   =        -3.053601	    -174.958425
	 D(20,18,21,22)   =         1.099845	      63.016494
	 D(20,18,21,23)   =         3.124453	     179.017960
	 D(20,18,21,24)   =        -1.031748	     -59.114803
	 D(22,21,24,25)   =         3.123084	     178.939523
	 D(22,21,24,26)   =        -1.132643	     -64.895638
	 D(23,21,24,25)   =         1.093546	      62.655544
	 D(23,21,24,26)   =         3.121004	     178.820383

	Current energy   :      -314.9828251403

	Generating empirical Hessian (Schlegel '84) for each fragment.
	Taking RFO optimization step.
	Going to follow RFO solution 1.
	Using RFO vector 1.
	Norm of target step-size    0.00024
	Projected energy change by RFO approximation:        -0.0000000006

	Back-transformation to cartesian coordinates...
	Successfully converged to displaced geometry.

	--- Internal Coordinate Step in ANG or DEG, aJ/ANG or AJ/DEG ---
	 ---------------------------------------------------------------------------
	   Coordinate                Previous        Force       Change         New 
	   ----------                --------       ------       ------       ------
	    1 R(1,2)          =      1.089730     0.000002     0.000000     1.089731
	    2 R(1,3)          =      1.091436     0.000002     0.000000     1.091437
	    3 R(1,4)          =      1.089297     0.000004     0.000001     1.089298
	    4 R(1,9)          =      1.525049    -0.000000    -0.000000     1.525049
	    5 R(5,6)          =      1.091333     0.000001     0.000000     1.091333
	    6 R(5,7)          =      1.089770     0.000001     0.000000     1.089770
	    7 R(5,8)          =      1.089120     0.000001     0.000000     1.089120
	    8 R(5,12)         =      1.525095    -0.000001    -0.000000     1.525095
	    9 R(9,10)         =      1.092272     0.000003     0.000001     1.092272
	   10 R(9,11)         =      1.093552     0.000002     0.000000     1.093552
	   11 R(9,15)         =      1.527131    -0.000003    -0.000001     1.527130
	   12 R(12,13)        =      1.092268     0.000001     0.000000     1.092268
	   13 R(12,14)        =      1.093607     0.000001     0.000000     1.093607
	   14 R(12,24)        =      1.527761    -0.000000    -0.000000     1.527761
	   15 R(15,16)        =      1.093293     0.000002     0.000000     1.093293
	   16 R(15,17)        =      1.094536     0.000004     0.000001     1.094537
	   17 R(15,18)        =      1.526084     0.000000     0.000000     1.526084
	   18 R(18,19)        =      1.094656     0.000002     0.000000     1.094656
	   19 R(18,20)        =      1.093379     0.000006     0.000001     1.093380
	   20 R(18,21)        =      1.527695     0.000004     0.000001     1.527696
	   21 R(21,22)        =      1.092093     0.000003     0.000001     1.092094
	   22 R(21,23)        =      1.095424     0.000005     0.000001     1.095425
	   23 R(21,24)        =      1.525196     0.000000     0.000000     1.525197
	   24 R(24,25)        =      1.091997     0.000001     0.000000     1.091997
	   25 R(24,26)        =      1.095736     0.000004     0.000001     1.095737
	   26 B(1,9,10)       =    109.195371     0.000000     0.000157   109.195529
	   27 B(1,9,11)       =    109.607883     0.000000    -0.000051   109.607832
	   28 B(1,9,15)       =    113.131446    -0.000000    -0.000157   113.131289
	   29 B(2,1,3)        =    107.880027     0.000000     0.000005   107.880032
	   30 B(2,1,4)        =    107.635502     0.000000     0.000019   107.635521
	   31 B(2,1,9)        =    111.212294    -0.000000    -0.000028   111.212266
	   32 B(3,1,4)        =    107.814043    -0.000000    -0.000029   107.814014
	   33 B(3,1,9)        =    110.596788     0.000000    -0.000003   110.596785
	   34 B(4,1,9)        =    111.541665     0.000000     0.000036   111.541701
	   35 B(5,12,13)      =    109.032516     0.000000     0.000021   109.032537
	   36 B(5,12,14)      =    109.658750     0.000000     0.000010   109.658760
	   37 B(5,12,24)      =    113.528677    -0.000000    -0.000064   113.528612
	   38 B(6,5,7)        =    107.847799    -0.000000    -0.000002   107.847797
	   39 B(6,5,8)        =    107.837594    -0.000000    -0.000008   107.837586
	   40 B(6,5,12)       =    110.582568     0.000000     0.000017   110.582584
	   41 B(7,5,8)        =    107.537374     0.000000     0.000005   107.537379
	   42 B(7,5,12)       =    111.120750    -0.000000    -0.000017   111.120733
	   43 B(8,5,12)       =    111.748117     0.000000     0.000006   111.748123
	   44 B(9,15,16)      =    108.776820     0.000000    -0.000144   108.776675
	   45 B(9,15,17)      =    109.259543     0.000000     0.000132   109.259674
	   46 B(9,15,18)      =    113.370848    -0.000000    -0.000196   113.370652
	   47 B(10,9,11)      =    106.529045    -0.000000     0.000037   106.529082
	   48 B(10,9,15)      =    109.058293     0.000000     0.000089   109.058382
	   49 B(11,9,15)      =    109.103772     0.000000    -0.000064   109.103708
	   50 B(12,24,21)     =    113.629350    -0.000000    -0.000090   113.629260
	   51 B(12,24,25)     =    108.796106     0.000000     0.000019   108.796125
	   52 B(12,24,26)     =    109.214883    -0.000000    -0.000070   109.214813
	   53 B(13,12,14)     =    106.417641    -0.000000     0.000014   106.417655
	   54 B(13,12,24)     =    108.910729     0.000000    -0.000007   108.910721
	   55 B(14,12,24)     =    109.045343     0.000000     0.000032   109.045375
	   56 B(15,18,19)     =    108.515880    -0.000000    -0.000171   108.515709
	   57 B(15,18,20)     =    109.974118    -0.000000     0.000012   109.974130
	   58 B(15,18,21)     =    113.656815     0.000000     0.000213   113.657027
	   59 B(16,15,17)     =    106.592185    -0.000000     0.000043   106.592228
	   60 B(16,15,18)     =    110.016387     0.000000    -0.000056   110.016331
	   61 B(17,15,18)     =    108.601425     0.000000     0.000238   108.601662
	   62 B(18,21,22)     =    108.745480    -0.000000    -0.000173   108.745307
	   63 B(18,21,23)     =    109.268872    -0.000000     0.000133   109.269005
	   64 B(18,21,24)     =    113.468664     0.000000     0.000150   113.468814
	   65 B(19,18,20)     =    106.513003     0.000000    -0.000069   106.512935
	   66 B(19,18,21)     =    109.130934    -0.000000    -0.000090   109.130844
	   67 B(20,18,21)     =    108.802741    -0.000000     0.000086   108.802827
	   68 B(21,24,25)     =    109.355708     0.000000     0.000077   109.355785
	   69 B(21,24,26)     =    109.034801     0.000000     0.000059   109.034860
	   70 B(22,21,23)     =    106.608641     0.000000    -0.000040   106.608602
	   71 B(22,21,24)     =    109.511945    -0.000000    -0.000199   109.511746
	   72 B(23,21,24)     =    109.009689    -0.000000     0.000117   109.009806
	   73 B(25,24,26)     =    106.570184    -0.000000     0.000010   106.570195
	   74 D(1,9,15,16)    =    -59.565189    -0.000000    -0.002058   -59.567247
	   75 D(1,9,15,17)    =   -175.559288    -0.000000    -0.002102  -175.561390
	   76 D(1,9,15,18)    =     63.170022    -0.000000    -0.002369    63.167653
	   77 D(2,1,9,10)     =     53.945750     0.000000     0.001114    53.946864
	   78 D(2,1,9,11)     =    -62.401972    -0.000000     0.001008   -62.400964
	   79 D(2,1,9,15)     =    175.593943     0.000000     0.001234   175.595178
	   80 D(3,1,9,10)     =    -65.901428     0.000000     0.001128   -65.900300
	   81 D(3,1,9,11)     =    177.750850    -0.000000     0.001022   177.751872
	   82 D(3,1,9,15)     =     55.746765     0.000000     0.001249    55.748014
	   83 D(4,1,9,10)     =    174.117539     0.000000     0.001143   174.118682
	   84 D(4,1,9,11)     =     57.769817    -0.000000     0.001037    57.770854
	   85 D(4,1,9,15)     =    -64.234268     0.000000     0.001264   -64.233004
	   86 D(5,12,24,21)   =    -65.217611     0.000000     0.000391   -65.217220
	   87 D(5,12,24,25)   =    172.706236    -0.000000     0.000338   172.706574
	   88 D(5,12,24,26)   =     56.752185     0.000000     0.000353    56.752538
	   89 D(6,5,12,13)    =     65.748654    -0.000000     0.000069    65.748723
	   90 D(6,5,12,14)    =   -178.101474     0.000000     0.000103  -178.101371
	   91 D(6,5,12,24)    =    -55.860596     0.000000     0.000107   -55.860489
	   92 D(7,5,12,13)    =    -53.988710    -0.000000     0.000072   -53.988638
	   93 D(7,5,12,14)    =     62.161162     0.000000     0.000106    62.161268
	   94 D(7,5,12,24)    =   -175.597960     0.000000     0.000110  -175.597850
	   95 D(8,5,12,13)    =   -174.113128    -0.000000     0.000074  -174.113054
	   96 D(8,5,12,14)    =    -57.963255     0.000000     0.000108   -57.963148
	   97 D(8,5,12,24)    =     64.277623     0.000000     0.000111    64.277734
	   98 D(9,15,18,19)   =     49.243203     0.000000     0.002406    49.245609
	   99 D(9,15,18,20)   =    -66.902651     0.000000     0.002579   -66.900072
	  100 D(9,15,18,21)   =    170.846757     0.000000     0.002309   170.849065
	  101 D(10,9,15,16)   =     62.160017     0.000000    -0.001899    62.158119
	  102 D(10,9,15,17)   =    -53.834082     0.000000    -0.001943   -53.836024
	  103 D(10,9,15,18)   =   -175.104772    -0.000000    -0.002210  -175.106982
	  104 D(11,9,15,16)   =    178.148913     0.000000    -0.001840   178.147073
	  105 D(11,9,15,17)   =     62.154814     0.000000    -0.001884    62.152930
	  106 D(11,9,15,18)   =    -59.115876    -0.000000    -0.002151   -59.118027
	  107 D(12,24,21,18)  =    178.878512    -0.000000    -0.002574   178.875938
	  108 D(12,24,21,22)  =     57.174017    -0.000000    -0.002309    57.171707
	  109 D(12,24,21,23)  =    -59.109963     0.000000    -0.002217   -59.112180
	  110 D(13,12,24,21)  =    173.105200     0.000000     0.000413   173.105613
	  111 D(13,12,24,25)  =     51.029047     0.000000     0.000360    51.029407
	  112 D(13,12,24,26)  =    -64.925004     0.000000     0.000375   -64.924629
	  113 D(14,12,24,21)  =     57.362607    -0.000000     0.000383    57.362990
	  114 D(14,12,24,25)  =    -64.713546    -0.000000     0.000330   -64.713216
	  115 D(14,12,24,26)  =    179.332403     0.000000     0.000346   179.332749
	  116 D(15,18,21,22)  =   -174.087631     0.000000     0.002414  -174.085217
	  117 D(15,18,21,23)  =    -58.086164     0.000000     0.002344   -58.083820
	  118 D(15,18,21,24)  =     63.781072     0.000000     0.002694    63.783766
	  119 D(16,15,18,19)  =    171.290446    -0.000000     0.002041   171.292487
	  120 D(16,15,18,20)  =     55.144593     0.000000     0.002214    55.146806
	  121 D(16,15,18,21)  =    -67.106000    -0.000000     0.001943   -67.104056
	  122 D(17,15,18,19)  =    -72.396472     0.000000     0.002198   -72.394274
	  123 D(17,15,18,20)  =    171.457675     0.000000     0.002371   171.460046
	  124 D(17,15,18,21)  =     49.207082     0.000000     0.002100    49.209183
	  125 D(18,21,24,25)  =    -59.355982    -0.000000    -0.002554   -59.358535
	  126 D(18,21,24,26)  =     56.808857    -0.000000    -0.002465    56.806392
	  127 D(19,18,21,22)  =    -52.827129     0.000000     0.002273   -52.824856
	  128 D(19,18,21,23)  =     63.174338    -0.000000     0.002202    63.176540
	  129 D(19,18,21,24)  =   -174.958425     0.000000     0.002552  -174.955874
	  130 D(20,18,21,22)  =     63.016494    -0.000000     0.002189    63.018683
	  131 D(20,18,21,23)  =    179.017960    -0.000000     0.002119   179.020079
	  132 D(20,18,21,24)  =    -59.114803     0.000000     0.002468   -59.112335
	  133 D(22,21,24,25)  =    178.939523    -0.000000    -0.002289   178.937234
	  134 D(22,21,24,26)  =    -64.895638     0.000000    -0.002200   -64.897838
	  135 D(23,21,24,25)  =     62.655544     0.000000    -0.002197    62.653347
	  136 D(23,21,24,26)  =    178.820383     0.000000    -0.002108   178.818274
	 ---------------------------------------------------------------------------

  ==> Convergence Check <==

  Measures of convergence in internal coordinates in au.
  Criteria marked as inactive (o), active & met (*), and active & unmet ( ).
  --------------------------------------------------------------------------------------------- ~
   Step     Total Energy     Delta E     MAX Force     RMS Force      MAX Disp      RMS Disp    ~
  --------------------------------------------------------------------------------------------- ~
    Convergence Criteria             o    2.00e-06 *    1.00e-06 *    6.00e-06 *    4.00e-06 *  ~
  --------------------------------------------------------------------------------------------- ~
      1    -314.98282514   -3.15e+02 o    7.42e-07 *    2.06e-07 *    4.70e-05      2.10e-05    ~
  ---------------------------------------------------------------------------------------------

	Writing optimization data to binary file.
	Structure for next step:
	Cartesian Geometry (in Angstrom)
	    C    -3.5802512560   0.5224177003  -0.5087794986
	    H    -4.6604394078   0.6363069356  -0.4208248197
	    H    -3.3648937775   0.1262511050  -1.5027147782
	    H    -3.1372440182   1.5153621353  -0.4426268173
	    C     3.7290668849   0.6373405391  -0.4591708975
	    H     3.5067501240   1.3136097181  -1.2863606384
	    H     4.7928511395   0.4035864096  -0.4955218762
	    H     3.5425685682   1.1741216443   0.4699504419
	    C    -3.0338326742  -0.4075030956   0.5693891088
	    H    -3.5763783662  -1.3548863274   0.5352186828
	    H    -3.2228763750   0.0238598356   1.5563260456
	    C     2.8844953110  -0.6285573504  -0.5597505064
	    H     3.1805379979  -1.1842820064  -1.4522631810
	    H     3.0943648293  -1.2796101810   0.2935145091
	    C    -1.5390208574  -0.6833322452   0.4224826028
	    H    -1.3604608090  -1.1447548754  -0.5524509893
	    H    -1.2312167224  -1.4153109167   1.1757917329
	    C    -0.6751195097   0.5653443207   0.5755018883
	    H    -0.9832219850   1.0919846498   1.4843446792
	    H    -0.8573700747   1.2499611484  -0.2573028838
	    C     0.8217645938   0.2696237361   0.6512842556
	    H     1.3528607582   1.1996469162   0.8649730164
	    H     1.0152673101  -0.4022952671   1.4945140733
	    C     1.3824590683  -0.3563025484  -0.6215324907
	    H     0.8626348616  -1.2953944800  -0.8223984993
	    H     1.1704820506   0.3055998983  -1.4686394008
			--------------------------
			 OPTKING Finished Execution 
			--------------------------

    Structure for next step:
    Molecular point group: c1
    Full point group: C1

    Geometry (in Angstrom), charge = 0, multiplicity = 1:

    C           -3.580250614891     0.522420587593    -0.508780862556
    H           -4.660438766735     0.636309822844    -0.420826183682
    H           -3.364893136480     0.126253992258    -1.502716142140
    H           -3.137243377107     1.515365022592    -0.442628181224
    C            3.729067525987     0.637343426413    -0.459172261457
    H            3.506750765087     1.313612605389    -1.286362002356
    H            4.792851780521     0.403589296875    -0.495523240152
    H            3.542569209299     1.174124531601     0.469949077943
    C           -3.033832033164    -0.407500208383     0.569387744793
    H           -3.576377725133    -1.354883440140     0.535217318840
    H           -3.222875733963     0.023862722828     1.556324681677
    C            2.884495952097    -0.628554463105    -0.559751870358
    H            3.180538638917    -1.184279119118    -1.452264544947
    H            3.094365470350    -1.279607293748     0.293513145146
    C           -1.539020216334    -0.683329357969     0.422481238810
    H           -1.360460167958    -1.144751988134    -0.552452353287
    H           -1.231216081375    -1.415308029388     1.175790368886
    C           -0.675118868634     0.565347207931     0.575500524294
    H           -0.983221343937     1.091987537038     1.484343315276
    H           -0.857369433640     1.249964035630    -0.257304247762
    C            0.821765234897     0.269626623354     0.651282891635
    H            1.352861399248     1.199649803419     0.864971652473
    H            1.015267951154    -0.402292379880     1.494512709312
    C            1.382459709385    -0.356299661156    -0.621533854668
    H            0.862635502674    -1.295391592714    -0.822399863266
    H            1.170482691665     0.305602785550    -1.468640764782

gradient() will perform analytic gradient computation.

*** tstart() called on wr32
*** at Tue Sep 20 22:46:53 2016


         ---------------------------------------------------------
                                   SCF
            by Justin Turney, Rob Parrish, and Andy Simmonett
                              RHF Reference
                       12 Threads,  60000 MiB Core
         ---------------------------------------------------------

  ==> Geometry <==

    Molecular point group: c1
    Full point group: C1

    Geometry (in Angstrom), charge = 0, multiplicity = 1:

       Center              X                  Y                   Z               Mass       
    ------------   -----------------  -----------------  -----------------  -----------------
           C         -3.580250614891     0.522420587593    -0.508780862556    12.000000000000
           H         -4.660438766735     0.636309822844    -0.420826183682     1.007825032070
           H         -3.364893136480     0.126253992258    -1.502716142140     1.007825032070
           H         -3.137243377107     1.515365022592    -0.442628181224     1.007825032070
           C          3.729067525987     0.637343426413    -0.459172261457    12.000000000000
           H          3.506750765087     1.313612605389    -1.286362002356     1.007825032070
           H          4.792851780521     0.403589296875    -0.495523240152     1.007825032070
           H          3.542569209299     1.174124531601     0.469949077943     1.007825032070
           C         -3.033832033164    -0.407500208383     0.569387744793    12.000000000000
           H         -3.576377725133    -1.354883440140     0.535217318840     1.007825032070
           H         -3.222875733963     0.023862722828     1.556324681677     1.007825032070
           C          2.884495952097    -0.628554463105    -0.559751870358    12.000000000000
           H          3.180538638917    -1.184279119118    -1.452264544947     1.007825032070
           H          3.094365470350    -1.279607293748     0.293513145146     1.007825032070
           C         -1.539020216334    -0.683329357969     0.422481238810    12.000000000000
           H         -1.360460167958    -1.144751988134    -0.552452353287     1.007825032070
           H         -1.231216081375    -1.415308029388     1.175790368886     1.007825032070
           C         -0.675118868634     0.565347207931     0.575500524294    12.000000000000
           H         -0.983221343937     1.091987537038     1.484343315276     1.007825032070
           H         -0.857369433640     1.249964035630    -0.257304247762     1.007825032070
           C          0.821765234897     0.269626623354     0.651282891635    12.000000000000
           H          1.352861399248     1.199649803419     0.864971652473     1.007825032070
           H          1.015267951154    -0.402292379880     1.494512709312     1.007825032070
           C          1.382459709385    -0.356299661156    -0.621533854668    12.000000000000
           H          0.862635502674    -1.295391592714    -0.822399863266     1.007825032070
           H          1.170482691665     0.305602785550    -1.468640764782     1.007825032070

  Running in c1 symmetry.

  Rotational constants: A =      0.18748  B =      0.02136  C =      0.02124 [cm^-1]
  Rotational constants: A =   5620.64635  B =    640.20778  C =    636.68607 [MHz]
  Nuclear repulsion =  389.458713428143540

  Charge       = 0
  Multiplicity = 1
  Electrons    = 66
  Nalpha       = 33
  Nbeta        = 33

  ==> Algorithm <==

  SCF Algorithm Type is DF.
  DIIS enabled.
  MOM disabled.
  Fractional occupation disabled.
  Guess Type is READ.
  Energy threshold   = 1.00e-10
  Density threshold  = 1.00e-10
  Integral threshold = 0.00e+00

  ==> Primary Basis <==

  Basis Set: AUG-CC-PVTZ
    Number of shells: 274
    Number of basis function: 782
    Number of Cartesian functions: 890
    Spherical Harmonics?: true
    Max angular momentum: 3

  ==> Pre-Iterations <==

   -------------------------------------------------------
    Irrep   Nso     Nmo     Nalpha   Nbeta   Ndocc  Nsocc
   -------------------------------------------------------
     A        782     782       0       0       0       0
   -------------------------------------------------------
    Total     782     782      33      33      33       0
   -------------------------------------------------------

  ==> Integral Setup <==

  ==> DFJK: Density-Fitted J/K Matrices <==

    J tasked:                  Yes
    K tasked:                  Yes
    wK tasked:                  No
    OpenMP threads:             12
    Integrals threads:          12
    Memory (MB):             42915
    Algorithm:                Core
    Integral Cache:           NONE
    Schwarz Cutoff:          1E-12
    Fitting Condition:       1E-12

   => Auxiliary Basis Set <=

  Basis Set: 
    Number of shells: 492
    Number of basis function: 1660
    Number of Cartesian functions: 2038
    Spherical Harmonics?: true
    Max angular momentum: 4

  Minimum eigenvalue in the overlap matrix is 1.7892092949E-06.
  Using Symmetric Orthogonalization.
  SCF Guess: Reading in previously saved MOs, projecting if necessary.

  Using orbitals from previous SCF, no projection.
  Recomputing DOCC and SOCC from number of alpha and beta electrons from previous calculation.
              A 
    DOCC [    33 ]

  ==> Iterations <==

                           Total Energy        Delta E     RMS |[F,P]|

   @DF-RHF iter   0:  -313.54188649166559   -3.13542e+02   1.52777e-07 
   @DF-RHF iter   1:  -313.54192742562594   -4.09340e-05   3.41695e-08 
   @DF-RHF iter   2:  -313.54192742619074   -5.64796e-10   1.44778e-08 DIIS
   @DF-RHF iter   3:  -313.54192742627521   -8.44693e-11   4.95366e-09 DIIS
   @DF-RHF iter   4:  -313.54192742629181   -1.65983e-11   6.24141e-10 DIIS
   @DF-RHF iter   5:  -313.54192742629192   -1.13687e-13   2.32584e-10 DIIS
   @DF-RHF iter   6:  -313.54192742629238   -4.54747e-13   5.23107e-11 DIIS

  ==> Post-Iterations <==

    Orbital Energies (a.u.)
    -----------------------

    Doubly Occupied:                                                      

       1A    -11.212659     2A    -11.212549     3A    -11.210165  
       4A    -11.209786     5A    -11.209424     6A    -11.209116  
       7A    -11.206337     8A    -11.206308     9A     -1.094021  
      10A     -1.060686    11A     -1.008394    12A     -0.941709  
      13A     -0.891635    14A     -0.828390    15A     -0.786129  
      16A     -0.757312    17A     -0.638116    18A     -0.625258  
      19A     -0.618956    20A     -0.593219    21A     -0.584173  
      22A     -0.562880    23A     -0.542008    24A     -0.526009  
      25A     -0.518086    26A     -0.502714    27A     -0.486334  
      28A     -0.471963    29A     -0.466284    30A     -0.460765  
      31A     -0.448929    32A     -0.436471    33A     -0.434735  

    Virtual:                                                              

      34A      0.030811    35A      0.032636    36A      0.033968  
      37A      0.036293    38A      0.043986    39A      0.047679  
      40A      0.049313    41A      0.054093    42A      0.056472  
      43A      0.062234    44A      0.069319    45A      0.070229  
      46A      0.071986    47A      0.076488    48A      0.087068  
      49A      0.092781    50A      0.099620    51A      0.110969  
      52A      0.112631    53A      0.116737    54A      0.119603  
      55A      0.123398    56A      0.126196    57A      0.130312  
      58A      0.130766    59A      0.133671    60A      0.134693  
      61A      0.140865    62A      0.148806    63A      0.150541  
      64A      0.154433    65A      0.156845    66A      0.159812  
      67A      0.164784    68A      0.165923    69A      0.173747  
      70A      0.174751    71A      0.178361    72A      0.184614  
      73A      0.187154    74A      0.190074    75A      0.197535  
      76A      0.202060    77A      0.214344    78A      0.228574  
      79A      0.230915    80A      0.241554    81A      0.243434  
      82A      0.246205    83A      0.250651    84A      0.262564  
      85A      0.265758    86A      0.275840    87A      0.279392  
      88A      0.282506    89A      0.286160    90A      0.293834  
      91A      0.300797    92A      0.304000    93A      0.309575  
      94A      0.315641    95A      0.318770    96A      0.321172  
      97A      0.323540    98A      0.327389    99A      0.332326  
     100A      0.334291   101A      0.341249   102A      0.344768  
     103A      0.346975   104A      0.348769   105A      0.355635  
     106A      0.356921   107A      0.360435   108A      0.362452  
     109A      0.365251   110A      0.368679   111A      0.373354  
     112A      0.375444   113A      0.379404   114A      0.383660  
     115A      0.390200   116A      0.392654   117A      0.394695  
     118A      0.397471   119A      0.401173   120A      0.403396  
     121A      0.413659   122A      0.417316   123A      0.420092  
     124A      0.426106   125A      0.430193   126A      0.434294  
     127A      0.438702   128A      0.439499   129A      0.446510  
     130A      0.452373   131A      0.457527   132A      0.460613  
     133A      0.462867   134A      0.470556   135A      0.474799  
     136A      0.478048   137A      0.479286   138A      0.479965  
     139A      0.483159   140A      0.488893   141A      0.492115  
     142A      0.495291   143A      0.497202   144A      0.502576  
     145A      0.504193   146A      0.507634   147A      0.510316  
     148A      0.515585   149A      0.516827   150A      0.518521  
     151A      0.523695   152A      0.529366   153A      0.532535  
     154A      0.535452   155A      0.540139   156A      0.547808  
     157A      0.549464   158A      0.554309   159A      0.559791  
     160A      0.562107   161A      0.571038   162A      0.573772  
     163A      0.580397   164A      0.582237   165A      0.585483  
     166A      0.595191   167A      0.598924   168A      0.603237  
     169A      0.609473   170A      0.612104   171A      0.613847  
     172A      0.621600   173A      0.630276   174A      0.634413  
     175A      0.641156   176A      0.644088   177A      0.645341  
     178A      0.652687   179A      0.658474   180A      0.660461  
     181A      0.667270   182A      0.669072   183A      0.680921  
     184A      0.683551   185A      0.687933   186A      0.696876  
     187A      0.701258   188A      0.710094   189A      0.713048  
     190A      0.718529   191A      0.725672   192A      0.729919  
     193A      0.737989   194A      0.742210   195A      0.752273  
     196A      0.759461   197A      0.769564   198A      0.772902  
     199A      0.781510   200A      0.787448   201A      0.797083  
     202A      0.811126   203A      0.812316   204A      0.824524  
     205A      0.828804   206A      0.835863   207A      0.842535  
     208A      0.851610   209A      0.854559   210A      0.860987  
     211A      0.862363   212A      0.869566   213A      0.874718  
     214A      0.880467   215A      0.884574   216A      0.891664  
     217A      0.893004   218A      0.902090   219A      0.904266  
     220A      0.906215   221A      0.910470   222A      0.917640  
     223A      0.920468   224A      0.922085   225A      0.932969  
     226A      0.936968   227A      0.941850   228A      0.946017  
     229A      0.951742   230A      0.954624   231A      0.961437  
     232A      0.964165   233A      0.966331   234A      0.975741  
     235A      0.981351   236A      0.984189   237A      0.990844  
     238A      0.993307   239A      1.000256   240A      1.007683  
     241A      1.011077   242A      1.014402   243A      1.017751  
     244A      1.022811   245A      1.028215   246A      1.031956  
     247A      1.034578   248A      1.049412   249A      1.052245  
     250A      1.060245   251A      1.062932   252A      1.068761  
     253A      1.077501   254A      1.084706   255A      1.086597  
     256A      1.093093   257A      1.095895   258A      1.097654  
     259A      1.105311   260A      1.108604   261A      1.112246  
     262A      1.116990   263A      1.123433   264A      1.125050  
     265A      1.130342   266A      1.140668   267A      1.143420  
     268A      1.150305   269A      1.151904   270A      1.159720  
     271A      1.162824   272A      1.168718   273A      1.170134  
     274A      1.175907   275A      1.188827   276A      1.196004  
     277A      1.196732   278A      1.204748   279A      1.210002  
     280A      1.215290   281A      1.218057   282A      1.222044  
     283A      1.226596   284A      1.230110   285A      1.237774  
     286A      1.238418   287A      1.248684   288A      1.252393  
     289A      1.256964   290A      1.269595   291A      1.273027  
     292A      1.276855   293A      1.279313   294A      1.283207  
     295A      1.291340   296A      1.292734   297A      1.304590  
     298A      1.314090   299A      1.317862   300A      1.328440  
     301A      1.330898   302A      1.338503   303A      1.344789  
[...]
	 D(17,15,18,20)   =         2.992492	     171.457187
	 D(17,15,18,21)   =         0.858814	      49.206411
	 D(18,21,24,25)   =        -1.035971	     -59.356763
	 D(18,21,24,26)   =         0.991488	      56.808098
	 D(19,18,21,22)   =        -0.922007	     -52.827110
	 D(19,18,21,23)   =         1.102600	      63.174307
	 D(19,18,21,24)   =        -3.053599	    -174.958338
	 D(20,18,21,22)   =         1.099845	      63.016477
	 D(20,18,21,23)   =         3.124452	     179.017893
	 D(20,18,21,24)   =        -1.031747	     -59.114751
	 D(22,21,24,25)   =         3.123072	     178.938820
	 D(22,21,24,26)   =        -1.132654	     -64.896319
	 D(23,21,24,25)   =         1.093534	      62.654888
	 D(23,21,24,26)   =         3.120993	     178.819750

	Current energy   :      -314.9828251404

	Energy change for the previous step:
		Projected    :        -0.0000000001
		Actual       :        -0.0000000009

	Performing BFGS update.
	Previous computed or guess Hessian on step 1.
	Denominators (dg)(dq) or (dq)(dq) are very small.
	 Skipping Hessian update for step 12.
	Denominators (dg)(dq) or (dq)(dq) are very small.
	 Skipping Hessian update for step 11.
	Denominators (dg)(dq) or (dq)(dq) are very small.
	 Skipping Hessian update for step 10.
	Denominators (dg)(dq) or (dq)(dq) are very small.
	 Skipping Hessian update for step 9.
	Denominators (dg)(dq) or (dq)(dq) are very small.
	 Skipping Hessian update for step 8.
	Denominators (dg)(dq) or (dq)(dq) are very small.
	 Skipping Hessian update for step 7.
	Denominators (dg)(dq) or (dq)(dq) are very small.
	 Skipping Hessian update for step 6.
	Denominators (dg)(dq) or (dq)(dq) are very small.
	 Skipping Hessian update for step 5.
	Denominators (dg)(dq) or (dq)(dq) are very small.
	 Skipping Hessian update for step 4.
	Denominators (dg)(dq) or (dq)(dq) are very small.
	 Skipping Hessian update for step 3.
	Denominators (dg)(dq) or (dq)(dq) are very small.
	 Skipping Hessian update for step 2.
	Steps to be used in Hessian update: 1
	Taking RFO optimization step.
	Going to follow RFO solution 1.
	Using RFO vector 1.
	Norm of target step-size    0.00002
	Projected energy change by RFO approximation:        -0.0000000000

	Back-transformation to cartesian coordinates...
	Successfully converged to displaced geometry.

	--- Internal Coordinate Step in ANG or DEG, aJ/ANG or AJ/DEG ---
	 ---------------------------------------------------------------------------
	   Coordinate                Previous        Force       Change         New 
	   ----------                --------       ------       ------       ------
	    1 R(1,2)          =      1.089730    -0.000002    -0.000000     1.089730
	    2 R(1,3)          =      1.091436    -0.000002    -0.000000     1.091436
	    3 R(1,4)          =      1.089297    -0.000001    -0.000000     1.089297
	    4 R(1,9)          =      1.525049    -0.000000    -0.000000     1.525049
	    5 R(5,6)          =      1.091333    -0.000002    -0.000000     1.091333
	    6 R(5,7)          =      1.089770    -0.000002    -0.000000     1.089770
	    7 R(5,8)          =      1.089120    -0.000002    -0.000000     1.089120
	    8 R(5,12)         =      1.525095    -0.000001    -0.000000     1.525095
	    9 R(9,10)         =      1.092272    -0.000002    -0.000000     1.092271
	   10 R(9,11)         =      1.093551    -0.000002    -0.000000     1.093551
	   11 R(9,15)         =      1.527130    -0.000000    -0.000000     1.527130
	   12 R(12,13)        =      1.092268    -0.000002    -0.000000     1.092268
	   13 R(12,14)        =      1.093607    -0.000002    -0.000000     1.093607
	   14 R(12,24)        =      1.527761    -0.000000     0.000000     1.527761
	   15 R(15,16)        =      1.093293    -0.000002    -0.000000     1.093292
	   16 R(15,17)        =      1.094536    -0.000001    -0.000000     1.094536
	   17 R(15,18)        =      1.526084    -0.000000    -0.000000     1.526084
	   18 R(18,19)        =      1.094656    -0.000000     0.000000     1.094656
	   19 R(18,20)        =      1.093379     0.000000     0.000000     1.093379
	   20 R(18,21)        =      1.527696     0.000002     0.000000     1.527696
	   21 R(21,22)        =      1.092093    -0.000000     0.000000     1.092094
	   22 R(21,23)        =      1.095424    -0.000001     0.000000     1.095424
	   23 R(21,24)        =      1.525197    -0.000001    -0.000000     1.525197
	   24 R(24,25)        =      1.091997    -0.000000     0.000000     1.091997
	   25 R(24,26)        =      1.095736    -0.000001     0.000000     1.095737
	   26 B(1,9,10)       =    109.195478     0.000000     0.000042   109.195520
	   27 B(1,9,11)       =    109.607850     0.000000     0.000003   109.607854
	   28 B(1,9,15)       =    113.131349    -0.000000    -0.000070   113.131280
	   29 B(2,1,3)        =    107.880032    -0.000000    -0.000000   107.880031
	   30 B(2,1,4)        =    107.635515    -0.000000     0.000003   107.635518
	   31 B(2,1,9)        =    111.212302     0.000000     0.000020   111.212322
	   32 B(3,1,4)        =    107.814033     0.000000     0.000003   107.814036
	   33 B(3,1,9)        =    110.596781    -0.000000    -0.000014   110.596766
	   34 B(4,1,9)        =    111.541657    -0.000000    -0.000011   111.541646
	   35 B(5,12,13)      =    109.032493     0.000000     0.000025   109.032518
	   36 B(5,12,14)      =    109.658764     0.000000    -0.000001   109.658762
	   37 B(5,12,24)      =    113.528700    -0.000000    -0.000035   113.528665
	   38 B(6,5,7)        =    107.847794     0.000000     0.000002   107.847796
	   39 B(6,5,8)        =    107.837591     0.000000     0.000008   107.837599
	   40 B(6,5,12)       =    110.582588    -0.000000    -0.000014   110.582574
	   41 B(7,5,8)        =    107.537378    -0.000000     0.000002   107.537380
	   42 B(7,5,12)       =    111.120718     0.000000     0.000003   111.120721
	   43 B(8,5,12)       =    111.748133    -0.000000    -0.000001   111.748132
	   44 B(9,15,16)      =    108.776775    -0.000000    -0.000038   108.776737
	   45 B(9,15,17)      =    109.259575     0.000000     0.000000   109.259575
	   46 B(9,15,18)      =    113.370729    -0.000000    -0.000026   113.370704
	   47 B(10,9,11)      =    106.529062    -0.000000     0.000011   106.529073
	   48 B(10,9,15)      =    109.058353     0.000000     0.000026   109.058379
	   49 B(11,9,15)      =    109.103725     0.000000    -0.000008   109.103716
	   50 B(12,24,21)     =    113.629315    -0.000000    -0.000054   113.629261
	   51 B(12,24,25)     =    108.796078     0.000000     0.000010   108.796089
	   52 B(12,24,26)     =    109.214906     0.000000    -0.000013   109.214892
	   53 B(13,12,14)     =    106.417634    -0.000000     0.000004   106.417638
	   54 B(13,12,24)     =    108.910694     0.000000     0.000021   108.910715
	   55 B(14,12,24)     =    109.045368     0.000000    -0.000011   109.045358
	   56 B(15,18,19)     =    108.515812    -0.000000    -0.000018   108.515794
	   57 B(15,18,20)     =    109.974132    -0.000000    -0.000007   109.974125
	   58 B(15,18,21)     =    113.656886     0.000000     0.000019   113.656905
	   59 B(16,15,17)     =    106.592226     0.000000     0.000005   106.592231
	   60 B(16,15,18)     =    110.016374     0.000000     0.000035   110.016409
	   61 B(17,15,18)     =    108.601539     0.000000     0.000025   108.601564
	   62 B(18,21,22)     =    108.745406     0.000000     0.000007   108.745413
	   63 B(18,21,23)     =    109.268911     0.000000    -0.000003   109.268908
	   64 B(18,21,24)     =    113.468749    -0.000000     0.000015   113.468764
	   65 B(19,18,20)     =    106.512969     0.000000    -0.000001   106.512968
	   66 B(19,18,21)     =    109.130847    -0.000000    -0.000011   109.130836
	   67 B(20,18,21)     =    108.802836     0.000000     0.000017   108.802853
	   68 B(21,24,25)     =    109.355704     0.000000    -0.000002   109.355702
	   69 B(21,24,26)     =    109.034850     0.000000     0.000043   109.034893
	   70 B(22,21,23)     =    106.608616    -0.000000    -0.000001   106.608614
	   71 B(22,21,24)     =    109.511889     0.000000     0.000001   109.511889
	   72 B(23,21,24)     =    109.009714    -0.000000    -0.000020   109.009694
	   73 B(25,24,26)     =    106.570182    -0.000000     0.000020   106.570202
	   74 D(1,9,15,16)    =    -59.565893    -0.000000    -0.000167   -59.566060
	   75 D(1,9,15,17)    =   -175.560033    -0.000000    -0.000152  -175.560186
	   76 D(1,9,15,18)    =     63.169188    -0.000000    -0.000167    63.169020
	   77 D(2,1,9,10)     =     53.946073     0.000000     0.000041    53.946114
	   78 D(2,1,9,11)     =    -62.401712    -0.000000     0.000002   -62.401710
	   79 D(2,1,9,15)     =    175.594353     0.000000     0.000058   175.594411
	   80 D(3,1,9,10)     =    -65.901111     0.000000     0.000038   -65.901073
	   81 D(3,1,9,11)     =    177.751104    -0.000000    -0.000001   177.751102
	   82 D(3,1,9,15)     =     55.747169     0.000000     0.000055    55.747224
	   83 D(4,1,9,10)     =    174.117878     0.000000     0.000052   174.117929
	   84 D(4,1,9,11)     =     57.770093    -0.000000     0.000012    57.770105
	   85 D(4,1,9,15)     =    -64.233842     0.000000     0.000068   -64.233773
	   86 D(5,12,24,21)   =    -65.218079     0.000000     0.000126   -65.217953
	   87 D(5,12,24,25)   =    172.705817     0.000000     0.000157   172.705974
	   88 D(5,12,24,26)   =     56.751772     0.000000     0.000135    56.751907
	   89 D(6,5,12,13)    =     65.748805    -0.000000    -0.000231    65.748574
	   90 D(6,5,12,14)    =   -178.101336     0.000000    -0.000213  -178.101549
	   91 D(6,5,12,24)    =    -55.860399    -0.000000    -0.000252   -55.860651
	   92 D(7,5,12,13)    =    -53.988545    -0.000000    -0.000227   -53.988772
	   93 D(7,5,12,14)    =     62.161314     0.000000    -0.000209    62.161105
	   94 D(7,5,12,24)    =   -175.597749    -0.000000    -0.000248  -175.597997
	   95 D(8,5,12,13)    =   -174.112957    -0.000000    -0.000231  -174.113188
	   96 D(8,5,12,14)    =    -57.963098     0.000000    -0.000213   -57.963311
	   97 D(8,5,12,24)    =     64.277839    -0.000000    -0.000252    64.277587
	   98 D(9,15,18,19)   =     49.242687     0.000000    -0.000020    49.242668
	   99 D(9,15,18,20)   =    -66.903095     0.000000    -0.000004   -66.903098
	  100 D(9,15,18,21)   =    170.846129     0.000000    -0.000033   170.846095
	  101 D(10,9,15,16)   =     62.159427    -0.000000    -0.000141    62.159286
	  102 D(10,9,15,17)   =    -53.834713     0.000000    -0.000126   -53.834840
	  103 D(10,9,15,18)   =   -175.105492     0.000000    -0.000141  -175.105634
	  104 D(11,9,15,16)   =    178.148351    -0.000000    -0.000118   178.148232
	  105 D(11,9,15,17)   =     62.154210     0.000000    -0.000103    62.154107
	  106 D(11,9,15,18)   =    -59.116569     0.000000    -0.000118   -59.116687
	  107 D(12,24,21,18)  =    178.877793     0.000000     0.000025   178.877818
	  108 D(12,24,21,22)  =     57.173376    -0.000000     0.000004    57.173381
	  109 D(12,24,21,23)  =    -59.110555     0.000000     0.000017   -59.110538
	  110 D(13,12,24,21)  =    173.104771    -0.000000     0.000102   173.104873
	  111 D(13,12,24,25)  =     51.028667     0.000000     0.000134    51.028801
	  112 D(13,12,24,26)  =    -64.925378    -0.000000     0.000111   -64.925267
	  113 D(14,12,24,21)  =     57.362191    -0.000000     0.000092    57.362283
	  114 D(14,12,24,25)  =    -64.713913     0.000000     0.000123   -64.713789
	  115 D(14,12,24,26)  =    179.332042    -0.000000     0.000101   179.332143
	  116 D(15,18,21,22)  =   -174.087510     0.000000    -0.000087  -174.087597
	  117 D(15,18,21,23)  =    -58.086093     0.000000    -0.000086   -58.086179
	  118 D(15,18,21,24)  =     63.781262    -0.000000    -0.000103    63.781159
	  119 D(16,15,18,19)  =    171.289780    -0.000000    -0.000061   171.289720
	  120 D(16,15,18,20)  =     55.143998    -0.000000    -0.000045    55.143954
	  121 D(16,15,18,21)  =    -67.106778    -0.000000    -0.000074   -67.106853
	  122 D(17,15,18,19)  =    -72.397031     0.000000    -0.000021   -72.397052
	  123 D(17,15,18,20)  =    171.457187     0.000000    -0.000005   171.457182
	  124 D(17,15,18,21)  =     49.206411    -0.000000    -0.000035    49.206376
	  125 D(18,21,24,25)  =    -59.356763    -0.000000     0.000000   -59.356763
	  126 D(18,21,24,26)  =     56.808098     0.000000     0.000047    56.808145
	  127 D(19,18,21,22)  =    -52.827110    -0.000000    -0.000105   -52.827215
	  128 D(19,18,21,23)  =     63.174307     0.000000    -0.000104    63.174203
	  129 D(19,18,21,24)  =   -174.958338    -0.000000    -0.000121  -174.958459
	  130 D(20,18,21,22)  =     63.016477     0.000000    -0.000103    63.016374
	  131 D(20,18,21,23)  =    179.017893     0.000000    -0.000102   179.017791
	  132 D(20,18,21,24)  =    -59.114751    -0.000000    -0.000119   -59.114871
	  133 D(22,21,24,25)  =    178.938820    -0.000000    -0.000020   178.938800
	  134 D(22,21,24,26)  =    -64.896319     0.000000     0.000027   -64.896292
	  135 D(23,21,24,25)  =     62.654888    -0.000000    -0.000008    62.654881
	  136 D(23,21,24,26)  =    178.819750     0.000000     0.000039   178.819789
	 ---------------------------------------------------------------------------

  ==> Convergence Check <==

  Measures of convergence in internal coordinates in au.
  Criteria marked as inactive (o), active & met (*), and active & unmet ( ).
  ---------------------------------------------------------------------------------------------
   Step     Total Energy     Delta E     MAX Force     RMS Force      MAX Disp      RMS Disp   
  ---------------------------------------------------------------------------------------------
    Convergence Criteria             o    2.00e-06 *    1.00e-06 *    6.00e-06 *    4.00e-06 *
  ---------------------------------------------------------------------------------------------
     13    -314.98282514   -9.27e-10 o    2.83e-07 *    7.82e-08 *    4.40e-06 *    1.46e-06 *  ~
  ---------------------------------------------------------------------------------------------


  **** Optimization is complete! (in 13 steps) ****

  ==> Optimization Summary <==

  Measures of convergence in internal coordinates in au.
  --------------------------------------------------------------------------------------------------------------- ~
   Step         Total Energy             Delta E       MAX Force       RMS Force        MAX Disp        RMS Disp  ~
  --------------------------------------------------------------------------------------------------------------- ~
      1    -314.982825140272   -314.982825140272      0.00000074      0.00000021      0.00004701      0.00002097  ~
      2    -314.982825136381      0.000000003891      0.00000205      0.00000060      0.00003817      0.00001608  ~
      3    -314.982825140432     -0.000000004052      0.00000057      0.00000014      0.00001499      0.00000601  ~
      4    -314.982825138484      0.000000001949      0.00000064      0.00000016      0.00003253      0.00001115  ~
      5    -314.982825143431     -0.000000004947      0.00000139      0.00000033      0.00003717      0.00001186  ~
      6    -314.982825136496      0.000000006935      0.00000221      0.00000060      0.00004014      0.00001233  ~
      7    -314.982825139049     -0.000000002553      0.00000141      0.00000035      0.00000913      0.00000384  ~
      8    -314.982825135433      0.000000003616      0.00000027      0.00000006      0.00001823      0.00000566  ~
      9    -314.982825141787     -0.000000006354      0.00000081      0.00000023      0.00001658      0.00000560  ~
     10    -314.982825138103      0.000000003684      0.00000026      0.00000008      0.00001528      0.00000400  ~
     11    -314.982825138895     -0.000000000792      0.00000052      0.00000011      0.00003354      0.00001083  ~
     12    -314.982825139512     -0.000000000617      0.00000110      0.00000029      0.00003171      0.00001025  ~
     13    -314.982825140439     -0.000000000927      0.00000028      0.00000008      0.00000440      0.00000146  ~
  --------------------------------------------------------------------------------------------------------------- ~

	Writing optimization data to binary file.
	Final energy is   -314.9828251404392
	Final (previous) structure:
	Cartesian Geometry (in Angstrom)
	    C    -3.5802970678   0.5224087610  -0.5087428894
	    H    -4.6604862755   0.6362603168  -0.4207578205
	    H    -3.3649519735   0.1262756379  -1.5026936546
	    H    -3.1373209592   1.5153653412  -0.4425749093
	    C     3.7290927776   0.6373115528  -0.4591624964
	    H     3.5067998186   1.3135638409  -1.2863724930
	    H     4.7928724849   0.4035336878  -0.4954954273
	    H     3.5425955407   1.1741209047   0.4699426831
	    C    -3.0338198198  -0.4075221672   0.5693871413
	    H    -3.5763448305  -1.3549164877   0.5352144699
	    H    -3.2228401443   0.0238145044   1.5563394050
	    C     2.8844954978  -0.6285711563  -0.5597185904
	    H     3.1805381999  -1.1843256549  -1.4522127765
	    H     3.0943409956  -1.2796058387   0.2935661651
	    C    -1.5390066198  -0.6833149407   0.4224242765
	    H    -1.3604643859  -1.1446909740  -0.5525340121
	    H    -1.2311675403  -1.4153201954   1.1756922319
	    C    -0.6751238935   0.5653701844   0.5754769492
	    H    -0.9832432099   1.0919910911   1.4843246547
	    H    -0.8573716565   1.2499983676  -0.2573179814
	    C     0.8217618753   0.2696645176   0.6512726707
	    H     1.3528502099   1.1996955219   0.8649442162
	    H     1.0152645649  -0.4022348272   1.4945171705
	    C     1.3824654059  -0.3562883604  -0.6215271691
	    H     0.8626270508  -1.2953734303  -0.8223877387
	    H     1.1705122931   0.3056060628  -1.4686458816
	Saving final (previous) structure.
			--------------------------
			 OPTKING Finished Execution 
			--------------------------

    Final optimized geometry and variables:
    Molecular point group: c1
    Full point group: C1

    Geometry (in Angstrom), charge = 0, multiplicity = 1:

    C           -3.580297067834     0.522408761012    -0.508742889401
    H           -4.660486275540     0.636260316786    -0.420757820504
    H           -3.364951973474     0.126275637921    -1.502693654621
    H           -3.137320959222     1.515365341224    -0.442574909341
    C            3.729092777635     0.637311552765    -0.459162496380
    H            3.506799818631     1.313563840892    -1.286372492979
    H            4.792872484945     0.403533687837    -0.495495427319
    H            3.542595540689     1.174120904659     0.469942683144
    C           -3.033819819786    -0.407522167188     0.569387141253
    H           -3.576344830513    -1.354916487740     0.535214469921
    H           -3.222840144263     0.023814504440     1.556339404953
    C            2.884495497823    -0.628571156324    -0.559718590358
    H            3.180538199939    -1.184325654861    -1.452212776466
    H            3.094340995615    -1.279605838670     0.293566165114
    C           -1.539006619792    -0.683314940678     0.422424276484
    H           -1.360464385890    -1.144690973962    -0.552534012072
    H           -1.231167540251    -1.415320195416     1.175692231868
    C           -0.675123893485     0.565370184424     0.575476949186
    H           -0.983243209914     1.091991091067     1.484324654740
    H           -0.857371656480     1.249998367551    -0.257317981392
    C            0.821761875285     0.269664517594     0.651272670739
    H            1.352850209860     1.199695521905     0.864944216214
    H            1.015264564868    -0.402234827236     1.494517170463
    C            1.382465405856    -0.356288360369    -0.621527169057
    H            0.862627050769    -1.295373430316    -0.822387738663
    H            1.170512293128     0.305606062844    -1.468645881602

	Cleaning optimization helper files.

*** Psi4 exiting successfully. Buy a developer a beer!
