    -----------------------------------------------------------------------
          Psi4: An Open-Source Ab Initio Electronic Structure Package
                              Psi4 1.0.0 Driver

                          Git: Rev {master} 6a9a71b dirty

    J. M. Turney, A. C. Simmonett, R. M. Parrish, E. G. Hohenstein,
    F. A. Evangelista, J. T. Fermann, B. J. Mintz, L. A. Burns, J. J. Wilke,
    M. L. Abrams, N. J. Russ, M. L. Leininger, C. L. Janssen, E. T. Seidl,
    W. D. Allen, H. F. Schaefer, R. A. King, E. F. Valeev, C. D. Sherrill,
    and T. D. Crawford, WIREs Comput. Mol. Sci. 2, 556-565 (2012)
    (doi: 10.1002/wcms.93)

                         Additional Contributions by
    A. E. DePrince, U. Bozkaya, A. Yu. Sokolov, D. G. A. Smith, R. Di Remigio,
    R. M. Richard, J. F. Gonthier, H. R. McAlexander, M. Saitow, and
    B. P. Pritchard
    -----------------------------------------------------------------------


    Psi4 started on: Tue Sep 20 22:40:03 2016

    Process ID:  26263
    PSI4DATADIR: /usr/local/hpc5/psi4conda/share/psi4
    Memory level set to 256.000 MB

  ==> Input File <==

--------------------------------------------------------------------------
memory 60 Gb

molecule molecule_44_psi {
0 1
C           -3.252415997790    -0.312540819089    -0.445131554024
H           -3.719723443618     0.641868973995    -0.694000593818
H           -4.045109748453    -1.022540093191    -0.210433475660
H           -2.739561054996    -0.673445009718    -1.336473552630
C            3.252407171878     0.312563540653    -0.445161849933
H            4.045102570618     1.022556183463    -0.210448425305
H            2.739537825378     0.673500410011    -1.336482707344
H            3.719713560469    -0.641835784804    -0.694074048277
C           -2.290926034137    -0.152533397558     0.727334110961
H           -1.809457613894    -1.110258860388     0.938782281286
H           -2.856241133724     0.108409222838     1.624801046002
C            2.290935270916     0.152509590222     0.727312252362
H            2.856265106590    -0.108464391820     1.624760837981
H            1.809466524260     1.110225645927     0.938803738377
C           -1.229066821663     0.920537400618     0.490092915788
H           -0.596216327354     0.999731577090     1.377741886143
H           -1.725965532257     1.889129508489     0.381060020079
C           -0.354878122350     0.676883299082    -0.740943533715
H            0.385475126816     1.478225239475    -0.809988757162
H           -0.964860128448     0.756186744507    -1.643908323999
C            0.354868720821    -0.676864487371    -0.740968525865
H           -0.385484943005    -1.478204652496    -0.810029710913
H            0.964840180624    -0.756139175915    -1.643943405360
C            1.229076140311    -0.920556687084     0.490048243479
H            0.596237870770    -0.999783568643     1.377703330996
H            1.725977254957    -1.889143387886     0.380976003789
}

set globals {
  reference rhf
  g_convergence gau_verytight
  basis aug-cc-pvtz
  freeze_core true
  scf_type df
  mp_type df
}
optimize('mp2')
--------------------------------------------------------------------------
/usr/local/hpc5/psi4conda/lib/python2.7/site-packages/v2rdm_casscf/v2rdm_casscf.so loaded.

  Memory set to  60.000 GiB by Python script.
gradient() will perform analytic gradient computation.

*** tstart() called on wr25
*** at Tue Sep 20 22:40:03 2016


         ---------------------------------------------------------
                                   SCF
            by Justin Turney, Rob Parrish, and Andy Simmonett
                              RHF Reference
                       12 Threads,  60000 MiB Core
         ---------------------------------------------------------

  ==> Geometry <==

    Molecular point group: c1
    Full point group: C1

    Geometry (in Angstrom), charge = 0, multiplicity = 1:

       Center              X                  Y                   Z               Mass       
    ------------   -----------------  -----------------  -----------------  -----------------
           C         -3.252415997790    -0.312540819089    -0.445131554024    12.000000000000
           H         -3.719723443618     0.641868973995    -0.694000593818     1.007825032070
           H         -4.045109748453    -1.022540093191    -0.210433475660     1.007825032070
           H         -2.739561054996    -0.673445009718    -1.336473552630     1.007825032070
           C          3.252407171878     0.312563540653    -0.445161849933    12.000000000000
           H          4.045102570618     1.022556183463    -0.210448425305     1.007825032070
           H          2.739537825378     0.673500410011    -1.336482707344     1.007825032070
           H          3.719713560469    -0.641835784804    -0.694074048277     1.007825032070
           C         -2.290926034137    -0.152533397558     0.727334110961    12.000000000000
           H         -1.809457613894    -1.110258860388     0.938782281286     1.007825032070
           H         -2.856241133724     0.108409222838     1.624801046002     1.007825032070
           C          2.290935270916     0.152509590222     0.727312252362    12.000000000000
           H          2.856265106590    -0.108464391820     1.624760837981     1.007825032070
           H          1.809466524260     1.110225645927     0.938803738377     1.007825032070
           C         -1.229066821663     0.920537400618     0.490092915788    12.000000000000
           H         -0.596216327354     0.999731577090     1.377741886143     1.007825032070
           H         -1.725965532257     1.889129508489     0.381060020079     1.007825032070
           C         -0.354878122350     0.676883299082    -0.740943533715    12.000000000000
           H          0.385475126816     1.478225239475    -0.809988757162     1.007825032070
           H         -0.964860128448     0.756186744507    -1.643908323999     1.007825032070
           C          0.354868720821    -0.676864487371    -0.740968525865    12.000000000000
           H         -0.385484943005    -1.478204652496    -0.810029710913     1.007825032070
           H          0.964840180624    -0.756139175915    -1.643943405360     1.007825032070
           C          1.229076140311    -0.920556687084     0.490048243479    12.000000000000
           H          0.596237870770    -0.999783568643     1.377703330996     1.007825032070
           H          1.725977254957    -1.889143387886     0.380976003789     1.007825032070

  Running in c1 symmetry.

  Rotational constants: A =      0.14737  B =      0.02894  C =      0.02876 [cm^-1]
  Rotational constants: A =   4418.11228  B =    867.72902  C =    862.26723 [MHz]
  Nuclear repulsion =  406.989495256441444

  Charge       = 0
  Multiplicity = 1
  Electrons    = 66
  Nalpha       = 33
  Nbeta        = 33

  ==> Algorithm <==

  SCF Algorithm Type is DF.
  DIIS enabled.
  MOM disabled.
  Fractional occupation disabled.
  Guess Type is SAD.
  Energy threshold   = 1.00e-10
  Density threshold  = 1.00e-10
  Integral threshold = 0.00e+00

  ==> Primary Basis <==

  Basis Set: AUG-CC-PVTZ
    Number of shells: 274
    Number of basis function: 782
    Number of Cartesian functions: 890
    Spherical Harmonics?: true
    Max angular momentum: 3

  ==> Pre-Iterations <==

   -------------------------------------------------------
    Irrep   Nso     Nmo     Nalpha   Nbeta   Ndocc  Nsocc
   -------------------------------------------------------
     A        782     782       0       0       0       0
   -------------------------------------------------------
    Total     782     782      33      33      33       0
   -------------------------------------------------------

  ==> Integral Setup <==

  ==> DFJK: Density-Fitted J/K Matrices <==

    J tasked:                  Yes
    K tasked:                  Yes
    wK tasked:                  No
    OpenMP threads:             12
    Integrals threads:          12
    Memory (MB):             42915
    Algorithm:                Core
    Integral Cache:           NONE
    Schwarz Cutoff:          1E-12
    Fitting Condition:       1E-12

   => Auxiliary Basis Set <=

  Basis Set: 
    Number of shells: 492
    Number of basis function: 1660
    Number of Cartesian functions: 2038
    Spherical Harmonics?: true
    Max angular momentum: 4

  Minimum eigenvalue in the overlap matrix is 1.4441044312E-06.
  Using Symmetric Orthogonalization.
  SCF Guess: Superposition of Atomic Densities via on-the-fly atomic UHF.

  ==> Iterations <==

                           Total Energy        Delta E     RMS |[F,P]|

   @DF-RHF iter   0:  -317.40217567333360   -3.17402e+02   7.21066e-03 
   @DF-RHF iter   1:  -313.31846836003336    4.08371e+00   6.69092e-04 
   @DF-RHF iter   2:  -313.51389383059706   -1.95425e-01   2.22622e-04 DIIS
   @DF-RHF iter   3:  -313.53378663369114   -1.98928e-02   8.91895e-05 DIIS
   @DF-RHF iter   4:  -313.53749085854287   -3.70422e-03   1.68766e-05 DIIS
   @DF-RHF iter   5:  -313.53767681656274   -1.85958e-04   4.31039e-06 DIIS
   @DF-RHF iter   6:  -313.53768964233046   -1.28258e-05   1.41701e-06 DIIS
   @DF-RHF iter   7:  -313.53769082697846   -1.18465e-06   3.54391e-07 DIIS
   @DF-RHF iter   8:  -313.53769091332407   -8.63456e-08   9.53175e-08 DIIS
   @DF-RHF iter   9:  -313.53769091978808   -6.46401e-09   2.24250e-08 DIIS
   @DF-RHF iter  10:  -313.53769092018132   -3.93243e-10   5.32633e-09 DIIS
   @DF-RHF iter  11:  -313.53769092019996   -1.86446e-11   1.52450e-09 DIIS
   @DF-RHF iter  12:  -313.53769092020190   -1.93268e-12   3.94689e-10 DIIS
   @DF-RHF iter  13:  -313.53769092019974    2.16005e-12   1.01288e-10 DIIS
   @DF-RHF iter  14:  -313.53769092020167   -1.93268e-12   2.96070e-11 DIIS

  ==> Post-Iterations <==

    Orbital Energies (a.u.)
    -----------------------

    Doubly Occupied:                                                      

       1A    -11.212310     2A    -11.212310     3A    -11.210339  
       4A    -11.210282     5A    -11.209562     6A    -11.209009  
       7A    -11.206828     8A    -11.206828     9A     -1.097789  
      10A     -1.057569    11A     -1.002094    12A     -0.945809  
      13A     -0.895323    14A     -0.841887    15A     -0.782921  
      16A     -0.733740    17A     -0.650846    18A     -0.648606  
      19A     -0.602159    20A     -0.601014    21A     -0.573470  
      22A     -0.553922    23A     -0.544455    24A     -0.533141  
      25A     -0.513292    26A     -0.511994    27A     -0.485999  
      28A     -0.472754    29A     -0.470117    30A     -0.462252  
      31A     -0.443335    32A     -0.434546    33A     -0.433903  

    Virtual:                                                              

      34A      0.030370    35A      0.033424    36A      0.033804  
      37A      0.034713    38A      0.045764    39A      0.048813  
      40A      0.050306    41A      0.053830    42A      0.054378  
      43A      0.067564    44A      0.069940    45A      0.072400  
      46A      0.072405    47A      0.078880    48A      0.087720  
      49A      0.088621    50A      0.091862    51A      0.101871  
      52A      0.112297    53A      0.115483    54A      0.124332  
      55A      0.124917    56A      0.127819    57A      0.130440  
      58A      0.135400    59A      0.135472    60A      0.136662  
      61A      0.142284    62A      0.146068    63A      0.151268  
      64A      0.151292    65A      0.157234    66A      0.158685  
      67A      0.163434    68A      0.169516    69A      0.171880  
      70A      0.176538    71A      0.177283    72A      0.184793  
      73A      0.185322    74A      0.191054    75A      0.192679  
      76A      0.194284    77A      0.213636    78A      0.216568  
      79A      0.219321    80A      0.236391    81A      0.238101  
      82A      0.253489    83A      0.260277    84A      0.265475  
      85A      0.269197    86A      0.278476    87A      0.279994  
      88A      0.283841    89A      0.289393    90A      0.296595  
      91A      0.300758    92A      0.305181    93A      0.313305  
      94A      0.315037    95A      0.316596    96A      0.320046  
      97A      0.321645    98A      0.328101    99A      0.331785  
     100A      0.339739   101A      0.340124   102A      0.344993  
     103A      0.353967   104A      0.355741   105A      0.357741  
     106A      0.358560   107A      0.360512   108A      0.365157  
     109A      0.366023   110A      0.366482   111A      0.373159  
     112A      0.381127   113A      0.386142   114A      0.387638  
     115A      0.391616   116A      0.391738   117A      0.399931  
     118A      0.417152   119A      0.417583   120A      0.421997  
     121A      0.428763   122A      0.431048   123A      0.432443  
     124A      0.443326   125A      0.443782   126A      0.446197  
     127A      0.449755   128A      0.451478   129A      0.451870  
     130A      0.456398   131A      0.459954   132A      0.464696  
     133A      0.472608   134A      0.474763   135A      0.477596  
     136A      0.479587   137A      0.480621   138A      0.482073  
     139A      0.490420   140A      0.495474   141A      0.496084  
     142A      0.496599   143A      0.500530   144A      0.503352  
     145A      0.508073   146A      0.519643   147A      0.521361  
     148A      0.524695   149A      0.535240   150A      0.536970  
     151A      0.539014   152A      0.540940   153A      0.554640  
     154A      0.556923   155A      0.559430   156A      0.562881  
     157A      0.566578   158A      0.568184   159A      0.575380  
     160A      0.581393   161A      0.587399   162A      0.588327  
     163A      0.589950   164A      0.593120   165A      0.599265  
     166A      0.610000   167A      0.610016   168A      0.615398  
     169A      0.618281   170A      0.623776   171A      0.625624  
     172A      0.632105   173A      0.643519   174A      0.643809  
     175A      0.645625   176A      0.647202   177A      0.653630  
     178A      0.657486   179A      0.670910   180A      0.673726  
     181A      0.680214   182A      0.689483   183A      0.690117  
     184A      0.698453   185A      0.699087   186A      0.710313  
     187A      0.710584   188A      0.716678   189A      0.723025  
     190A      0.731334   191A      0.736771   192A      0.740198  
     193A      0.741612   194A      0.747396   195A      0.757959  
     196A      0.760989   197A      0.767854   198A      0.774394  
     199A      0.778537   200A      0.784410   201A      0.788949  
     202A      0.789266   203A      0.808676   204A      0.812939  
     205A      0.831232   206A      0.843172   207A      0.843584  
     208A      0.850795   209A      0.852353   210A      0.861595  
     211A      0.864938   212A      0.869973   213A      0.879858  
     214A      0.884036   215A      0.903666   216A      0.906137  
     217A      0.907626   218A      0.911840   219A      0.916712  
     220A      0.916822   221A      0.928921   222A      0.931753  
     223A      0.934017   224A      0.937863   225A      0.943620  
     226A      0.953321   227A      0.956949   228A      0.962123  
     229A      0.962890   230A      0.972431   231A      0.974345  
     232A      0.979987   233A      0.981851   234A      0.985956  
     235A      0.987664   236A      0.997992   237A      1.003820  
     238A      1.003964   239A      1.008210   240A      1.010478  
     241A      1.015604   242A      1.029921   243A      1.035927  
     244A      1.038998   245A      1.040852   246A      1.050550  
     247A      1.053709   248A      1.062430   249A      1.063664  
     250A      1.071225   251A      1.073392   252A      1.078983  
     253A      1.085702   254A      1.087846   255A      1.089831  
     256A      1.096556   257A      1.103203   258A      1.109753  
     259A      1.112826   260A      1.116118   261A      1.121443  
     262A      1.134986   263A      1.137820   264A      1.150390  
     265A      1.155240   266A      1.155527   267A      1.161197  
     268A      1.170503   269A      1.175692   270A      1.184539  
     271A      1.185556   272A      1.191164   273A      1.206554  
     274A      1.209626   275A      1.213206   276A      1.215685  
     277A      1.229122   278A      1.230387   279A      1.234141  
     280A      1.238806   281A      1.240008   282A      1.247765  
     283A      1.260065   284A      1.265604   285A      1.266561  
     286A      1.269065   287A      1.274206   288A      1.281796  
     289A      1.284278   290A      1.286916   291A      1.291766  
     292A      1.296455   293A      1.310639   294A      1.316481  
     295A      1.321020   296A      1.322360   297A      1.331749  
     298A      1.332058   299A      1.341001   300A      1.344710  
     301A      1.347353   302A      1.351992   303A      1.359957  
     304A      1.377455   305A      1.387941   306A      1.394598  
     307A      1.402905   308A      1.404978   309A      1.410476  
     310A      1.413207   311A      1.416488   312A      1.433827  
     313A      1.450170   314A      1.456014   315A      1.459885  
     316A      1.462998   317A      1.478832   318A      1.485583  
     319A      1.496335   320A      1.496693   321A      1.503901  
     322A      1.518683   323A      1.524569   324A      1.527197  
     325A      1.534458   326A      1.542505   327A      1.545941  
     328A      1.547942   329A      1.558467   330A      1.563090  
     331A      1.566667   332A      1.575976   333A      1.581948  
     334A      1.586652   335A      1.593103   336A      1.606052  
     337A      1.613924   338A      1.614467   339A      1.624953  
     340A      1.629677   341A      1.634754   342A      1.638822  
     343A      1.654141   344A      1.662050   345A      1.664389  
     346A      1.665454   347A      1.672347   348A      1.680117  
     349A      1.694680   350A      1.694756   351A      1.708206  
     352A      1.710645   353A      1.717268   354A      1.730154  
     355A      1.736280   356A      1.736287   357A      1.744133  
     358A      1.751262   359A      1.755570   360A      1.763780  
     361A      1.773586   362A      1.774623   363A      1.777251  
     364A      1.787772   365A      1.789850   366A      1.809176  
     367A      1.810320   368A      1.823358   369A      1.827188  
     370A      1.834201   371A      1.845636   372A      1.851963  
     373A      1.857372   374A      1.863575   375A      1.877232  
     376A      1.878340   377A      1.882737   378A      1.885300  
     379A      1.893279   380A      1.895317   381A      1.896315  
     382A      1.898769   383A      1.901484   384A      1.914208  
     385A      1.916172   386A      1.923029   387A      1.932463  
     388A      1.939082   389A      1.939354   390A      1.948625  
     391A      1.961690   392A      1.970982   393A      1.977384  
     394A      1.978183   395A      1.985785   396A      1.995066  
     397A      2.006910   398A      2.014872   399A      2.016098  
     400A      2.026074   401A      2.033050   402A      2.044496  
     403A      2.044904   404A      2.055398   405A      2.057688  
     406A      2.073206   407A      2.074900   408A      2.078040  
     409A      2.080458   410A      2.083588   411A      2.091737  
     412A      2.106266   413A      2.112470   414A      2.121514  
     415A      2.122121   416A      2.137974   417A      2.140798  
     418A      2.146470   419A      2.150279   420A      2.153077  
     421A      2.158480   422A      2.175870   423A      2.187965  
     424A      2.197203   425A      2.199222   426A      2.206804  
     427A      2.225476   428A      2.228995   429A      2.230624  
     430A      2.253170   431A      2.257608   432A      2.262533  
     433A      2.283791   434A      2.286122   435A      2.296315  
     436A      2.311300   437A      2.315085   438A      2.325371  
     439A      2.333286   440A      2.340533   441A      2.343813  
     442A      2.350339   443A      2.368963   444A      2.385316  
     445A      2.389818   446A      2.396968   447A      2.398557  
     448A      2.417068   449A      2.422705   450A      2.429663  
     451A      2.433066   452A      2.435940   453A      2.446776  
     454A      2.454480   455A      2.475567   456A      2.484907  
     457A      2.493256   458A      2.505542   459A      2.508284  
     460A      2.513596   461A      2.535916   462A      2.541018  
     463A      2.542238   464A      2.561871   465A      2.591873  
     466A      2.601053   467A      2.602100   468A      2.619356  
     469A      2.626912   470A      2.638381   471A      2.652340  
     472A      2.662437   473A      2.678113   474A      2.681738  
     475A      2.683939   476A      2.708098   477A      2.714853  
     478A      2.737779   479A      2.746388   480A      2.769162  
     481A      2.807684   482A      2.808571   483A      2.858671  
     484A      2.929751   485A      2.934899   486A      2.962684  
     487A      2.985679   488A      3.011076   489A      3.113658  
     490A      3.133632   491A      3.236801   492A      3.275856  
     493A      3.299358   494A      3.327098   495A      3.327264  
     496A      3.407930   497A      3.416187   498A      3.444396  
     499A      3.455282   500A      3.459796   501A      3.495503  
     502A      3.500295   503A      3.501873   504A      3.503424  
     505A      3.532914   506A      3.567508   507A      3.568328  
     508A      3.582158   509A      3.585360   510A      3.613009  
     511A      3.618136   512A      3.626666   513A      3.653919  
     514A      3.671052   515A      3.678651   516A      3.680271  
     517A      3.684316   518A      3.686377   519A      3.696857  
     520A      3.702804   521A      3.715309   522A      3.727926  
     523A      3.744881   524A      3.754204   525A      3.770601  
     526A      3.780932   527A      3.786562   528A      3.787658  
     529A      3.794340   530A      3.812200   531A      3.821409  
     532A      3.821579   533A      3.829694   534A      3.847122  
     535A      3.852292   536A      3.863616   537A      3.867446  
     538A      3.873372   539A      3.882498   540A      3.892700  
     541A      3.896539   542A      3.900099   543A      3.905640  
     544A      3.912595   545A      3.935657   546A      3.938697  
     547A      3.959142   548A      3.974041   549A      3.975505  
     550A      3.985361   551A      3.986521   552A      3.996219  
     553A      4.008850   554A      4.015268   555A      4.017573  
     556A      4.022704   557A      4.029854   558A      4.032662  
     559A      4.033445   560A      4.040814   561A      4.049096  
     562A      4.055417   563A      4.059308   564A      4.082208  
     565A      4.083361   566A      4.088403   567A      4.092699  
     568A      4.116151   569A      4.118076   570A      4.129113  
     571A      4.130824   572A      4.139014   573A      4.144164  
     574A      4.146354   575A      4.171003   576A      4.172261  
     577A      4.178069   578A      4.182692   579A      4.200285  
     580A      4.205801   581A      4.208763   582A      4.213756  
     583A      4.221478   584A      4.231590   585A      4.233046  
     586A      4.245827   587A      4.254367   588A      4.274962  
     589A      4.280380   590A      4.281427   591A      4.296719  
     592A      4.319821   593A      4.321345   594A      4.327774  
     595A      4.330568   596A      4.348019   597A      4.358941  
     598A      4.365741   599A      4.377117   600A      4.397434  
     601A      4.400797   602A      4.409797   603A      4.426667  
     604A      4.434400   605A      4.434606   606A      4.440936  
     607A      4.459333   608A      4.469558   609A      4.472218  
     610A      4.492790   611A      4.494512   612A      4.518738  
     613A      4.522192   614A      4.535902   615A      4.545151  
     616A      4.584124   617A      4.595096   618A      4.596102  
     619A      4.626983   620A      4.641144   621A      4.653861  
     622A      4.666588   623A      4.676860   624A      4.684163  
     625A      4.691919   626A      4.702984   627A      4.718428  
     628A      4.722624   629A      4.724437   630A      4.737231  
     631A      4.753043   632A      4.763239   633A      4.766170  
     634A      4.773769   635A      4.778504   636A      4.803967  
     637A      4.823380   638A      4.825841   639A      4.830874  
     640A      4.847545   641A      4.855717   642A      4.861677  
     643A      4.874404   644A      4.902598   645A      4.917938  
     646A      4.926191   647A      4.932633   648A      4.938463  
     649A      4.953635   650A      4.970977   651A      4.971585  
     652A      4.984589   653A      4.989494   654A      4.990289  
     655A      5.006973   656A      5.015459   657A      5.028326  
     658A      5.045499   659A      5.054355   660A      5.074619  
     661A      5.088744   662A      5.127820   663A      5.152873  
     664A      5.154559   665A      5.170660   666A      5.185961  
     667A      5.199193   668A      5.208233   669A      5.212355  
     670A      5.230324   671A      5.232408   672A      5.251302  
     673A      5.253001   674A      5.266305   675A      5.274369  
     676A      5.282413   677A      5.286137   678A      5.302739  
     679A      5.307751   680A      5.313292   681A      5.333899  
     682A      5.341073   683A      5.359474   684A      5.362096  
     685A      5.386165   686A      5.392352   687A      5.409335  
     688A      5.411223   689A      5.412827   690A      5.428811  
     691A      5.443812   692A      5.448192   693A      5.450945  
     694A      5.463916   695A      5.471921   696A      5.475130  
     697A      5.478971   698A      5.488229   699A      5.506706  
     700A      5.523493   701A      5.531243   702A      5.541194  
     703A      5.576937   704A      5.587824   705A      5.601350  
     706A      5.605839   707A      5.618688   708A      5.627453  
     709A      5.652369   710A      5.661727   711A      5.662962  
     712A      5.674438   713A      5.678509   714A      5.710225  
     715A      5.715858   716A      5.720975   717A      5.732121  
     718A      5.743528   719A      5.764450   720A      5.765502  
     721A      5.785195   722A      5.802406   723A      5.805450  
     724A      5.812330   725A      5.833324   726A      5.856532  
     727A      5.865794   728A      5.891608   729A      5.906595  
     730A      5.907897   731A      5.949195   732A      5.971508  
     733A      5.986851   734A      6.015237   735A      6.018406  
     736A      6.024581   737A      6.040484   738A      6.074651  
     739A      6.078671   740A      6.130917   741A      6.137484  
     742A      6.145136   743A      6.165466   744A      6.188003  
     745A      6.213600   746A      6.223310   747A      6.281642  
     748A      6.287521   749A      6.295616   750A      6.301354  
     751A      6.327044   752A      6.328727   753A      6.356333  
     754A      6.360085   755A      6.397789   756A      6.417141  
     757A      6.418529   758A      6.426560   759A      6.568712  
     760A      6.642819   761A      6.653042   762A      6.674733  
     763A      6.784032   764A      6.828080   765A      6.845504  
     766A      6.890237   767A      6.913491   768A      6.927598  
     769A      7.024868   770A      7.082217   771A      7.084816  
     772A      7.116314   773A      7.214382   774A      7.215400  
     775A     18.106192   776A     18.170386   777A     18.400679  
     778A     18.420489   779A     18.517326   780A     19.025295  
     781A     19.545269   782A     19.900486  

    Final Occupation by Irrep:
              A 
    DOCC [    33 ]

  Energy converged.

  @DF-RHF Final Energy:  -313.53769092020167

   => Energetics <=

    Nuclear Repulsion Energy =            406.9894952564414439
    One-Electron Energy =               -1229.1135621346147673
    Two-Electron Energy =                 508.5863759579719954
    DFT Exchange-Correlation Energy =       0.0000000000000000
    Empirical Dispersion Energy =           0.0000000000000000
    PCM Polarization Energy =               0.0000000000000000
    EFP Energy =                            0.0000000000000000
    Total Energy =                       -313.5376909202013849


  Saving occupied orbitals to File 180.

*** tstop() called on wr25 at Tue Sep 20 22:41:30 2016
Module time:
	user time   =     937.86 seconds =      15.63 minutes
	system time =      10.79 seconds =       0.18 minutes
	total time  =         87 seconds =       1.45 minutes
Total time:
	user time   =     937.86 seconds =      15.63 minutes
	system time =      10.79 seconds =       0.18 minutes
	total time  =         87 seconds =       1.45 minutes


Properties will be evaluated at   0.000000,   0.000000,   0.000000 Bohr

Properties computed using the SCF density matrix

  Nuclear Dipole Moment: (a.u.)
     X:    -0.0000      Y:     0.0000      Z:    -0.6986

  Electronic Dipole Moment: (a.u.)
     X:     0.0000      Y:    -0.0000      Z:     0.7322

  Dipole Moment: (a.u.)
     X:     0.0000      Y:    -0.0000      Z:     0.0336     Total:     0.0336

  Dipole Moment: (Debye)
     X:     0.0000      Y:    -0.0000      Z:     0.0855     Total:     0.0855


  //>>>>>>>>>>>>>>>>>>>>>>>>>>>>>>>>>>>//
  //               DFMP2               //
  //<<<<<<<<<<<<<<<<<<<<<<<<<<<<<<<<<<<//


*** tstart() called on wr25
*** at Tue Sep 20 22:41:30 2016


*** tstop() called on wr25 at Tue Sep 20 22:41:30 2016
Module time:
	user time   =       3.65 seconds =       0.06 minutes
	system time =       0.12 seconds =       0.00 minutes
	total time  =          0 seconds =       0.00 minutes
Total time:
	user time   =     941.61 seconds =      15.69 minutes
	system time =      10.91 seconds =       0.18 minutes
	total time  =         87 seconds =       1.45 minutes
	 --------------------------------------------------------
	                          DF-MP2                         
	      2nd-Order Density-Fitted Moller-Plesset Theory     
	              RMP2 Wavefunction,  12 Threads             
	                                                         
	        Rob Parrish, Justin Turney, Andy Simmonett,      
	           Ed Hohenstein, and C. David Sherrill          
	 --------------------------------------------------------

   => Auxiliary Basis Set <=

  Basis Set: 
    Number of shells: 476
    Number of basis function: 1676
    Number of Cartesian functions: 2078
    Spherical Harmonics?: true
    Max angular momentum: 4

	 --------------------------------------------------------
	                 NBF =   782, NAUX =  1676
	 --------------------------------------------------------
	   CLASS    FOCC     OCC    AOCC    AVIR     VIR    FVIR
	   PAIRS       8      33      25     749     749       0
	 --------------------------------------------------------

DGAS Warning! /src/lib/libfock/apps.cc:80 is not currently checking restricted

         ------------------------------------------------------------
                                     CPHF                           
                                  Rob Parrish                       
         ------------------------------------------------------------

  ==> Geometry <==

    Molecular point group: c1
    Full point group: C1

    Geometry (in Angstrom), charge = 0, multiplicity = 1:

       Center              X                  Y                   Z               Mass       
    ------------   -----------------  -----------------  -----------------  -----------------
           C         -3.252415997790    -0.312540819089    -0.445131554024    12.000000000000
           H         -3.719723443618     0.641868973995    -0.694000593818     1.007825032070
           H         -4.045109748453    -1.022540093191    -0.210433475660     1.007825032070
           H         -2.739561054996    -0.673445009718    -1.336473552630     1.007825032070
           C          3.252407171878     0.312563540653    -0.445161849933    12.000000000000
           H          4.045102570618     1.022556183463    -0.210448425305     1.007825032070
           H          2.739537825378     0.673500410011    -1.336482707344     1.007825032070
           H          3.719713560469    -0.641835784804    -0.694074048277     1.007825032070
           C         -2.290926034137    -0.152533397558     0.727334110961    12.000000000000
           H         -1.809457613894    -1.110258860388     0.938782281286     1.007825032070
           H         -2.856241133724     0.108409222838     1.624801046002     1.007825032070
           C          2.290935270916     0.152509590222     0.727312252362    12.000000000000
           H          2.856265106590    -0.108464391820     1.624760837981     1.007825032070
           H          1.809466524260     1.110225645927     0.938803738377     1.007825032070
           C         -1.229066821663     0.920537400618     0.490092915788    12.000000000000
           H         -0.596216327354     0.999731577090     1.377741886143     1.007825032070
           H         -1.725965532257     1.889129508489     0.381060020079     1.007825032070
           C         -0.354878122350     0.676883299082    -0.740943533715    12.000000000000
           H          0.385475126816     1.478225239475    -0.809988757162     1.007825032070
           H         -0.964860128448     0.756186744507    -1.643908323999     1.007825032070
           C          0.354868720821    -0.676864487371    -0.740968525865    12.000000000000
           H         -0.385484943005    -1.478204652496    -0.810029710913     1.007825032070
           H          0.964840180624    -0.756139175915    -1.643943405360     1.007825032070
           C          1.229076140311    -0.920556687084     0.490048243479    12.000000000000
           H          0.596237870770    -0.999783568643     1.377703330996     1.007825032070
           H          1.725977254957    -1.889143387886     0.380976003789     1.007825032070

  Nuclear repulsion =  406.989495256441444
  Reference energy  = -313.537690920201669

  ==> Basis Set <==

  Basis Set: AUG-CC-PVTZ
    Number of shells: 274
    Number of basis function: 782
    Number of Cartesian functions: 890
    Spherical Harmonics?: true
    Max angular momentum: 3

  ==> CGRSolver (by Rob Parrish) <==

   Number of roots    =         1
   Preconditioning    =    JACOBI
   Convergence cutoff =     1E-06
   Maximum iterations =       100

  ==> CPHFRHamiltonian (by Rob Parrish) <== 

  ==> DFJK: Density-Fitted J/K Matrices <==

    J tasked:                  Yes
    K tasked:                  Yes
    wK tasked:                  No
    OpenMP threads:             12
    Integrals threads:          12
    Memory (MB):             42915
    Algorithm:                Core
    Integral Cache:           NONE
    Schwarz Cutoff:          1E-12
    Fitting Condition:       1E-12

   => Auxiliary Basis Set <=

  Basis Set: 
    Number of shells: 492
    Number of basis function: 1660
    Number of Cartesian functions: 2038
    Spherical Harmonics?: true
    Max angular momentum: 4

  ==> CPHF Iterations <==

  => Iterations <=

             Iter  Converged  Remaining    Residual
  CGR           1          0          1   9.533E-02
  CGR           2          0          1   1.358E-02
  CGR           3          0          1   4.033E-03
  CGR           4          0          1   9.307E-04
  CGR           5          0          1   2.110E-04
  CGR           6          0          1   4.206E-05
  CGR           7          0          1   1.231E-05
  CGR           8          0          1   2.574E-06
  CGR           9          1          0   5.727E-07

    CGRSolver converged.

  ==> DFCorrGrad: Density-Fitted Correlated Gradients <==

    OpenMP threads:             12
    Integrals threads:          12
    Memory (MB):             42915
    Schwarz Cutoff:          0E+00
    Fitting Condition:       1E-12

   => Auxiliary Basis Set <=

  Basis Set: 
    Number of shells: 492
    Number of basis function: 1660
    Number of Cartesian functions: 2038
    Spherical Harmonics?: true
    Max angular momentum: 4

	-----------------------------------------------------------
	 ==================> DF-MP2 Energies <==================== 
	-----------------------------------------------------------
	 Reference Energy          =    -313.5376909202016691 [Eh]
	 Singles Energy            =      -0.0000000000000000 [Eh]
	 Same-Spin Energy          =      -0.3183404258712921 [Eh]
	 Opposite-Spin Energy      =      -1.1278224682639080 [Eh]
	 Correlation Energy        =      -1.4461628941352000 [Eh]
	 Total Energy              =    -314.9838538143368964 [Eh]
	-----------------------------------------------------------
	 ================> DF-SCS-MP2 Energies <================== 
	-----------------------------------------------------------
	 SCS Same-Spin Scale       =       0.3333333333333333 [-]
	 SCS Opposite-Spin Scale   =       1.2000000000000000 [-]
	 SCS Same-Spin Energy      =      -0.1061134752904307 [Eh]
	 SCS Opposite-Spin Energy  =      -1.3533869619166896 [Eh]
	 SCS Correlation Energy    =      -1.4595004372071203 [Eh]
	 SCS Total Energy          =    -314.9971913574087807 [Eh]
	-----------------------------------------------------------


  -Total Gradient:
     Atom            X                  Y                   Z
    ------   -----------------  -----------------  -----------------
       1       -0.000000082487     0.000000023619     0.000000165985
       2       -0.000000144811     0.000000210269    -0.000000101456
       3       -0.000000193345    -0.000000177988     0.000000055659
       4        0.000000156516    -0.000000048757    -0.000000167979
       5        0.000000143636    -0.000000086142    -0.000000058792
       6        0.000000001087    -0.000000001856    -0.000000018712
       7       -0.000000027999     0.000000009817     0.000000126499
       8       -0.000000017277     0.000000058972     0.000000019333
       9       -0.000000092376     0.000000064778    -0.000000411969
      10        0.000000254837    -0.000000211842     0.000000064214
      11       -0.000000181352     0.000000095336     0.000000115992
      12       -0.000000162554     0.000000254917     0.000000217235
      13       -0.000000081198     0.000000056255    -0.000000162017
      14        0.000000061344    -0.000000266759    -0.000000024768
      15        0.000000011145    -0.000000108381     0.000000061015
      16        0.000000085331     0.000000014651     0.000000026490
      17       -0.000000056283     0.000000057513    -0.000000055078
      18        0.000000675352     0.000000056086    -0.000000055845
      19       -0.000000194473    -0.000000069687     0.000000050040
      20       -0.000000062212    -0.000000021352    -0.000000024714
      21        0.000000305531     0.000000389116     0.000000519425
      22       -0.000000056542    -0.000000012047    -0.000000041267
      23       -0.000000055743    -0.000000046485    -0.000000054551
      24       -0.000000351271    -0.000000434929    -0.000000056893
      25        0.000000183455     0.000000045227    -0.000000192580
      26       -0.000000118310     0.000000149668     0.000000004732


			-----------------------------------------
			 OPTKING 2.0: for geometry optimizations 
			  - R.A. King,  Bethel University        
			-----------------------------------------

	Internal coordinates to be generated automatically.
	Detected frag 1 with atoms:  1 2 3 4 5 6 7 8 9 10 11 12 13 14 15 16 17 18 19 20
	 21 22 23 24 25 26
	---Fragment 1 Bond Connectivity---
	 1 : 2 3 4 9
	 2 : 1
	 3 : 1
	 4 : 1
	 5 : 6 7 8 12
	 6 : 5
	 7 : 5
	 8 : 5
	 9 : 1 10 11 15
	 10 : 9
	 11 : 9
	 12 : 5 13 14 24
	 13 : 12
	 14 : 12
	 15 : 9 16 17 18
	 16 : 15
	 17 : 15
	 18 : 15 19 20 21
	 19 : 18
	 20 : 18
	 21 : 18 22 23 24
	 22 : 21
	 23 : 21
	 24 : 12 21 25 26
	 25 : 24
	 26 : 24

	---Fragment 1 Geometry and Gradient---
	 C          -6.1461755060       -0.5906165534       -0.8411767302
	 H          -7.0292585985        1.2129565740       -1.3114710584
	 H          -7.6441496020       -1.9323207360       -0.3976616382
	 H          -5.1770201183       -1.2726266339       -2.5255689983
	 C           6.1461588275        0.5906594910       -0.8412339812
	 H           7.6441360379        1.9323511422       -0.3976898889
	 H           5.1769762206        1.2727313253       -2.5255862982
	 H           7.0292399221       -1.2128938556       -1.3116098672
	 C          -4.3292227952       -0.2882463475        1.3744622768
	 H          -3.4193793393       -2.0980851827        1.7740414100
	 H          -5.3975135122        0.2048637414        3.0704289974
	 C           4.3292402502        0.2882013582        1.3744209701
	 H           5.3975588144       -0.2049679957        3.0703530152
	 H           3.4193961775        2.0980224165        1.7740819581
	 C          -2.3225996920        1.7395635822        0.9261413905
	 H          -1.1266855747        1.8892188871        2.6035548466
	 H          -3.2616021708        3.5699374006        0.7200990781
	 C          -0.6706224618        1.2791240592       -1.4001803587
	 H           0.7284424207        2.7934408653       -1.5306569218
	 H          -1.8233213993        1.4289858524       -3.1065365199
	 C           0.6706046955       -1.2790885102       -1.4002275870
	 H          -0.7284609706       -2.7934019616       -1.5307343131
	 H           1.8232837034       -1.4288959608       -3.1066028141
	 C           2.3226173017       -1.7396000284        0.9260569721
	 H           1.1267262858       -1.8893171369        2.6034819879
	 H           3.2616243235       -3.5699636289        0.7199403104
	            -0.0000000825        0.0000000236        0.0000001660
	            -0.0000001448        0.0000002103       -0.0000001015
	            -0.0000001933       -0.0000001780        0.0000000557
	             0.0000001565       -0.0000000488       -0.0000001680
	             0.0000001436       -0.0000000861       -0.0000000588
	             0.0000000011       -0.0000000019       -0.0000000187
	            -0.0000000280        0.0000000098        0.0000001265
	            -0.0000000173        0.0000000590        0.0000000193
	            -0.0000000924        0.0000000648       -0.0000004120
	             0.0000002548       -0.0000002118        0.0000000642
	            -0.0000001814        0.0000000953        0.0000001160
	            -0.0000001626        0.0000002549        0.0000002172
	            -0.0000000812        0.0000000563       -0.0000001620
	             0.0000000613       -0.0000002668       -0.0000000248
	             0.0000000111       -0.0000001084        0.0000000610
	             0.0000000853        0.0000000147        0.0000000265
	            -0.0000000563        0.0000000575       -0.0000000551
	             0.0000006754        0.0000000561       -0.0000000558
	            -0.0000001945       -0.0000000697        0.0000000500
	            -0.0000000622       -0.0000000214       -0.0000000247
	             0.0000003055        0.0000003891        0.0000005194
	            -0.0000000565       -0.0000000120       -0.0000000413
	            -0.0000000557       -0.0000000465       -0.0000000546
	            -0.0000003513       -0.0000004349       -0.0000000569
	             0.0000001835        0.0000000452       -0.0000001926
	            -0.0000001183        0.0000001497        0.0000000047

	Previous optimization step data not found.  Starting new optimization.

	---Fragment 1 Intrafragment Coordinates---
	 - Coordinate -           - BOHR/RAD -       - ANG/DEG -
	 R(1,2)           =         2.062496	       1.091426
	 R(1,3)           =         2.059321	       1.089746
	 R(1,4)           =         2.059509	       1.089845
	 R(1,9)           =         2.881285	       1.524710
	 R(5,6)           =         2.059321	       1.089746
	 R(5,7)           =         2.059510	       1.089846
	 R(5,8)           =         2.062496	       1.091426
	 R(5,12)          =         2.881285	       1.524710
	 R(9,10)          =         2.064702	       1.092593
	 R(9,11)          =         2.064148	       1.092300
	 R(9,15)          =         2.887826	       1.528172
	 R(12,13)         =         2.064148	       1.092300
	 R(12,14)         =         2.064703	       1.092594
	 R(12,24)         =         2.887827	       1.528172
	 R(15,16)         =         2.065508	       1.093020
	 R(15,17)         =         2.067474	       1.094060
	 R(15,18)         =         2.890122	       1.529387
	 R(18,19)         =         2.065808	       1.093178
	 R(18,20)         =         2.064661	       1.092572
	 R(18,21)         =         2.888484	       1.528520
	 R(21,22)         =         2.065808	       1.093178
	 R(21,23)         =         2.064662	       1.092572
	 R(21,24)         =         2.890124	       1.529388
	 R(24,25)         =         2.065508	       1.093020
	 R(24,26)         =         2.067474	       1.094060
	 B(1,9,10)        =         1.912100	     109.555275
	 B(1,9,11)        =         1.907648	     109.300182
	 B(1,9,15)        =         1.974134	     113.109520
	 B(2,1,3)         =         1.883250	     107.902275
	 B(2,1,4)         =         1.880286	     107.732424
	 B(2,1,9)         =         1.932188	     110.706217
	 B(3,1,4)         =         1.878311	     107.619265
	 B(3,1,9)         =         1.940639	     111.190416
	 B(4,1,9)         =         1.946492	     111.525795
	 B(5,12,13)       =         1.907648	     109.300154
	 B(5,12,14)       =         1.912101	     109.555311
	 B(5,12,24)       =         1.974134	     113.109548
	 B(6,5,7)         =         1.878311	     107.619265
	 B(6,5,8)         =         1.883250	     107.902281
	 B(6,5,12)        =         1.940638	     111.190385
	 B(7,5,8)         =         1.880286	     107.732434
	 B(7,5,12)        =         1.946492	     111.525795
	 B(8,5,12)        =         1.932188	     110.706231
	 B(9,15,16)       =         1.904048	     109.093935
	 B(9,15,17)       =         1.898159	     108.756519
	 B(9,15,18)       =         1.993542	     114.221548
	 B(10,9,11)       =         1.852986	     106.168305
	 B(10,9,15)       =         1.917033	     109.837901
	 B(11,9,15)       =         1.895919	     108.628156
	 B(12,24,21)      =         1.993543	     114.221619
	 B(12,24,25)      =         1.904048	     109.093926
	 B(12,24,26)      =         1.898159	     108.756480
	 B(13,12,14)      =         1.852986	     106.168294
	 B(13,12,24)      =         1.895918	     108.628124
	 B(14,12,24)      =         1.917033	     109.837905
	 B(15,18,19)      =         1.897757	     108.733465
	 B(15,18,20)      =         1.911924	     109.545155
	 B(15,18,21)      =         1.989442	     113.986641
	 B(16,15,17)      =         1.854335	     106.245558
	 B(16,15,18)      =         1.911634	     109.528555
	 B(17,15,18)      =         1.896983	     108.689100
	 B(18,21,22)      =         1.912137	     109.557396
	 B(18,21,23)      =         1.900232	     108.875266
	 B(18,21,24)      =         1.989443	     113.986714
	 B(19,18,20)      =         1.846996	     105.825063
	 B(19,18,21)      =         1.912137	     109.557368
	 B(20,18,21)      =         1.900233	     108.875319
	 B(21,24,25)      =         1.911634	     109.528533
	 B(21,24,26)      =         1.896983	     108.689109
	 B(22,21,23)      =         1.846996	     105.825084
	 B(22,21,24)      =         1.897758	     108.733541
	 B(23,21,24)      =         1.911921	     109.545007
	 B(25,24,26)      =         1.854334	     106.245540
	 D(1,9,15,16)     =         3.113834	     178.409546
	 D(1,9,15,17)     =         1.098328	      62.929579
	 D(1,9,15,18)     =        -1.023819	     -58.660505
	 D(2,1,9,10)      =        -3.108813	    -178.121877
	 D(2,1,9,11)      =         1.150767	      65.934068
	 D(2,1,9,15)      =        -0.963856	     -55.224903
	 D(3,1,9,10)      =         1.081139	      61.944675
	 D(3,1,9,11)      =        -0.942467	     -53.999381
	 D(3,1,9,15)      =        -3.057090	    -175.158352
	 D(4,1,9,10)      =        -1.015447	     -58.180810
	 D(4,1,9,11)      =        -3.039052	    -174.124865
	 D(4,1,9,15)      =         1.129510	      64.716164
	 D(5,12,24,21)    =        -1.023816	     -58.660354
	 D(5,12,24,25)    =         3.113836	     178.409681
	 D(5,12,24,26)    =         1.098332	      62.929762
	 D(6,5,12,13)     =        -0.942466	     -53.999325
	 D(6,5,12,14)     =         1.081139	      61.944721
	 D(6,5,12,24)     =        -3.057088	    -175.158254
	 D(7,5,12,13)     =        -3.039051	    -174.124789
	 D(7,5,12,14)     =        -1.015446	     -58.180743
	 D(7,5,12,24)     =         1.129512	      64.716281
	 D(8,5,12,13)     =         1.150767	      65.934120
	 D(8,5,12,14)     =        -3.108812	    -178.121833
	 D(8,5,12,24)     =        -0.963855	     -55.224809
	 D(9,15,18,19)    =        -3.115826	    -178.523653
	 D(9,15,18,20)    =         1.156544	      66.265072
	 D(9,15,18,21)    =        -0.977222	     -55.990669
	 D(10,9,15,16)    =        -1.027133	     -58.850363
	 D(10,9,15,17)    =        -3.042638	    -174.330330
	 D(10,9,15,18)    =         1.118400	      64.079585
	 D(11,9,15,16)    =         0.992595	      56.871487
	 D(11,9,15,17)    =        -1.022911	     -58.608480
	 D(11,9,15,18)    =         3.138127	     179.801436
	 D(12,24,21,18)   =        -0.977216	     -55.990346
	 D(12,24,21,22)   =        -3.115822	    -178.523472
	 D(12,24,21,23)   =         1.156547	      66.265267
	 D(13,12,24,21)   =         3.138130	     179.801626
	 D(13,12,24,25)   =         0.992598	      56.871662
	 D(13,12,24,26)   =        -1.022907	     -58.608258
	 D(14,12,24,21)   =         1.118404	      64.079805
	 D(14,12,24,25)   =        -1.027129	     -58.850159
	 D(14,12,24,26)   =        -3.042634	    -174.330079
	 D(15,18,21,22)   =         1.145054	      65.606753
	 D(15,18,21,23)   =        -3.125829	    -179.096833
	 D(15,18,21,24)   =        -0.985658	     -56.474054
	 D(16,15,18,19)   =        -0.974416	     -55.829917
	 D(16,15,18,20)   =        -2.985232	    -171.041192
	 D(16,15,18,21)   =         1.164188	      66.703066
	 D(17,15,18,19)   =         1.044564	      59.849133
	 D(17,15,18,20)   =        -0.966252	     -55.362142
	 D(17,15,18,21)   =        -3.100017	    -177.617884
	 D(18,21,24,25)   =         1.164194	      66.703413
	 D(18,21,24,26)   =        -3.100011	    -177.617565
	 D(19,18,21,22)   =        -3.007422	    -172.312610
	 D(19,18,21,23)   =        -0.995120	     -57.016196
	 D(19,18,21,24)   =         1.145051	      65.606583
	 D(20,18,21,22)   =        -0.995121	     -57.016207
	 D(20,18,21,23)   =         1.017181	      58.280207
	 D(20,18,21,24)   =        -3.125833	    -179.097014
	 D(22,21,24,25)   =        -0.974412	     -55.829714
	 D(22,21,24,26)   =         1.044567	      59.849309
	 D(23,21,24,25)   =        -2.985228	    -171.040974
	 D(23,21,24,26)   =        -0.966248	     -55.361952
	 R(1,21)          =         6.874229	       3.637685
	 R(5,18)          =         6.874221	       3.637681
	 R(9,24)          =         6.823084	       3.610620
	 R(12,15)         =         6.823077	       3.610617

	Current energy   :      -314.9838538143

	Generating empirical Hessian (Schlegel '84) for each fragment.
	Taking RFO optimization step.
	Going to follow RFO solution 1.
	Using RFO vector 1.
	Norm of target step-size    0.00006
	Projected energy change by RFO approximation:         0.0000000000

	Back-transformation to cartesian coordinates...
	Successfully converged to displaced geometry.

	--- Internal Coordinate Step in ANG or DEG, aJ/ANG or AJ/DEG ---
	 ---------------------------------------------------------------------------
	   Coordinate                Previous        Force       Change         New 
	   ----------                --------       ------       ------       ------
	    1 R(1,2)          =      1.091426    -0.000002    -0.000000     1.091425
	    2 R(1,3)          =      1.089746    -0.000002    -0.000000     1.089745
	    3 R(1,4)          =      1.089845    -0.000002    -0.000000     1.089845
	    4 R(1,9)          =      1.524710    -0.000000    -0.000000     1.524710
	    5 R(5,6)          =      1.089746     0.000000     0.000000     1.089746
	    6 R(5,7)          =      1.089846     0.000001     0.000000     1.089846
	    7 R(5,8)          =      1.091426     0.000000     0.000000     1.091426
	    8 R(5,12)         =      1.524710    -0.000001    -0.000000     1.524710
	    9 R(9,10)         =      1.092593    -0.000003    -0.000000     1.092593
	   10 R(9,11)         =      1.092300    -0.000002    -0.000000     1.092300
	   11 R(9,15)         =      1.528172    -0.000002    -0.000000     1.528171
	   12 R(12,13)        =      1.092300     0.000002     0.000000     1.092300
	   13 R(12,14)        =      1.092594     0.000002     0.000000     1.092594
	   14 R(12,24)        =      1.528172    -0.000000     0.000000     1.528172
	   15 R(15,16)        =      1.093020    -0.000001    -0.000000     1.093020
	   16 R(15,17)        =      1.094060    -0.000001    -0.000000     1.094060
	   17 R(15,18)        =      1.529387     0.000000    -0.000000     1.529387
	   18 R(18,19)        =      1.093178     0.000002     0.000000     1.093179
	   19 R(18,20)        =      1.092572    -0.000000    -0.000000     1.092571
	   20 R(18,21)        =      1.528520     0.000002     0.000000     1.528520
	   21 R(21,22)        =      1.093178    -0.000000    -0.000000     1.093178
	   22 R(21,23)        =      1.092572    -0.000000    -0.000000     1.092572
	   23 R(21,24)        =      1.529388     0.000003     0.000001     1.529388
	   24 R(24,25)        =      1.093020     0.000002     0.000000     1.093020
	   25 R(24,26)        =      1.094060     0.000002     0.000000     1.094060
	   26 B(1,9,10)       =    109.555275     0.000000    -0.000050   109.555225
	   27 B(1,9,11)       =    109.300182     0.000000     0.000079   109.300261
	   28 B(1,9,15)       =    113.109520    -0.000000    -0.000129   113.109392
	   29 B(2,1,3)        =    107.902275     0.000000     0.000003   107.902278
	   30 B(2,1,4)        =    107.732424    -0.000000    -0.000009   107.732415
	   31 B(2,1,9)        =    110.706217    -0.000000    -0.000036   110.706181
	   32 B(3,1,4)        =    107.619265    -0.000000    -0.000010   107.619255
	   33 B(3,1,9)        =    111.190416     0.000000     0.000020   111.190436
	   34 B(4,1,9)        =    111.525795     0.000000     0.000031   111.525825
	   35 B(5,12,13)      =    109.300154     0.000000     0.000017   109.300171
	   36 B(5,12,14)      =    109.555311    -0.000000    -0.000018   109.555293
	   37 B(5,12,24)      =    113.109548    -0.000000    -0.000000   113.109547
	   38 B(6,5,7)        =    107.619265    -0.000000     0.000012   107.619277
	   39 B(6,5,8)        =    107.902281     0.000000    -0.000010   107.902271
	   40 B(6,5,12)       =    111.190385    -0.000000    -0.000035   111.190350
	   41 B(7,5,8)        =    107.732434    -0.000000    -0.000008   107.732427
	   42 B(7,5,12)       =    111.525795     0.000000     0.000065   111.525860
	   43 B(8,5,12)       =    110.706231    -0.000000    -0.000024   110.706207
	   44 B(9,15,16)      =    109.093935    -0.000000    -0.000002   109.093932
	   45 B(9,15,17)      =    108.756519    -0.000000     0.000005   108.756524
	   46 B(9,15,18)      =    114.221548    -0.000000    -0.000054   114.221493
	   47 B(10,9,11)      =    106.168305    -0.000000    -0.000007   106.168298
	   48 B(10,9,15)      =    109.837901     0.000000     0.000077   109.837979
	   49 B(11,9,15)      =    108.628156     0.000000     0.000038   108.628193
	   50 B(12,24,21)     =    114.221619     0.000000     0.000083   114.221702
	   51 B(12,24,25)     =    109.093926    -0.000000     0.000020   109.093946
	   52 B(12,24,26)     =    108.756480    -0.000000    -0.000046   108.756434
	   53 B(13,12,14)     =    106.168294    -0.000000    -0.000005   106.168289
	   54 B(13,12,24)     =    108.628124    -0.000000    -0.000019   108.628105
	   55 B(14,12,24)     =    109.837905     0.000000     0.000025   109.837931
	   56 B(15,18,19)     =    108.733465     0.000000    -0.000016   108.733449
	   57 B(15,18,20)     =    109.545155     0.000000     0.000061   109.545216
	   58 B(15,18,21)     =    113.986641     0.000000     0.000019   113.986660
	   59 B(16,15,17)     =    106.245558    -0.000000    -0.000006   106.245552
	   60 B(16,15,18)     =    109.528555     0.000000     0.000050   109.528605
	   61 B(17,15,18)     =    108.689100     0.000000     0.000010   108.689110
	   62 B(18,21,22)     =    109.557396     0.000000     0.000049   109.557445
	   63 B(18,21,23)     =    108.875266     0.000000     0.000006   108.875272
	   64 B(18,21,24)     =    113.986714    -0.000000    -0.000084   113.986631
	   65 B(19,18,20)     =    105.825063     0.000000    -0.000014   105.825049
	   66 B(19,18,21)     =    109.557368    -0.000000    -0.000100   109.557268
	   67 B(20,18,21)     =    108.875319     0.000000     0.000048   108.875367
	   68 B(21,24,25)     =    109.528533    -0.000000    -0.000030   109.528504
	   69 B(21,24,26)     =    108.689109    -0.000000    -0.000014   108.689095
	   70 B(22,21,23)     =    105.825084    -0.000000     0.000048   105.825132
	   71 B(22,21,24)     =    108.733541     0.000000     0.000011   108.733552
	   72 B(23,21,24)     =    109.545007     0.000000    -0.000021   109.544986
	   73 B(25,24,26)     =    106.245540     0.000000    -0.000020   106.245520
	   74 D(1,9,15,16)    =    178.409546    -0.000000     0.000578   178.410124
	   75 D(1,9,15,17)    =     62.929579     0.000000     0.000583    62.930163
	   76 D(1,9,15,18)    =    -58.660505    -0.000000     0.000603   -58.659902
	   77 D(2,1,9,10)     =   -178.121877    -0.000000     0.000231  -178.121646
	   78 D(2,1,9,11)     =     65.934068    -0.000000     0.000222    65.934290
	   79 D(2,1,9,15)     =    -55.224903     0.000000     0.000204   -55.224700
	   80 D(3,1,9,10)     =     61.944675    -0.000000     0.000238    61.944912
	   81 D(3,1,9,11)     =    -53.999381     0.000000     0.000229   -53.999152
	   82 D(3,1,9,15)     =   -175.158352     0.000000     0.000211  -175.158141
	   83 D(4,1,9,10)     =    -58.180810    -0.000000     0.000216   -58.180594
	   84 D(4,1,9,11)     =   -174.124865    -0.000000     0.000207  -174.124658
	   85 D(4,1,9,15)     =     64.716164     0.000000     0.000189    64.716353
	   86 D(5,12,24,21)   =    -58.660354     0.000000     0.000004   -58.660350
	   87 D(5,12,24,25)   =    178.409681     0.000000    -0.000030   178.409651
	   88 D(5,12,24,26)   =     62.929762     0.000000     0.000008    62.929770
	   89 D(6,5,12,13)    =    -53.999325     0.000000    -0.000067   -53.999391
	   90 D(6,5,12,14)    =     61.944721     0.000000    -0.000073    61.944648
	   91 D(6,5,12,24)    =   -175.158254     0.000000    -0.000054  -175.158308
	   92 D(7,5,12,13)    =   -174.124789    -0.000000    -0.000101  -174.124891
	   93 D(7,5,12,14)    =    -58.180743    -0.000000    -0.000108   -58.180851
	   94 D(7,5,12,24)    =     64.716281     0.000000    -0.000089    64.716192
	   95 D(8,5,12,13)    =     65.934120    -0.000000    -0.000118    65.934002
	   96 D(8,5,12,14)    =   -178.121833    -0.000000    -0.000125  -178.121959
	   97 D(8,5,12,24)    =    -55.224809    -0.000000    -0.000106   -55.224915
	   98 D(9,15,18,19)   =   -178.523653     0.000000    -0.000617  -178.524269
	   99 D(9,15,18,20)   =     66.265072     0.000000    -0.000624    66.264449
	  100 D(9,15,18,21)   =    -55.990669    -0.000000    -0.000745   -55.991414
	  101 D(10,9,15,16)   =    -58.850363    -0.000000     0.000480   -58.849883
	  102 D(10,9,15,17)   =   -174.330330    -0.000000     0.000485  -174.329845
	  103 D(10,9,15,18)   =     64.079585    -0.000000     0.000505    64.080090
	  104 D(11,9,15,16)   =     56.871487    -0.000000     0.000535    56.872023
	  105 D(11,9,15,17)   =    -58.608480     0.000000     0.000541   -58.607939
	  106 D(11,9,15,18)   =    179.801436    -0.000000     0.000560   179.801996
	  107 D(12,24,21,18)  =    -55.990346    -0.000000    -0.000254   -55.990600
	  108 D(12,24,21,22)  =   -178.523472    -0.000000    -0.000268  -178.523741
	  109 D(12,24,21,23)  =     66.265267    -0.000000    -0.000320    66.264947
	  110 D(13,12,24,21)  =    179.801626     0.000000    -0.000004   179.801622
	  111 D(13,12,24,25)  =     56.871662    -0.000000    -0.000038    56.871624
	  112 D(13,12,24,26)  =    -58.608258     0.000000     0.000000   -58.608257
	  113 D(14,12,24,21)  =     64.079805     0.000000    -0.000001    64.079804
	  114 D(14,12,24,25)  =    -58.850159    -0.000000    -0.000036   -58.850195
	  115 D(14,12,24,26)  =   -174.330079     0.000000     0.000003  -174.330076
	  116 D(15,18,21,22)  =     65.606753     0.000000     0.000540    65.607294
	  117 D(15,18,21,23)  =   -179.096833     0.000000     0.000627  -179.096206
	  118 D(15,18,21,24)  =    -56.474054     0.000000     0.000547   -56.473506
	  119 D(16,15,18,19)  =    -55.829917     0.000000    -0.000620   -55.830538
	  120 D(16,15,18,20)  =   -171.041192    -0.000000    -0.000627  -171.041819
	  121 D(16,15,18,21)  =     66.703066    -0.000000    -0.000748    66.702318
	  122 D(17,15,18,19)  =     59.849133     0.000000    -0.000594    59.848539
	  123 D(17,15,18,20)  =    -55.362142     0.000000    -0.000601   -55.362743
	  124 D(17,15,18,21)  =   -177.617884    -0.000000    -0.000722  -177.618606
	  125 D(18,21,24,25)  =     66.703413     0.000000    -0.000192    66.703220
	  126 D(18,21,24,26)  =   -177.617565     0.000000    -0.000241  -177.617806
	  127 D(19,18,21,22)  =   -172.312610    -0.000000     0.000458  -172.312152
	  128 D(19,18,21,23)  =    -57.016196     0.000000     0.000545   -57.015651
	  129 D(19,18,21,24)  =     65.606583     0.000000     0.000465    65.607048
	  130 D(20,18,21,22)  =    -57.016207    -0.000000     0.000412   -57.015794
	  131 D(20,18,21,23)  =     58.280207     0.000000     0.000499    58.280706
	  132 D(20,18,21,24)  =   -179.097014    -0.000000     0.000420  -179.096595
	  133 D(22,21,24,25)  =    -55.829714     0.000000    -0.000207   -55.829920
	  134 D(22,21,24,26)  =     59.849309     0.000000    -0.000255    59.849054
	  135 D(23,21,24,25)  =   -171.040974     0.000000    -0.000259  -171.041233
	  136 D(23,21,24,26)  =    -55.361952    -0.000000    -0.000307   -55.362259
	  137 R(1,21)         =      3.637685    -0.000001    -0.000001     3.637685
	  138 R(5,18)         =      3.637681     0.000001     0.000006     3.637687
	  139 R(9,24)         =      3.610620     0.000001     0.000002     3.610623
	  140 R(12,15)        =      3.610617    -0.000001    -0.000005     3.610612
	 ---------------------------------------------------------------------------

  ==> Convergence Check <==

  Measures of convergence in internal coordinates in au.
  Criteria marked as inactive (o), active & met (*), and active & unmet ( ).
  --------------------------------------------------------------------------------------------- ~
   Step     Total Energy     Delta E     MAX Force     RMS Force      MAX Disp      RMS Disp    ~
  --------------------------------------------------------------------------------------------- ~
    Convergence Criteria             o    2.00e-06 *    1.00e-06 *    6.00e-06 *    4.00e-06 *  ~
  --------------------------------------------------------------------------------------------- ~
      1    -314.98385381   -3.15e+02 o    3.45e-07 *    1.05e-07 *    1.31e-05      4.86e-06    ~
  ---------------------------------------------------------------------------------------------

	Writing optimization data to binary file.
	Structure for next step:
	Cartesian Geometry (in Angstrom)
	    C    -3.2524139351  -0.3125369927  -0.4451321781
	    H    -3.7197123703   0.6418755490  -0.6940058623
	    H    -4.0451141448  -1.0225289969  -0.2104358998
	    H    -2.7395582376  -0.6734476273  -1.3364707506
	    C     3.2524079261   0.3125655321  -0.4451609479
	    H     4.0451016278   1.0225598142  -0.2104466680
	    H     2.7395405538   0.6734996186  -1.3364841852
	    H     3.7197166326  -0.6418336273  -0.6940698349
	    C    -2.2909283238  -0.1525332223   0.7273372673
	    H    -1.8094658946  -1.1102607324   0.9387873067
	    H    -2.8562445376   0.1084127036   1.6248021212
	    C     2.2909343195   0.1525121491   0.7273115224
	    H     2.8562626979  -0.1084607800   1.6247617096
	    H     1.8094647796   1.1102286653   0.9388012232
	    C    -1.2290644108   0.9205324265   0.4900965364
	    H    -0.5962097003   0.9997188517   1.3777430458
	    H    -1.7259580089   1.8891277809   0.3810704400
	    C    -0.3548836026   0.6768782819  -0.7409454422
	    H     0.3854672979   1.4782222567  -0.8099969387
	    H    -0.9648710442   0.7561782757  -1.6439067570
	    C     0.3548693582  -0.6768666832  -0.7409718723
	    H    -0.3854799649  -1.4782105727  -0.8100350299
	    H     0.9648432976  -0.7561367257  -1.6439454583
	    C     1.2290763434  -0.9205551644   0.4900468426
	    H     0.5962365258  -0.9997822468   1.3777013244
	    H     1.7259792382  -1.8891415134   0.3809766889
			--------------------------
			 OPTKING Finished Execution 
			--------------------------

    Structure for next step:
    Molecular point group: c1
    Full point group: C1

    Geometry (in Angstrom), charge = 0, multiplicity = 1:

    C           -3.252413679606    -0.312536789294    -0.445132146273
    H           -3.719712114826     0.641875752457    -0.694005830448
    H           -4.045113889276    -1.022528793497    -0.210435867975
    H           -2.739557982102    -0.673447423822    -1.336470718760
    C            3.252408181580     0.312565735506    -0.445160916021
    H            4.045101883356     1.022560017613    -0.210446636137
    H            2.739540809338     0.673499822021    -1.336484153315
    H            3.719716888071    -0.641833423842    -0.694069803056
    C           -2.290928068276    -0.152533018853     0.727337299191
    H           -1.809465639070    -1.110260529010     0.938787338563
    H           -2.856244282133     0.108412907064     1.624802153104
    C            2.290934574991     0.152512352564     0.727311554306
    H            2.856262953406    -0.108460576562     1.624761741445
    H            1.809465035109     1.110228868687     0.938801255058
    C           -1.229064155279     0.920532629882     0.490096568238
    H           -0.596209444763     0.999719055165     1.377743077699
    H           -1.725957753378     1.889127984316     0.381070471877
    C           -0.354883347128     0.676878485370    -0.740945410336
    H            0.385467553374     1.478222460123    -0.809996906795
    H           -0.964870788730     0.756178479128    -1.643906725156
    C            0.354869613733    -0.676866479723    -0.740971840475
    H           -0.385479709360    -1.478210369251    -0.810034998065
    H            0.964843553070    -0.756136522268    -1.643945426456
    C            1.229076598877    -0.920554960922     0.490046874469
    H            0.596236781309    -0.999782043322     1.377701356243
    H            1.725979493706    -1.889141309934     0.380976720716

gradient() will perform analytic gradient computation.

*** tstart() called on wr25
*** at Tue Sep 20 22:47:14 2016


         ---------------------------------------------------------
                                   SCF
            by Justin Turney, Rob Parrish, and Andy Simmonett
                              RHF Reference
                       12 Threads,  60000 MiB Core
         ---------------------------------------------------------

  ==> Geometry <==

    Molecular point group: c1
    Full point group: C1

    Geometry (in Angstrom), charge = 0, multiplicity = 1:

       Center              X                  Y                   Z               Mass       
    ------------   -----------------  -----------------  -----------------  -----------------
           C         -3.252413679606    -0.312536789294    -0.445132146273    12.000000000000
           H         -3.719712114826     0.641875752457    -0.694005830448     1.007825032070
           H         -4.045113889276    -1.022528793497    -0.210435867975     1.007825032070
           H         -2.739557982102    -0.673447423822    -1.336470718760     1.007825032070
           C          3.252408181580     0.312565735506    -0.445160916021    12.000000000000
           H          4.045101883356     1.022560017613    -0.210446636137     1.007825032070
           H          2.739540809338     0.673499822021    -1.336484153315     1.007825032070
           H          3.719716888071    -0.641833423842    -0.694069803056     1.007825032070
           C         -2.290928068276    -0.152533018853     0.727337299191    12.000000000000
           H         -1.809465639070    -1.110260529010     0.938787338563     1.007825032070
           H         -2.856244282133     0.108412907064     1.624802153104     1.007825032070
           C          2.290934574991     0.152512352564     0.727311554306    12.000000000000
           H          2.856262953406    -0.108460576562     1.624761741445     1.007825032070
           H          1.809465035109     1.110228868687     0.938801255058     1.007825032070
           C         -1.229064155279     0.920532629882     0.490096568238    12.000000000000
           H         -0.596209444763     0.999719055165     1.377743077699     1.007825032070
           H         -1.725957753378     1.889127984316     0.381070471877     1.007825032070
           C         -0.354883347128     0.676878485370    -0.740945410336    12.000000000000
           H          0.385467553374     1.478222460123    -0.809996906795     1.007825032070
           H         -0.964870788730     0.756178479128    -1.643906725156     1.007825032070
           C          0.354869613733    -0.676866479723    -0.740971840475    12.000000000000
           H         -0.385479709360    -1.478210369251    -0.810034998065     1.007825032070
           H          0.964843553070    -0.756136522268    -1.643945426456     1.007825032070
           C          1.229076598877    -0.920554960922     0.490046874469    12.000000000000
           H          0.596236781309    -0.999782043322     1.377701356243     1.007825032070
           H          1.725979493706    -1.889141309934     0.380976720716     1.007825032070

  Running in c1 symmetry.

  Rotational constants: A =      0.14737  B =      0.02894  C =      0.02876 [cm^-1]
  Rotational constants: A =   4418.11396  B =    867.72946  C =    862.26702 [MHz]
  Nuclear repulsion =  406.989516110189129

  Charge       = 0
  Multiplicity = 1
  Electrons    = 66
  Nalpha       = 33
  Nbeta        = 33

  ==> Algorithm <==

  SCF Algorithm Type is DF.
  DIIS enabled.
  MOM disabled.
  Fractional occupation disabled.
  Guess Type is READ.
  Energy threshold   = 1.00e-10
  Density threshold  = 1.00e-10
  Integral threshold = 0.00e+00

  ==> Primary Basis <==

  Basis Set: AUG-CC-PVTZ
    Number of shells: 274
    Number of basis function: 782
    Number of Cartesian functions: 890
    Spherical Harmonics?: true
    Max angular momentum: 3

  ==> Pre-Iterations <==

   -------------------------------------------------------
    Irrep   Nso     Nmo     Nalpha   Nbeta   Ndocc  Nsocc
   -------------------------------------------------------
     A        782     782       0       0       0       0
   -------------------------------------------------------
    Total     782     782      33      33      33       0
   -------------------------------------------------------

  ==> Integral Setup <==

  ==> DFJK: Density-Fitted J/K Matrices <==

    J tasked:                  Yes
    K tasked:                  Yes
    wK tasked:                  No
    OpenMP threads:             12
    Integrals threads:          12
    Memory (MB):             42915
    Algorithm:                Core
    Integral Cache:           NONE
    Schwarz Cutoff:          1E-12
    Fitting Condition:       1E-12

   => Auxiliary Basis Set <=

  Basis Set: 
    Number of shells: 492
    Number of basis function: 1660
    Number of Cartesian functions: 2038
    Spherical Harmonics?: true
    Max angular momentum: 4

  Minimum eigenvalue in the overlap matrix is 1.4441074479E-06.
  Using Symmetric Orthogonalization.
  SCF Guess: Reading in previously saved MOs, projecting if necessary.

  Using orbitals from previous SCF, no projection.
  Recomputing DOCC and SOCC from number of alpha and beta electrons from previous calculation.
              A 
    DOCC [    33 ]

  ==> Iterations <==

                           Total Energy        Delta E     RMS |[F,P]|

   @DF-RHF iter   0:  -313.53769092252105   -3.13538e+02   2.62809e-08 
   @DF-RHF iter   1:  -313.53769090147046    2.10506e-08   4.69281e-09 
   @DF-RHF iter   2:  -313.53769090148273   -1.22782e-11   1.78155e-09 DIIS
   @DF-RHF iter   3:  -313.53769090148523   -2.50111e-12   8.05220e-10 DIIS
   @DF-RHF iter   4:  -313.53769090148421    1.02318e-12   9.79665e-11 DIIS

  ==> Post-Iterations <==

    Orbital Energies (a.u.)
    -----------------------

    Doubly Occupied:                                                      

       1A    -11.212310     2A    -11.212310     3A    -11.210339  
       4A    -11.210282     5A    -11.209562     6A    -11.209009  
       7A    -11.206828     8A    -11.206828     9A     -1.097789  
      10A     -1.057570    11A     -1.002094    12A     -0.945809  
      13A     -0.895323    14A     -0.841887    15A     -0.782921  
      16A     -0.733740    17A     -0.650846    18A     -0.648606  
      19A     -0.602159    20A     -0.601014    21A     -0.573470  
      22A     -0.553922    23A     -0.544455    24A     -0.533141  
      25A     -0.513291    26A     -0.511994    27A     -0.485999  
      28A     -0.472754    29A     -0.470118    30A     -0.462252  
      31A     -0.443335    32A     -0.434546    33A     -0.433903  

    Virtual:                                                              

      34A      0.030370    35A      0.033424    36A      0.033804  
      37A      0.034713    38A      0.045764    39A      0.048813  
      40A      0.050306    41A      0.053830    42A      0.054378  
      43A      0.067564    44A      0.069940    45A      0.072400  
      46A      0.072405    47A      0.078880    48A      0.087720  
      49A      0.088621    50A      0.091862    51A      0.101871  
      52A      0.112297    53A      0.115483    54A      0.124332  
      55A      0.124917    56A      0.127819    57A      0.130440  
      58A      0.135400    59A      0.135472    60A      0.136662  
      61A      0.142284    62A      0.146068    63A      0.151268  
      64A      0.151292    65A      0.157234    66A      0.158685  
      67A      0.163434    68A      0.169516    69A      0.171880  
      70A      0.176538    71A      0.177283    72A      0.184793  
      73A      0.185322    74A      0.191054    75A      0.192679  
      76A      0.194284    77A      0.213636    78A      0.216567  
      79A      0.219321    80A      0.236390    81A      0.238101  
      82A      0.253489    83A      0.260277    84A      0.265474  
      85A      0.269197    86A      0.278476    87A      0.279994  
      88A      0.283841    89A      0.289394    90A      0.296595  
      91A      0.300758    92A      0.305181    93A      0.313305  
      94A      0.315037    95A      0.316595    96A      0.320046  
      97A      0.321645    98A      0.328101    99A      0.331785  
     100A      0.339739   101A      0.340125   102A      0.344993  
     103A      0.353967   104A      0.355742   105A      0.357741  
     106A      0.358560   107A      0.360512   108A      0.365157  
     109A      0.366023   110A      0.366482   111A      0.373158  
     112A      0.381127   113A      0.386142   114A      0.387638  
     115A      0.391616   116A      0.391738   117A      0.399931  
     118A      0.417152   119A      0.417583   120A      0.421997  
     121A      0.428763   122A      0.431047   123A      0.432443  
     124A      0.443326   125A      0.443782   126A      0.446197  
     127A      0.449755   128A      0.451478   129A      0.451870  
     130A      0.456398   131A      0.459954   132A      0.464696  
     133A      0.472609   134A      0.474763   135A      0.477596  
     136A      0.479587   137A      0.480621   138A      0.482073  
     139A      0.490420   140A      0.495474   141A      0.496084  
     142A      0.496599   143A      0.500531   144A      0.503352  
     145A      0.508073   146A      0.519643   147A      0.521361  
     148A      0.524695   149A      0.535240   150A      0.536970  
     151A      0.539014   152A      0.540940   153A      0.554640  
     154A      0.556923   155A      0.559430   156A      0.562881  
     157A      0.566578   158A      0.568184   159A      0.575380  
     160A      0.581393   161A      0.587399   162A      0.588327  
     163A      0.589950   164A      0.593120   165A      0.599265  
     166A      0.610000   167A      0.610016   168A      0.615398  
     169A      0.618281   170A      0.623776   171A      0.625624  
     172A      0.632106   173A      0.643519   174A      0.643809  
     175A      0.645625   176A      0.647203   177A      0.653630  
     178A      0.657486   179A      0.670911   180A      0.673725  
     181A      0.680215   182A      0.689483   183A      0.690117  
     184A      0.698452   185A      0.699087   186A      0.710313  
     187A      0.710585   188A      0.716678   189A      0.723025  
     190A      0.731334   191A      0.736771   192A      0.740199  
     193A      0.741612   194A      0.747396   195A      0.757958  
     196A      0.760989   197A      0.767855   198A      0.774394  
     199A      0.778537   200A      0.784410   201A      0.788949  
     202A      0.789266   203A      0.808676   204A      0.812938  
     205A      0.831232   206A      0.843172   207A      0.843584  
     208A      0.850795   209A      0.852353   210A      0.861595  
     211A      0.864939   212A      0.869973   213A      0.879859  
     214A      0.884036   215A      0.903666   216A      0.906137  
     217A      0.907627   218A      0.911840   219A      0.916712  
     220A      0.916823   221A      0.928920   222A      0.931753  
     223A      0.934017   224A      0.937863   225A      0.943620  
     226A      0.953321   227A      0.956949   228A      0.962123  
     229A      0.962890   230A      0.972432   231A      0.974345  
     232A      0.979987   233A      0.981851   234A      0.985956  
     235A      0.987664   236A      0.997992   237A      1.003820  
     238A      1.003965   239A      1.008210   240A      1.010478  
     241A      1.015605   242A      1.029921   243A      1.035926  
     244A      1.038998   245A      1.040852   246A      1.050550  
     247A      1.053709   248A      1.062430   249A      1.063664  
     250A      1.071225   251A      1.073392   252A      1.078983  
     253A      1.085702   254A      1.087847   255A      1.089832  
     256A      1.096556   257A      1.103203   258A      1.109753  
     259A      1.112826   260A      1.116118   261A      1.121443  
     262A      1.134986   263A      1.137820   264A      1.150390  
     265A      1.155240   266A      1.155527   267A      1.161198  
     268A      1.170503   269A      1.175691   270A      1.184539  
     271A      1.185556   272A      1.191164   273A      1.206554  
     274A      1.209626   275A      1.213207   276A      1.215685  
     277A      1.229121   278A      1.230388   279A      1.234141  
     280A      1.238807   281A      1.240008   282A      1.247765  
     283A      1.260066   284A      1.265604   285A      1.266561  
[...]
	 D(15,18,21,22)   =         1.145055	      65.606829
	 D(15,18,21,23)   =        -3.125826	    -179.096653
	 D(15,18,21,24)   =        -0.985657	     -56.473973
	 D(16,15,18,19)   =        -0.974417	     -55.829954
	 D(16,15,18,20)   =        -2.985233	    -171.041257
	 D(16,15,18,21)   =         1.164186	      66.702920
	 D(17,15,18,19)   =         1.044565	      59.849158
	 D(17,15,18,20)   =        -0.966252	     -55.362145
	 D(17,15,18,21)   =        -3.100018	    -177.617968
	 D(18,21,24,25)   =         1.164196	      66.703501
	 D(18,21,24,26)   =        -3.100010	    -177.617513
	 D(19,18,21,22)   =        -3.007421	    -172.312542
	 D(19,18,21,23)   =        -0.995117	     -57.016024
	 D(19,18,21,24)   =         1.145052	      65.606656
	 D(20,18,21,22)   =        -0.995121	     -57.016225
	 D(20,18,21,23)   =         1.017183	      58.280292
	 D(20,18,21,24)   =        -3.125833	    -179.097027
	 D(22,21,24,25)   =        -0.974411	     -55.829656
	 D(22,21,24,26)   =         1.044568	      59.849329
	 D(23,21,24,25)   =        -2.985228	    -171.040960
	 D(23,21,24,26)   =        -0.966249	     -55.361975
	 R(1,21)          =         6.874228	       3.637685
	 R(5,18)          =         6.874223	       3.637682
	 R(9,24)          =         6.823085	       3.610621
	 R(12,15)         =         6.823075	       3.610616

	Current energy   :      -314.9838538171

	Energy change for the previous step:
		Projected    :         0.0000000450
		Actual       :        -0.0000000006

	Performing BFGS update.
	Previous computed or guess Hessian on step 1.
	Denominators (dg)(dq) or (dq)(dq) are very small.
	 Skipping Hessian update for step 6.
	Denominators (dg)(dq) or (dq)(dq) are very small.
	 Skipping Hessian update for step 5.
	Denominators (dg)(dq) or (dq)(dq) are very small.
	 Skipping Hessian update for step 4.
	Denominators (dg)(dq) or (dq)(dq) are very small.
	 Skipping Hessian update for step 3.
	Denominators (dg)(dq) or (dq)(dq) are very small.
	 Skipping Hessian update for step 2.
	Steps to be used in Hessian update: 1
	Taking RFO optimization step.
	Going to follow RFO solution 1.
	Rejecting RFO root 1 because normalization gives large value.
	Rejecting RFO root 2 because normalization gives large value.
	Rejecting RFO root 3 because normalization gives large value.
	Rejecting RFO root 4 because normalization gives large value.
	Rejecting RFO root 5 because normalization gives large value.
	Using RFO vector 6.
	Norm of target step-size    0.00002
	Projected energy change by RFO approximation:         0.0000000000

	Back-transformation to cartesian coordinates...
	Successfully converged to displaced geometry.

	--- Internal Coordinate Step in ANG or DEG, aJ/ANG or AJ/DEG ---
	 ---------------------------------------------------------------------------
	   Coordinate                Previous        Force       Change         New 
	   ----------                --------       ------       ------       ------
	    1 R(1,2)          =      1.091425    -0.000005     0.000000     1.091425
	    2 R(1,3)          =      1.089746    -0.000007    -0.000001     1.089745
	    3 R(1,4)          =      1.089845    -0.000005     0.000000     1.089845
	    4 R(1,9)          =      1.524710    -0.000002    -0.000000     1.524710
	    5 R(5,6)          =      1.089746    -0.000008    -0.000000     1.089746
	    6 R(5,7)          =      1.089846    -0.000007    -0.000000     1.089845
	    7 R(5,8)          =      1.091426    -0.000010    -0.000000     1.091426
	    8 R(5,12)         =      1.524710    -0.000001     0.000000     1.524710
	    9 R(9,10)         =      1.092593    -0.000011    -0.000001     1.092593
	   10 R(9,11)         =      1.092300    -0.000008    -0.000000     1.092300
	   11 R(9,15)         =      1.528172     0.000001    -0.000000     1.528172
	   12 R(12,13)        =      1.092300    -0.000008    -0.000000     1.092300
	   13 R(12,14)        =      1.092594    -0.000011    -0.000000     1.092593
	   14 R(12,24)        =      1.528172    -0.000001    -0.000000     1.528172
	   15 R(15,16)        =      1.093020    -0.000011     0.000000     1.093020
	   16 R(15,17)        =      1.094060    -0.000007    -0.000000     1.094060
	   17 R(15,18)        =      1.529387    -0.000002     0.000000     1.529387
	   18 R(18,19)        =      1.093179    -0.000008     0.000000     1.093179
	   19 R(18,20)        =      1.092571    -0.000006     0.000000     1.092572
	   20 R(18,21)        =      1.528521    -0.000002    -0.000000     1.528521
	   21 R(21,22)        =      1.093178    -0.000006     0.000000     1.093179
	   22 R(21,23)        =      1.092572    -0.000005     0.000000     1.092572
	   23 R(21,24)        =      1.529388    -0.000005    -0.000001     1.529387
	   24 R(24,25)        =      1.093020    -0.000014    -0.000000     1.093020
	   25 R(24,26)        =      1.094060    -0.000008    -0.000001     1.094060
	   26 B(1,9,10)       =    109.555286    -0.000000    -0.000045   109.555241
	   27 B(1,9,11)       =    109.300187     0.000000     0.000058   109.300245
	   28 B(1,9,15)       =    113.109406     0.000000    -0.000022   113.109384
	   29 B(2,1,3)        =    107.902272     0.000000     0.000003   107.902274
	   30 B(2,1,4)        =    107.732399     0.000000     0.000003   107.732402
	   31 B(2,1,9)        =    110.706215    -0.000000    -0.000044   110.706172
	   32 B(3,1,4)        =    107.619256    -0.000000     0.000012   107.619267
	   33 B(3,1,9)        =    111.190421     0.000000     0.000030   111.190452
	   34 B(4,1,9)        =    111.525826    -0.000000    -0.000004   111.525822
	   35 B(5,12,13)      =    109.300161     0.000000     0.000026   109.300188
	   36 B(5,12,14)      =    109.555313    -0.000000    -0.000025   109.555288
	   37 B(5,12,24)      =    113.109549    -0.000000    -0.000019   113.109531
	   38 B(6,5,7)        =    107.619275    -0.000000    -0.000001   107.619274
	   39 B(6,5,8)        =    107.902278    -0.000000     0.000014   107.902292
	   40 B(6,5,12)       =    111.190367     0.000000     0.000031   111.190398
	   41 B(7,5,8)        =    107.732404     0.000000    -0.000006   107.732398
	   42 B(7,5,12)       =    111.525860    -0.000000    -0.000023   111.525837
	   43 B(8,5,12)       =    110.706206    -0.000000    -0.000015   110.706191
	   44 B(9,15,16)      =    109.093945    -0.000000    -0.000050   109.093896
	   45 B(9,15,17)      =    108.756512     0.000000     0.000004   108.756517
	   46 B(9,15,18)      =    114.221471     0.000000     0.000009   114.221481
	   47 B(10,9,11)      =    106.168319    -0.000000     0.000004   106.168323
	   48 B(10,9,15)      =    109.837968     0.000000     0.000014   109.837982
	   49 B(11,9,15)      =    108.628181    -0.000000    -0.000007   108.628174
	   50 B(12,24,21)     =    114.221678    -0.000000    -0.000063   114.221615
	   51 B(12,24,25)     =    109.093972    -0.000000    -0.000053   109.093920
	   52 B(12,24,26)     =    108.756411     0.000000     0.000068   108.756479
	   53 B(13,12,14)     =    106.168278    -0.000000     0.000002   106.168281
	   54 B(13,12,24)     =    108.628075     0.000000     0.000025   108.628100
	   55 B(14,12,24)     =    109.837957    -0.000000    -0.000008   109.837950
	   56 B(15,18,19)     =    108.733513    -0.000000    -0.000051   108.733462
	   57 B(15,18,20)     =    109.545195     0.000000     0.000005   109.545200
	   58 B(15,18,21)     =    113.986687     0.000000     0.000049   113.986736
	   59 B(16,15,17)     =    106.245586    -0.000000     0.000002   106.245589
	   60 B(16,15,18)     =    109.528608    -0.000000    -0.000016   109.528591
	   61 B(17,15,18)     =    108.689098    -0.000000     0.000050   108.689147
	   62 B(18,21,22)     =    109.557460    -0.000000    -0.000027   109.557433
	   63 B(18,21,23)     =    108.875272    -0.000000     0.000023   108.875295
	   64 B(18,21,24)     =    113.986638     0.000000     0.000047   113.986686
	   65 B(19,18,20)     =    105.825046    -0.000000    -0.000007   105.825040
	   66 B(19,18,21)     =    109.557232     0.000000     0.000014   109.557246
	   67 B(20,18,21)     =    108.875334    -0.000000    -0.000015   108.875319
	   68 B(21,24,25)     =    109.528534     0.000000     0.000023   109.528556
	   69 B(21,24,26)     =    108.689087    -0.000000     0.000002   108.689089
	   70 B(22,21,23)     =    105.825138    -0.000000    -0.000018   105.825120
	   71 B(22,21,24)     =    108.733541    -0.000000    -0.000039   108.733502
	   72 B(23,21,24)     =    109.544967    -0.000000     0.000009   109.544976
	   73 B(25,24,26)     =    106.245519    -0.000000     0.000031   106.245550
	   74 D(1,9,15,16)    =    178.409562     0.000000     0.000003   178.409565
	   75 D(1,9,15,17)    =     62.929559     0.000000     0.000024    62.929584
	   76 D(1,9,15,18)    =    -58.660466     0.000000    -0.000049   -58.660515
	   77 D(2,1,9,10)     =   -178.121654    -0.000000    -0.000173  -178.121826
	   78 D(2,1,9,11)     =     65.934265     0.000000    -0.000186    65.934080
	   79 D(2,1,9,15)     =    -55.224666    -0.000000    -0.000204   -55.224869
	   80 D(3,1,9,10)     =     61.944900    -0.000000    -0.000167    61.944733
	   81 D(3,1,9,11)     =    -53.999181     0.000000    -0.000180   -53.999361
	   82 D(3,1,9,15)     =   -175.158112    -0.000000    -0.000198  -175.158310
	   83 D(4,1,9,10)     =    -58.180598     0.000000    -0.000200   -58.180798
	   84 D(4,1,9,11)     =   -174.124679     0.000000    -0.000213  -174.124892
	   85 D(4,1,9,15)     =     64.716390    -0.000000    -0.000231    64.716159
	   86 D(5,12,24,21)   =    -58.660354    -0.000000    -0.000018   -58.660372
	   87 D(5,12,24,25)   =    178.409605    -0.000000     0.000036   178.409642
	   88 D(5,12,24,26)   =     62.929723     0.000000    -0.000009    62.929715
	   89 D(6,5,12,13)    =    -53.999404     0.000000    -0.000091   -53.999495
	   90 D(6,5,12,14)    =     61.944629    -0.000000    -0.000088    61.944542
	   91 D(6,5,12,24)    =   -175.158277    -0.000000    -0.000129  -175.158406
	   92 D(7,5,12,13)    =   -174.124912     0.000000    -0.000096  -174.125008
	   93 D(7,5,12,14)    =    -58.180879     0.000000    -0.000092   -58.180972
	   94 D(7,5,12,24)    =     64.716215    -0.000000    -0.000134    64.716081
	   95 D(8,5,12,13)    =     65.934009     0.000000    -0.000063    65.933946
	   96 D(8,5,12,14)    =   -178.121958     0.000000    -0.000059  -178.122017
	   97 D(8,5,12,24)    =    -55.224864    -0.000000    -0.000101   -55.224965
	   98 D(9,15,18,19)   =   -178.523689     0.000000     0.000056  -178.523634
	   99 D(9,15,18,20)   =     66.265008     0.000000     0.000089    66.265097
	  100 D(9,15,18,21)   =    -55.990815     0.000000     0.000070   -55.990745
	  101 D(10,9,15,16)   =    -58.850364    -0.000000    -0.000061   -58.850425
	  102 D(10,9,15,17)   =   -174.330367     0.000000    -0.000040  -174.330406
	  103 D(10,9,15,18)   =     64.079608    -0.000000    -0.000113    64.079494
	  104 D(11,9,15,16)   =     56.871553    -0.000000    -0.000052    56.871502
	  105 D(11,9,15,17)   =    -58.608450     0.000000    -0.000030   -58.608480
	  106 D(11,9,15,18)   =    179.801525    -0.000000    -0.000104   179.801421
	  107 D(12,24,21,18)  =    -55.990359     0.000000    -0.000105   -55.990465
	  108 D(12,24,21,22)  =   -178.523517     0.000000    -0.000073  -178.523590
	  109 D(12,24,21,23)  =     66.265179     0.000000    -0.000036    66.265144
	  110 D(13,12,24,21)  =    179.801651    -0.000000    -0.000057   179.801594
	  111 D(13,12,24,25)  =     56.871610    -0.000000    -0.000002    56.871608
	  112 D(13,12,24,26)  =    -58.608272    -0.000000    -0.000047   -58.608319
	  113 D(14,12,24,21)  =     64.079848    -0.000000    -0.000070    64.079778
	  114 D(14,12,24,25)  =    -58.850193    -0.000000    -0.000015   -58.850208
	  115 D(14,12,24,26)  =   -174.330075     0.000000    -0.000060  -174.330135
	  116 D(15,18,21,22)  =     65.606829     0.000000    -0.000013    65.606816
	  117 D(15,18,21,23)  =   -179.096653    -0.000000    -0.000037  -179.096690
	  118 D(15,18,21,24)  =    -56.473973     0.000000     0.000025   -56.473948
	  119 D(16,15,18,19)  =    -55.829954    -0.000000    -0.000015   -55.829969
	  120 D(16,15,18,20)  =   -171.041257     0.000000     0.000019  -171.041238
	  121 D(16,15,18,21)  =     66.702920     0.000000    -0.000000    66.702920
	  122 D(17,15,18,19)  =     59.849158    -0.000000     0.000007    59.849165
	  123 D(17,15,18,20)  =    -55.362145    -0.000000     0.000041   -55.362104
	  124 D(17,15,18,21)  =   -177.617968     0.000000     0.000022  -177.617946
	  125 D(18,21,24,25)  =     66.703501    -0.000000    -0.000201    66.703300
	  126 D(18,21,24,26)  =   -177.617513    -0.000000    -0.000151  -177.617665
	  127 D(19,18,21,22)  =   -172.312542     0.000000    -0.000034  -172.312576
	  128 D(19,18,21,23)  =    -57.016024    -0.000000    -0.000058   -57.016083
	  129 D(19,18,21,24)  =     65.606656     0.000000     0.000004    65.606660
	  130 D(20,18,21,22)  =    -57.016225     0.000000    -0.000043   -57.016268
	  131 D(20,18,21,23)  =     58.280292    -0.000000    -0.000067    58.280226
	  132 D(20,18,21,24)  =   -179.097027     0.000000    -0.000005  -179.097032
	  133 D(22,21,24,25)  =    -55.829656    -0.000000    -0.000169   -55.829826
	  134 D(22,21,24,26)  =     59.849329    -0.000000    -0.000119    59.849210
	  135 D(23,21,24,25)  =   -171.040960     0.000000    -0.000132  -171.041092
	  136 D(23,21,24,26)  =    -55.361975     0.000000    -0.000082   -55.362056
	  137 R(1,21)         =      3.637685     0.000001     0.000000     3.637685
	  138 R(5,18)         =      3.637682    -0.000002     0.000000     3.637683
	  139 R(9,24)         =      3.610621    -0.000000    -0.000000     3.610621
	  140 R(12,15)        =      3.610616     0.000001     0.000002     3.610617
	 ---------------------------------------------------------------------------

  ==> Convergence Check <==

  Measures of convergence in internal coordinates in au.
  Criteria marked as inactive (o), active & met (*), and active & unmet ( ).
  ---------------------------------------------------------------------------------------------
   Step     Total Energy     Delta E     MAX Force     RMS Force      MAX Disp      RMS Disp   
  ---------------------------------------------------------------------------------------------
    Convergence Criteria             o    2.00e-06 *    1.00e-06 *    6.00e-06 *    4.00e-06 *
  ---------------------------------------------------------------------------------------------
      7    -314.98385382   -5.64e-10 o    1.67e-06 *    3.93e-07 *    4.03e-06 *    1.30e-06 *  ~
  ---------------------------------------------------------------------------------------------


  **** Optimization is complete! (in 7 steps) ****

  ==> Optimization Summary <==

  Measures of convergence in internal coordinates in au.
  --------------------------------------------------------------------------------------------------------------- ~
   Step         Total Energy             Delta E       MAX Force       RMS Force        MAX Disp        RMS Disp  ~
  --------------------------------------------------------------------------------------------------------------- ~
      1    -314.983853814337   -314.983853814337      0.00000034      0.00000010      0.00001306      0.00000486  ~
      2    -314.983853814241      0.000000000095      0.00000243      0.00000062      0.00004759      0.00001650  ~
      3    -314.983853813394      0.000000000847      0.00000375      0.00000074      0.00005665      0.00002055  ~
      4    -314.983853816806     -0.000000003411      0.00000302      0.00000066      0.00004713      0.00001674  ~
      5    -314.983853816774      0.000000000032      0.00000791      0.00000132      0.00014122      0.00004043  ~
      6    -314.983853816538      0.000000000236      0.00001220      0.00000252      0.00019017      0.00004429  ~
      7    -314.983853817101     -0.000000000564      0.00000167      0.00000039      0.00000403      0.00000130  ~
  --------------------------------------------------------------------------------------------------------------- ~

	Writing optimization data to binary file.
	Final energy is   -314.9838538171015
	Final (previous) structure:
	Cartesian Geometry (in Angstrom)
	    C    -3.2524149882  -0.3125380408  -0.4451321885
	    H    -3.7197174647   0.6418733325  -0.6940026254
	    H    -4.0451125264  -1.0225335473  -0.2104348913
	    H    -2.7395608430  -0.6734449986  -1.3364732185
	    C     3.2524070328   0.3125652232  -0.4451622348
	    H     4.0451016027   1.0225591680  -0.2104487002
	    H     2.7395384348   0.6735001458  -1.3364843031
	    H     3.7197149405  -0.6418341503  -0.6940730475
	    C    -2.2909261742  -0.1525340880   0.7273349297
	    H    -1.8094594206  -1.1102605713   0.9387822459
	    H    -2.8562419350   0.1084084414   1.6248017697
	    C     2.2909349857   0.1525109238   0.7273117644
	    H     2.8562648520  -0.1084632869   1.6247607796
	    H     1.8094662264   1.1102270234   0.9388035924
	    C    -1.2290665203   0.9205360856   0.4900942348
	    H    -0.5962154747   0.9997292959   1.3777430149
	    H    -1.7259649436   1.8891286744   0.3810616667
	    C    -0.3548799215   0.6768810298  -0.7409433331
	    H     0.3854745556   1.4782221609  -0.8099905190
	    H    -0.9648626372   0.7561842813  -1.6439076083
	    C     0.3548685420  -0.6768666099  -0.7409689981
	    H    -0.3854834589  -1.4782083076  -0.8100294923
	    H     0.9648407643  -0.7561400400  -1.6439435202
	    C     1.2290769102  -0.9205562585   0.4900480373
	    H     0.5962387430  -0.9997848906   1.3777033966
	    H     1.7259801749  -1.8891420749   0.3809757854
	Saving final (previous) structure.
			--------------------------
			 OPTKING Finished Execution 
			--------------------------

    Final optimized geometry and variables:
    Molecular point group: c1
    Full point group: C1

    Geometry (in Angstrom), charge = 0, multiplicity = 1:

    C           -3.252414988203    -0.312538040772    -0.445132188490
    H           -3.719717464666     0.641873332549    -0.694002625405
    H           -4.045112526372    -1.022533547251    -0.210434891265
    H           -2.739560843027    -0.673444998639    -1.336473218453
    C            3.252407032765     0.312565223215    -0.445162234794
    H            4.045101602699     1.022559167959    -0.210448700176
    H            2.739538434845     0.673500145840    -1.336484303052
    H            3.719714940463    -0.641834150255    -0.694073047492
    C           -2.290926174175    -0.152534088015     0.727334929703
    H           -1.809459420610    -1.110260571277     0.938782245942
    H           -2.856241935007     0.108408441395     1.624801769744
    C            2.290934985685     0.152510923822     0.727311764362
    H            2.856264852045    -0.108463286878     1.624760779565
    H            1.809466226399     1.110227023368     0.938803592407
    C           -1.229066520306     0.920536085648     0.490094234839
    H           -0.596215474661     0.999729295869     1.377743014892
    H           -1.725964943608     1.889128674444     0.381061666695
    C           -0.354879921544     0.676881029769    -0.740943333062
    H            0.385474555633     1.478222160910    -0.809990519000
    H           -0.964862637247     0.756184281310    -1.643907608324
    C            0.354868542008    -0.676866609949    -0.740968998074
    H           -0.385483458908    -1.478208307616    -0.810029492330
    H            0.964840764274    -0.756140039977    -1.643943520220
    C            1.229076910218    -0.920556258543     0.490048037311
    H            0.596238743009    -0.999784890615     1.377703396605
    H            1.725980174928    -1.889142074867     0.380975785364

	Cleaning optimization helper files.

*** Psi4 exiting successfully. Buy a developer a beer!
