    -----------------------------------------------------------------------
          Psi4: An Open-Source Ab Initio Electronic Structure Package
                              Psi4 1.0.0 Driver

                          Git: Rev {master} 6a9a71b dirty

    J. M. Turney, A. C. Simmonett, R. M. Parrish, E. G. Hohenstein,
    F. A. Evangelista, J. T. Fermann, B. J. Mintz, L. A. Burns, J. J. Wilke,
    M. L. Abrams, N. J. Russ, M. L. Leininger, C. L. Janssen, E. T. Seidl,
    W. D. Allen, H. F. Schaefer, R. A. King, E. F. Valeev, C. D. Sherrill,
    and T. D. Crawford, WIREs Comput. Mol. Sci. 2, 556-565 (2012)
    (doi: 10.1002/wcms.93)

                         Additional Contributions by
    A. E. DePrince, U. Bozkaya, A. Yu. Sokolov, D. G. A. Smith, R. Di Remigio,
    R. M. Richard, J. F. Gonthier, H. R. McAlexander, M. Saitow, and
    B. P. Pritchard
    -----------------------------------------------------------------------


    Psi4 started on: Tue Sep 20 22:40:02 2016

    Process ID:  19025
    PSI4DATADIR: /usr/local/hpc5/psi4conda/share/psi4
    Memory level set to 256.000 MB

  ==> Input File <==

--------------------------------------------------------------------------
memory 60 Gb

molecule molecule_03_psi {
0 1
C            4.063925152115     0.348803629924     0.149747132870
H            4.825359721143     0.820378447302    -0.470968065909
H            4.380255260991    -0.675935027564     0.348337765918
H            4.033951191615     0.877159292045     1.103456505064
C           -2.911541730450     1.336577595485     0.518661678257
H           -3.404858320615     2.243272372534     0.169340134475
H           -1.941290103720     1.624261498854     0.923750677344
H           -3.504713060026     0.926013084806     1.337694039058
C            2.696541848732     0.370627350062    -0.522134703688
H            2.750301040687    -0.141938431978    -1.486295471240
H            2.406219153167     1.402738708046    -0.735875200326
C           -2.767648775241     0.318743725200    -0.607157475640
H           -3.745726550190     0.138464071132    -1.058582695564
H           -2.139504073143     0.733483131066    -1.398411270162
C            1.617846545187    -0.284227007490     0.331231572202
H            1.560293623475     0.229797098412     1.296397884577
H            1.906983604643    -1.317478633121     0.548821080326
C            0.243852478887    -0.272731078478    -0.326449697732
H            0.295725532698    -0.798983296854    -1.285709889921
H           -0.029888173373     0.761218009453    -0.555291098338
C           -0.829716094319    -0.915537595362     0.543471463257
H           -0.500929589106    -1.919942817709     0.825247805265
H           -0.919106285841    -0.353262858688     1.477008854609
C           -2.193855881258    -1.017856181621    -0.137577758050
H           -2.110353517483    -1.691214324943    -0.995470024523
H           -2.903071256688    -1.481606138839     0.554364505891
}

set globals {
  reference rhf
  g_convergence gau_verytight
  basis aug-cc-pvtz
  freeze_core true
  scf_type df
  mp_type df
}
optimize('mp2')
--------------------------------------------------------------------------
/usr/local/hpc5/psi4conda/lib/python2.7/site-packages/v2rdm_casscf/v2rdm_casscf.so loaded.

  Memory set to  60.000 GiB by Python script.
gradient() will perform analytic gradient computation.

*** tstart() called on wr40
*** at Tue Sep 20 22:40:02 2016


         ---------------------------------------------------------
                                   SCF
            by Justin Turney, Rob Parrish, and Andy Simmonett
                              RHF Reference
                       12 Threads,  60000 MiB Core
         ---------------------------------------------------------

  ==> Geometry <==

    Molecular point group: c1
    Full point group: C1

    Geometry (in Angstrom), charge = 0, multiplicity = 1:

       Center              X                  Y                   Z               Mass       
    ------------   -----------------  -----------------  -----------------  -----------------
           C          4.063925152115     0.348803629924     0.149747132870    12.000000000000
           H          4.825359721143     0.820378447302    -0.470968065909     1.007825032070
           H          4.380255260991    -0.675935027564     0.348337765918     1.007825032070
           H          4.033951191615     0.877159292045     1.103456505064     1.007825032070
           C         -2.911541730450     1.336577595485     0.518661678257    12.000000000000
           H         -3.404858320615     2.243272372534     0.169340134475     1.007825032070
           H         -1.941290103720     1.624261498854     0.923750677344     1.007825032070
           H         -3.504713060026     0.926013084806     1.337694039058     1.007825032070
           C          2.696541848732     0.370627350062    -0.522134703688    12.000000000000
           H          2.750301040687    -0.141938431978    -1.486295471240     1.007825032070
           H          2.406219153167     1.402738708046    -0.735875200326     1.007825032070
           C         -2.767648775241     0.318743725200    -0.607157475640    12.000000000000
           H         -3.745726550190     0.138464071132    -1.058582695564     1.007825032070
           H         -2.139504073143     0.733483131066    -1.398411270162     1.007825032070
           C          1.617846545187    -0.284227007490     0.331231572202    12.000000000000
           H          1.560293623475     0.229797098412     1.296397884577     1.007825032070
           H          1.906983604643    -1.317478633121     0.548821080326     1.007825032070
           C          0.243852478887    -0.272731078478    -0.326449697732    12.000000000000
           H          0.295725532698    -0.798983296854    -1.285709889921     1.007825032070
           H         -0.029888173373     0.761218009453    -0.555291098338     1.007825032070
           C         -0.829716094319    -0.915537595362     0.543471463257    12.000000000000
           H         -0.500929589106    -1.919942817709     0.825247805265     1.007825032070
           H         -0.919106285841    -0.353262858688     1.477008854609     1.007825032070
           C         -2.193855881258    -1.017856181621    -0.137577758050    12.000000000000
           H         -2.110353517483    -1.691214324943    -0.995470024523     1.007825032070
           H         -2.903071256688    -1.481606138839     0.554364505891     1.007825032070

  Running in c1 symmetry.

  Rotational constants: A =      0.15189  B =      0.02240  C =      0.02129 [cm^-1]
  Rotational constants: A =   4553.43001  B =    671.45961  C =    638.11416 [MHz]
  Nuclear repulsion =  389.252587880486942

  Charge       = 0
  Multiplicity = 1
  Electrons    = 66
  Nalpha       = 33
  Nbeta        = 33

  ==> Algorithm <==

  SCF Algorithm Type is DF.
  DIIS enabled.
  MOM disabled.
  Fractional occupation disabled.
  Guess Type is SAD.
  Energy threshold   = 1.00e-10
  Density threshold  = 1.00e-10
  Integral threshold = 0.00e+00

  ==> Primary Basis <==

  Basis Set: AUG-CC-PVTZ
    Number of shells: 274
    Number of basis function: 782
    Number of Cartesian functions: 890
    Spherical Harmonics?: true
    Max angular momentum: 3

  ==> Pre-Iterations <==

   -------------------------------------------------------
    Irrep   Nso     Nmo     Nalpha   Nbeta   Ndocc  Nsocc
   -------------------------------------------------------
     A        782     782       0       0       0       0
   -------------------------------------------------------
    Total     782     782      33      33      33       0
   -------------------------------------------------------

  ==> Integral Setup <==

  ==> DFJK: Density-Fitted J/K Matrices <==

    J tasked:                  Yes
    K tasked:                  Yes
    wK tasked:                  No
    OpenMP threads:             12
    Integrals threads:          12
    Memory (MB):             42915
    Algorithm:                Core
    Integral Cache:           NONE
    Schwarz Cutoff:          1E-12
    Fitting Condition:       1E-12

   => Auxiliary Basis Set <=

  Basis Set: 
    Number of shells: 492
    Number of basis function: 1660
    Number of Cartesian functions: 2038
    Spherical Harmonics?: true
    Max angular momentum: 4

  Minimum eigenvalue in the overlap matrix is 2.6339133897E-06.
  Using Symmetric Orthogonalization.
  SCF Guess: Superposition of Atomic Densities via on-the-fly atomic UHF.

  ==> Iterations <==

                           Total Energy        Delta E     RMS |[F,P]|

   @DF-RHF iter   0:  -316.74557462641900   -3.16746e+02   6.89210e-03 
   @DF-RHF iter   1:  -313.26428706322082    3.48129e+00   8.02751e-04 
   @DF-RHF iter   2:  -313.50271822174369   -2.38431e-01   3.13183e-04 DIIS
   @DF-RHF iter   3:  -313.53833452624127   -3.56163e-02   9.94072e-05 DIIS
   @DF-RHF iter   4:  -313.54371259345834   -5.37807e-03   1.54521e-05 DIIS
   @DF-RHF iter   5:  -313.54387918890649   -1.66595e-04   4.71708e-06 DIIS
   @DF-RHF iter   6:  -313.54389157005409   -1.23811e-05   1.38536e-06 DIIS
   @DF-RHF iter   7:  -313.54389276895216   -1.19890e-06   2.68293e-07 DIIS
   @DF-RHF iter   8:  -313.54389281983555   -5.08834e-08   7.99306e-08 DIIS
   @DF-RHF iter   9:  -313.54389282347535   -3.63980e-09   2.00282e-08 DIIS
   @DF-RHF iter  10:  -313.54389282375570   -2.80352e-10   5.28124e-09 DIIS
   @DF-RHF iter  11:  -313.54389282377559   -1.98952e-11   1.21159e-09 DIIS
   @DF-RHF iter  12:  -313.54389282377616   -5.68434e-13   3.59382e-10 DIIS
   @DF-RHF iter  13:  -313.54389282377605    1.13687e-13   1.13050e-10 DIIS
   @DF-RHF iter  14:  -313.54389282377628   -2.27374e-13   2.62760e-11 DIIS

  ==> Post-Iterations <==

    Orbital Energies (a.u.)
    -----------------------

    Doubly Occupied:                                                      

       1A    -11.212553     2A    -11.211965     3A    -11.210623  
       4A    -11.210299     5A    -11.209704     6A    -11.209130  
       7A    -11.207119     8A    -11.206958     9A     -1.094429  
      10A     -1.061542    11A     -1.008364    12A     -0.948665  
      13A     -0.883038    14A     -0.828688    15A     -0.788214  
      16A     -0.755966    17A     -0.653985    18A     -0.627094  
      19A     -0.619675    20A     -0.582206    21A     -0.573408  
      22A     -0.568024    23A     -0.537083    24A     -0.527660  
      25A     -0.520472    26A     -0.504008    27A     -0.483706  
      28A     -0.473739    29A     -0.468982    30A     -0.460195  
      31A     -0.450574    32A     -0.443791    33A     -0.430822  

    Virtual:                                                              

      34A      0.029599    35A      0.031967    36A      0.034061  
      37A      0.035298    38A      0.045914    39A      0.047302  
      40A      0.048086    41A      0.053969    42A      0.057752  
      43A      0.066873    44A      0.067250    45A      0.069432  
      46A      0.070737    47A      0.084860    48A      0.089521  
      49A      0.092565    50A      0.097199    51A      0.103897  
      52A      0.106851    53A      0.112769    54A      0.114809  
      55A      0.123284    56A      0.124930    57A      0.127896  
      58A      0.132733    59A      0.133462    60A      0.141603  
      61A      0.143655    62A      0.150097    63A      0.154133  
      64A      0.159477    65A      0.162018    66A      0.163230  
      67A      0.164873    68A      0.169297    69A      0.171035  
      70A      0.175176    71A      0.182051    72A      0.187929  
      73A      0.192513    74A      0.193129    75A      0.199333  
      76A      0.207446    77A      0.220550    78A      0.222207  
      79A      0.225321    80A      0.238233    81A      0.242587  
      82A      0.248936    83A      0.252655    84A      0.254565  
      85A      0.261451    86A      0.268362    87A      0.272991  
      88A      0.278628    89A      0.282526    90A      0.287579  
      91A      0.297752    92A      0.300936    93A      0.305736  
      94A      0.306511    95A      0.315450    96A      0.318730  
      97A      0.320987    98A      0.325494    99A      0.330164  
     100A      0.337301   101A      0.338559   102A      0.342649  
     103A      0.350347   104A      0.353495   105A      0.356244  
     106A      0.358316   107A      0.363322   108A      0.364040  
     109A      0.365992   110A      0.370398   111A      0.376716  
     112A      0.382331   113A      0.386299   114A      0.387488  
     115A      0.392230   116A      0.398387   117A      0.400897  
     118A      0.405008   119A      0.406340   120A      0.408086  
     121A      0.411709   122A      0.413482   123A      0.420999  
     124A      0.424337   125A      0.429433   126A      0.431191  
     127A      0.436742   128A      0.439710   129A      0.443578  
     130A      0.444766   131A      0.453877   132A      0.457681  
     133A      0.459820   134A      0.462136   135A      0.467510  
     136A      0.471331   137A      0.473106   138A      0.477494  
     139A      0.479602   140A      0.480880   141A      0.487943  
     142A      0.491982   143A      0.495316   144A      0.505518  
     145A      0.506785   146A      0.509284   147A      0.513340  
     148A      0.515676   149A      0.519621   150A      0.521316  
     151A      0.526787   152A      0.531460   153A      0.533885  
     154A      0.538515   155A      0.538856   156A      0.545242  
     157A      0.550233   158A      0.551933   159A      0.560572  
     160A      0.568131   161A      0.569059   162A      0.571742  
     163A      0.574323   164A      0.581211   165A      0.586864  
     166A      0.589379   167A      0.593425   168A      0.599249  
     169A      0.600418   170A      0.606295   171A      0.611748  
     172A      0.620810   173A      0.624351   174A      0.627299  
     175A      0.636803   176A      0.639884   177A      0.650865  
     178A      0.654741   179A      0.657566   180A      0.660216  
     181A      0.665306   182A      0.669631   183A      0.673383  
     184A      0.679726   185A      0.686572   186A      0.693941  
     187A      0.699330   188A      0.701537   189A      0.715235  
     190A      0.719704   191A      0.724135   192A      0.729709  
     193A      0.736603   194A      0.741285   195A      0.748599  
     196A      0.758012   197A      0.770097   198A      0.773154  
     199A      0.781280   200A      0.783606   201A      0.794807  
     202A      0.806478   203A      0.812214   204A      0.824197  
     205A      0.829630   206A      0.835214   207A      0.842586  
     208A      0.845577   209A      0.852128   210A      0.858487  
     211A      0.861020   212A      0.871201   213A      0.876750  
     214A      0.877963   215A      0.886028   216A      0.889053  
     217A      0.892398   218A      0.901674   219A      0.904805  
     220A      0.908282   221A      0.909613   222A      0.920806  
     223A      0.923853   224A      0.928987   225A      0.933818  
     226A      0.935283   227A      0.938841   228A      0.944878  
     229A      0.948422   230A      0.950480   231A      0.955259  
     232A      0.961314   233A      0.968217   234A      0.975524  
     235A      0.977608   236A      0.979640   237A      0.983972  
     238A      0.991580   239A      0.996557   240A      1.002767  
     241A      1.007626   242A      1.014551   243A      1.022692  
     244A      1.024750   245A      1.027087   246A      1.035209  
     247A      1.039104   248A      1.045500   249A      1.053039  
     250A      1.057402   251A      1.062510   252A      1.064432  
     253A      1.070514   254A      1.075930   255A      1.080796  
     256A      1.086551   257A      1.095526   258A      1.101725  
     259A      1.106246   260A      1.112776   261A      1.119597  
     262A      1.128783   263A      1.132466   264A      1.134298  
     265A      1.140894   266A      1.146165   267A      1.155061  
     268A      1.155478   269A      1.158570   270A      1.166002  
     271A      1.174933   272A      1.176493   273A      1.180454  
     274A      1.188803   275A      1.193531   276A      1.193796  
     277A      1.198219   278A      1.200793   279A      1.206247  
     280A      1.211141   281A      1.218784   282A      1.222660  
     283A      1.225919   284A      1.238280   285A      1.240040  
     286A      1.245263   287A      1.246777   288A      1.253934  
     289A      1.258088   290A      1.265123   291A      1.266969  
     292A      1.269976   293A      1.277133   294A      1.284463  
     295A      1.295631   296A      1.303466   297A      1.304858  
     298A      1.305641   299A      1.310895   300A      1.323416  
     301A      1.326929   302A      1.335538   303A      1.339183  
     304A      1.344447   305A      1.349792   306A      1.356386  
     307A      1.364646   308A      1.374674   309A      1.379305  
     310A      1.382422   311A      1.395140   312A      1.404066  
     313A      1.414838   314A      1.417865   315A      1.423637  
     316A      1.424924   317A      1.430213   318A      1.443006  
     319A      1.447234   320A      1.453688   321A      1.455589  
     322A      1.475037   323A      1.485262   324A      1.499006  
     325A      1.503001   326A      1.518113   327A      1.519013  
     328A      1.528013   329A      1.538786   330A      1.543187  
     331A      1.547677   332A      1.554123   333A      1.560656  
     334A      1.571806   335A      1.580085   336A      1.587162  
     337A      1.596032   338A      1.599598   339A      1.600193  
     340A      1.608397   341A      1.610057   342A      1.622366  
     343A      1.624867   344A      1.637343   345A      1.642880  
     346A      1.647256   347A      1.653591   348A      1.664202  
     349A      1.666419   350A      1.673481   351A      1.680566  
     352A      1.684556   353A      1.692669   354A      1.696503  
     355A      1.700633   356A      1.706407   357A      1.713455  
     358A      1.721926   359A      1.730722   360A      1.737275  
     361A      1.748202   362A      1.750664   363A      1.759476  
     364A      1.766534   365A      1.768607   366A      1.771880  
     367A      1.778217   368A      1.784632   369A      1.788061  
     370A      1.794143   371A      1.796405   372A      1.802061  
     373A      1.805434   374A      1.814233   375A      1.821596  
     376A      1.824093   377A      1.830091   378A      1.833302  
     379A      1.846727   380A      1.854198   381A      1.857123  
     382A      1.862681   383A      1.866239   384A      1.873313  
     385A      1.883444   386A      1.886018   387A      1.886623  
     388A      1.902121   389A      1.908961   390A      1.915396  
     391A      1.916356   392A      1.927367   393A      1.935298  
     394A      1.942388   395A      1.949118   396A      1.961407  
     397A      1.970660   398A      1.975394   399A      1.987926  
     400A      1.993209   401A      1.993600   402A      1.997402  
     403A      2.004705   404A      2.006156   405A      2.021878  
     406A      2.024668   407A      2.032393   408A      2.037938  
     409A      2.046196   410A      2.053929   411A      2.056791  
     412A      2.065851   413A      2.085168   414A      2.087656  
     415A      2.092593   416A      2.096322   417A      2.102953  
     418A      2.115767   419A      2.120173   420A      2.121382  
     421A      2.128720   422A      2.138551   423A      2.152628  
     424A      2.154681   425A      2.163923   426A      2.174150  
     427A      2.193608   428A      2.200461   429A      2.200995  
     430A      2.220342   431A      2.232029   432A      2.239865  
     433A      2.246421   434A      2.252144   435A      2.272294  
     436A      2.279123   437A      2.284072   438A      2.291011  
     439A      2.300140   440A      2.304234   441A      2.316017  
     442A      2.321696   443A      2.325028   444A      2.341858  
     445A      2.349686   446A      2.353919   447A      2.362126  
     448A      2.369225   449A      2.375450   450A      2.381196  
     451A      2.391846   452A      2.414024   453A      2.418431  
     454A      2.434388   455A      2.435745   456A      2.438908  
     457A      2.453527   458A      2.463497   459A      2.477166  
     460A      2.481860   461A      2.492720   462A      2.497051  
     463A      2.519206   464A      2.528615   465A      2.533786  
     466A      2.548771   467A      2.553843   468A      2.572550  
     469A      2.591169   470A      2.599143   471A      2.611415  
     472A      2.617127   473A      2.629475   474A      2.640503  
     475A      2.650831   476A      2.672392   477A      2.692258  
     478A      2.707979   479A      2.745234   480A      2.773516  
     481A      2.797909   482A      2.825148   483A      2.871605  
     484A      2.910035   485A      2.930045   486A      2.951476  
     487A      2.999843   488A      3.012932   489A      3.016669  
     490A      3.096972   491A      3.140981   492A      3.210182  
     493A      3.259658   494A      3.296400   495A      3.315840  
     496A      3.396698   497A      3.427624   498A      3.433706  
     499A      3.448774   500A      3.454059   501A      3.474743  
     502A      3.492117   503A      3.507358   504A      3.522600  
     505A      3.526582   506A      3.538097   507A      3.547860  
     508A      3.561633   509A      3.573888   510A      3.583287  
     511A      3.586413   512A      3.595502   513A      3.617438  
     514A      3.623552   515A      3.635348   516A      3.655708  
     517A      3.664262   518A      3.670905   519A      3.683388  
     520A      3.687022   521A      3.697907   522A      3.705418  
     523A      3.717951   524A      3.718560   525A      3.732482  
     526A      3.743648   527A      3.753338   528A      3.761508  
     529A      3.770669   530A      3.777754   531A      3.793214  
     532A      3.798479   533A      3.803296   534A      3.813215  
     535A      3.815755   536A      3.828921   537A      3.835177  
     538A      3.847116   539A      3.855274   540A      3.860079  
     541A      3.867525   542A      3.870960   543A      3.877501  
     544A      3.884281   545A      3.894936   546A      3.902064  
     547A      3.907611   548A      3.922471   549A      3.938913  
     550A      3.941496   551A      3.950002   552A      3.963650  
     553A      3.965823   554A      3.971968   555A      3.975583  
     556A      3.977935   557A      3.988248   558A      3.994578  
     559A      4.000441   560A      4.013431   561A      4.015133  
     562A      4.029974   563A      4.032413   564A      4.035768  
     565A      4.042587   566A      4.052060   567A      4.060746  
     568A      4.069544   569A      4.074143   570A      4.081874  
     571A      4.087556   572A      4.091558   573A      4.103881  
     574A      4.110285   575A      4.116708   576A      4.129730  
     577A      4.148131   578A      4.152627   579A      4.155200  
     580A      4.172995   581A      4.185240   582A      4.194430  
     583A      4.198691   584A      4.214786   585A      4.217714  
     586A      4.223124   587A      4.245729   588A      4.251232  
     589A      4.253323   590A      4.263743   591A      4.272070  
     592A      4.277736   593A      4.287150   594A      4.288253  
     595A      4.305215   596A      4.324722   597A      4.334841  
     598A      4.337391   599A      4.358072   600A      4.369080  
     601A      4.377619   602A      4.388738   603A      4.397262  
     604A      4.407143   605A      4.420120   606A      4.428400  
     607A      4.443028   608A      4.449073   609A      4.458209  
     610A      4.471593   611A      4.493063   612A      4.510467  
     613A      4.524826   614A      4.529800   615A      4.560671  
     616A      4.561248   617A      4.577980   618A      4.587304  
     619A      4.599815   620A      4.608937   621A      4.630826  
     622A      4.647530   623A      4.654437   624A      4.667370  
     625A      4.672981   626A      4.681590   627A      4.689773  
     628A      4.702919   629A      4.723760   630A      4.729759  
     631A      4.734606   632A      4.749103   633A      4.758717  
     634A      4.765850   635A      4.773955   636A      4.786061  
     637A      4.798189   638A      4.813950   639A      4.822606  
     640A      4.825635   641A      4.833476   642A      4.852149  
     643A      4.855660   644A      4.869921   645A      4.879257  
     646A      4.886651   647A      4.904374   648A      4.910626  
     649A      4.917039   650A      4.930291   651A      4.945486  
     652A      4.960041   653A      4.964578   654A      4.973480  
     655A      4.985504   656A      4.999903   657A      5.008982  
     658A      5.031458   659A      5.044566   660A      5.058686  
     661A      5.067306   662A      5.079992   663A      5.086402  
     664A      5.093678   665A      5.133374   666A      5.143469  
     667A      5.153368   668A      5.162056   669A      5.169793  
     670A      5.181082   671A      5.197897   672A      5.207583  
     673A      5.225032   674A      5.244514   675A      5.245826  
     676A      5.257269   677A      5.265959   678A      5.272823  
     679A      5.281938   680A      5.286924   681A      5.308474  
     682A      5.321511   683A      5.325322   684A      5.337626  
     685A      5.349924   686A      5.355578   687A      5.375974  
     688A      5.376258   689A      5.396113   690A      5.402469  
     691A      5.408894   692A      5.414654   693A      5.420966  
     694A      5.431978   695A      5.441993   696A      5.450899  
     697A      5.465248   698A      5.472716   699A      5.485084  
     700A      5.492401   701A      5.496118   702A      5.522007  
     703A      5.539404   704A      5.554268   705A      5.581239  
     706A      5.588192   707A      5.597052   708A      5.607780  
     709A      5.614173   710A      5.624181   711A      5.637374  
     712A      5.647116   713A      5.664190   714A      5.668552  
     715A      5.671519   716A      5.703403   717A      5.705010  
     718A      5.723129   719A      5.724736   720A      5.736602  
     721A      5.751293   722A      5.775803   723A      5.798532  
     724A      5.815840   725A      5.836400   726A      5.845402  
     727A      5.862005   728A      5.877121   729A      5.882318  
     730A      5.905624   731A      5.920287   732A      5.944092  
     733A      5.958532   734A      5.984670   735A      6.001525  
     736A      6.028875   737A      6.034307   738A      6.041588  
     739A      6.086616   740A      6.129137   741A      6.136483  
     742A      6.140998   743A      6.168879   744A      6.186326  
     745A      6.207647   746A      6.223609   747A      6.239242  
     748A      6.257366   749A      6.269890   750A      6.271235  
     751A      6.304713   752A      6.314538   753A      6.328695  
     754A      6.341110   755A      6.362255   756A      6.371268  
     757A      6.414805   758A      6.423111   759A      6.531765  
     760A      6.588139   761A      6.641243   762A      6.671153  
     763A      6.718822   764A      6.754647   765A      6.772950  
     766A      6.847985   767A      6.852075   768A      6.871972  
     769A      6.910267   770A      6.930489   771A      7.001062  
     772A      7.039472   773A      7.058906   774A      7.148797  
     775A     17.875402   776A     17.999742   777A     18.152849  
     778A     18.430968   779A     18.561852   780A     18.780575  
     781A     19.280848   782A     19.724825  

    Final Occupation by Irrep:
              A 
    DOCC [    33 ]

  Energy converged.

  @DF-RHF Final Energy:  -313.54389282377628

   => Energetics <=

    Nuclear Repulsion Energy =            389.2525878804869421
    One-Electron Energy =               -1193.6476017815771229
    Two-Electron Energy =                 490.8511210773135645
    DFT Exchange-Correlation Energy =       0.0000000000000000
    Empirical Dispersion Energy =           0.0000000000000000
    PCM Polarization Energy =               0.0000000000000000
    EFP Energy =                            0.0000000000000000
    Total Energy =                       -313.5438928237765595


  Saving occupied orbitals to File 180.

*** tstop() called on wr40 at Tue Sep 20 22:41:51 2016
Module time:
	user time   =    1153.68 seconds =      19.23 minutes
	system time =      18.13 seconds =       0.30 minutes
	total time  =        109 seconds =       1.82 minutes
Total time:
	user time   =    1153.68 seconds =      19.23 minutes
	system time =      18.13 seconds =       0.30 minutes
	total time  =        109 seconds =       1.82 minutes


Properties will be evaluated at   0.000000,   0.000000,   0.000000 Bohr

Properties computed using the SCF density matrix

  Nuclear Dipole Moment: (a.u.)
     X:     0.8996      Y:     1.2904      Z:     0.5604

  Electronic Dipole Moment: (a.u.)
     X:    -0.9196      Y:    -1.3009      Z:    -0.5945

  Dipole Moment: (a.u.)
     X:    -0.0200      Y:    -0.0105      Z:    -0.0341     Total:     0.0409

  Dipole Moment: (Debye)
     X:    -0.0508      Y:    -0.0268      Z:    -0.0866     Total:     0.1039


  //>>>>>>>>>>>>>>>>>>>>>>>>>>>>>>>>>>>//
  //               DFMP2               //
  //<<<<<<<<<<<<<<<<<<<<<<<<<<<<<<<<<<<//


*** tstart() called on wr40
*** at Tue Sep 20 22:41:51 2016


*** tstop() called on wr40 at Tue Sep 20 22:41:51 2016
Module time:
	user time   =       4.36 seconds =       0.07 minutes
	system time =       0.22 seconds =       0.00 minutes
	total time  =          0 seconds =       0.00 minutes
Total time:
	user time   =    1158.25 seconds =      19.30 minutes
	system time =      18.35 seconds =       0.31 minutes
	total time  =        109 seconds =       1.82 minutes
	 --------------------------------------------------------
	                          DF-MP2                         
	      2nd-Order Density-Fitted Moller-Plesset Theory     
	              RMP2 Wavefunction,  12 Threads             
	                                                         
	        Rob Parrish, Justin Turney, Andy Simmonett,      
	           Ed Hohenstein, and C. David Sherrill          
	 --------------------------------------------------------

   => Auxiliary Basis Set <=

  Basis Set: 
    Number of shells: 476
    Number of basis function: 1676
    Number of Cartesian functions: 2078
    Spherical Harmonics?: true
    Max angular momentum: 4

	 --------------------------------------------------------
	                 NBF =   782, NAUX =  1676
	 --------------------------------------------------------
	   CLASS    FOCC     OCC    AOCC    AVIR     VIR    FVIR
	   PAIRS       8      33      25     749     749       0
	 --------------------------------------------------------

DGAS Warning! /src/lib/libfock/apps.cc:80 is not currently checking restricted

         ------------------------------------------------------------
                                     CPHF                           
                                  Rob Parrish                       
         ------------------------------------------------------------

  ==> Geometry <==

    Molecular point group: c1
    Full point group: C1

    Geometry (in Angstrom), charge = 0, multiplicity = 1:

       Center              X                  Y                   Z               Mass       
    ------------   -----------------  -----------------  -----------------  -----------------
           C          4.063925152115     0.348803629924     0.149747132870    12.000000000000
           H          4.825359721143     0.820378447302    -0.470968065909     1.007825032070
           H          4.380255260991    -0.675935027564     0.348337765918     1.007825032070
           H          4.033951191615     0.877159292045     1.103456505064     1.007825032070
           C         -2.911541730450     1.336577595485     0.518661678257    12.000000000000
           H         -3.404858320615     2.243272372534     0.169340134475     1.007825032070
           H         -1.941290103720     1.624261498854     0.923750677344     1.007825032070
           H         -3.504713060026     0.926013084806     1.337694039058     1.007825032070
           C          2.696541848732     0.370627350062    -0.522134703688    12.000000000000
           H          2.750301040687    -0.141938431978    -1.486295471240     1.007825032070
           H          2.406219153167     1.402738708046    -0.735875200326     1.007825032070
           C         -2.767648775241     0.318743725200    -0.607157475640    12.000000000000
           H         -3.745726550190     0.138464071132    -1.058582695564     1.007825032070
           H         -2.139504073143     0.733483131066    -1.398411270162     1.007825032070
           C          1.617846545187    -0.284227007490     0.331231572202    12.000000000000
           H          1.560293623475     0.229797098412     1.296397884577     1.007825032070
           H          1.906983604643    -1.317478633121     0.548821080326     1.007825032070
           C          0.243852478887    -0.272731078478    -0.326449697732    12.000000000000
           H          0.295725532698    -0.798983296854    -1.285709889921     1.007825032070
           H         -0.029888173373     0.761218009453    -0.555291098338     1.007825032070
           C         -0.829716094319    -0.915537595362     0.543471463257    12.000000000000
           H         -0.500929589106    -1.919942817709     0.825247805265     1.007825032070
           H         -0.919106285841    -0.353262858688     1.477008854609     1.007825032070
           C         -2.193855881258    -1.017856181621    -0.137577758050    12.000000000000
           H         -2.110353517483    -1.691214324943    -0.995470024523     1.007825032070
           H         -2.903071256688    -1.481606138839     0.554364505891     1.007825032070

  Nuclear repulsion =  389.252587880487056
  Reference energy  = -313.543892823776275

  ==> Basis Set <==

  Basis Set: AUG-CC-PVTZ
    Number of shells: 274
    Number of basis function: 782
    Number of Cartesian functions: 890
    Spherical Harmonics?: true
    Max angular momentum: 3

  ==> CGRSolver (by Rob Parrish) <==

   Number of roots    =         1
   Preconditioning    =    JACOBI
   Convergence cutoff =     1E-06
   Maximum iterations =       100

  ==> CPHFRHamiltonian (by Rob Parrish) <== 

  ==> DFJK: Density-Fitted J/K Matrices <==

    J tasked:                  Yes
    K tasked:                  Yes
    wK tasked:                  No
    OpenMP threads:             12
    Integrals threads:          12
    Memory (MB):             42915
    Algorithm:                Core
    Integral Cache:           NONE
    Schwarz Cutoff:          1E-12
    Fitting Condition:       1E-12

   => Auxiliary Basis Set <=

  Basis Set: 
    Number of shells: 492
    Number of basis function: 1660
    Number of Cartesian functions: 2038
    Spherical Harmonics?: true
    Max angular momentum: 4

  ==> CPHF Iterations <==

  => Iterations <=

             Iter  Converged  Remaining    Residual
  CGR           1          0          1   9.023E-02
  CGR           2          0          1   1.279E-02
  CGR           3          0          1   3.521E-03
  CGR           4          0          1   8.435E-04
  CGR           5          0          1   2.022E-04
  CGR           6          0          1   4.849E-05
  CGR           7          0          1   1.334E-05
  CGR           8          0          1   3.235E-06
  CGR           9          1          0   8.908E-07

    CGRSolver converged.

  ==> DFCorrGrad: Density-Fitted Correlated Gradients <==

    OpenMP threads:             12
    Integrals threads:          12
    Memory (MB):             42915
    Schwarz Cutoff:          0E+00
    Fitting Condition:       1E-12

   => Auxiliary Basis Set <=

  Basis Set: 
    Number of shells: 492
    Number of basis function: 1660
    Number of Cartesian functions: 2038
    Spherical Harmonics?: true
    Max angular momentum: 4

	-----------------------------------------------------------
	 ==================> DF-MP2 Energies <==================== 
	-----------------------------------------------------------
	 Reference Energy          =    -313.5438928237762752 [Eh]
	 Singles Energy            =      -0.0000000000000000 [Eh]
	 Same-Spin Energy          =      -0.3158417617384323 [Eh]
	 Opposite-Spin Energy      =      -1.1246221448813856 [Eh]
	 Correlation Energy        =      -1.4404639066198179 [Eh]
	 Total Energy              =    -314.9843567303960867 [Eh]
	-----------------------------------------------------------
	 ================> DF-SCS-MP2 Energies <================== 
	-----------------------------------------------------------
	 SCS Same-Spin Scale       =       0.3333333333333333 [-]
	 SCS Opposite-Spin Scale   =       1.2000000000000000 [-]
	 SCS Same-Spin Energy      =      -0.1052805872461441 [Eh]
	 SCS Opposite-Spin Energy  =      -1.3495465738576626 [Eh]
	 SCS Correlation Energy    =      -1.4548271611038068 [Eh]
	 SCS Total Energy          =    -314.9987199848800969 [Eh]
	-----------------------------------------------------------


  -Total Gradient:
     Atom            X                  Y                   Z
    ------   -----------------  -----------------  -----------------
       1        0.000000030356     0.000000007782    -0.000000018616
       2       -0.000000049214    -0.000000010227    -0.000000002518
       3        0.000000056302    -0.000000081634     0.000000036163
       4        0.000000023366     0.000000061801     0.000000088962
       5        0.000000085523     0.000000049008    -0.000000047798
       6        0.000000010041    -0.000000062465     0.000000005173
       7       -0.000000076812    -0.000000003662    -0.000000043748
       8       -0.000000026168    -0.000000012435     0.000000061900
       9       -0.000000062039     0.000000022257    -0.000000089494
      10        0.000000003839    -0.000000053079    -0.000000138998
      11       -0.000000054805     0.000000048840    -0.000000038442
      12       -0.000000057188    -0.000000048554     0.000000026870
      13       -0.000000058466    -0.000000000274    -0.000000045997
      14        0.000000024644     0.000000040420    -0.000000066435
      15       -0.000000178292    -0.000000069149     0.000000231809
      16       -0.000000049563     0.000000012147    -0.000000046312
      17       -0.000000050854     0.000000060311     0.000000040506
      18       -0.000000041270     0.000000206318    -0.000000072127
      19        0.000000010901     0.000000057751     0.000000055085
      20        0.000000067853    -0.000000139595     0.000000081217
      21        0.000000294623    -0.000000048203    -0.000000018766
      22       -0.000000043876    -0.000000010997     0.000000071790
      23        0.000000061310     0.000000026917    -0.000000024469
      24        0.000000186536     0.000000148153    -0.000000095170
      25       -0.000000041307    -0.000000087992    -0.000000126939
      26       -0.000000065437    -0.000000113439     0.000000176355


			-----------------------------------------
			 OPTKING 2.0: for geometry optimizations 
			  - R.A. King,  Bethel University        
			-----------------------------------------

	Internal coordinates to be generated automatically.
	Detected frag 1 with atoms:  1 2 3 4 5 6 7 8 9 10 11 12 13 14 15 16 17 18 19 20
	 21 22 23 24 25 26
	---Fragment 1 Bond Connectivity---
	 1 : 2 3 4 9
	 2 : 1
	 3 : 1
	 4 : 1
	 5 : 6 7 8 12
	 6 : 5
	 7 : 5
	 8 : 5
	 9 : 1 10 11 15
	 10 : 9
	 11 : 9
	 12 : 5 13 14 24
	 13 : 12
	 14 : 12
	 15 : 9 16 17 18
	 16 : 15
	 17 : 15
	 18 : 15 19 20 21
	 19 : 18
	 20 : 18
	 21 : 18 22 23 24
	 22 : 21
	 23 : 21
	 24 : 12 21 25 26
	 25 : 24
	 26 : 24

	---Fragment 1 Geometry and Gradient---
	 C           7.6797055620        0.6591433347        0.2829810703
	 H           9.1186083656        1.5502905907       -0.8900006619
	 H           8.2774828354       -1.2773320857        0.6582629793
	 H           7.6230629856        1.6575908369        2.0852305941
	 C          -5.5020164950        2.5257656108        0.9801285275
	 H          -6.4342497472        4.2391704256        0.3200064775
	 H          -3.6685066405        3.0694094010        1.7456357952
	 H          -6.6229478578        1.7499111258        2.5278753834
	 C           5.0957256000        0.7003841890       -0.9866915944
	 H           5.1973157499       -0.2682247642       -2.8086913932
	 H           4.5470952152        2.6507919942       -1.3906025966
	 C          -5.2300982172        0.6023383472       -1.1473613485
	 H          -7.0783973485        0.2616591737       -2.0004313836
	 H          -4.0430767584        1.3860822408       -2.6426143217
	 C           3.0572868954       -0.5371112037        0.6259369580
	 H           2.9485276353        0.4342535821        2.4498369611
	 H           3.6036767527       -2.4896738025        1.0371215378
	 C           0.4608144019       -0.5153870462       -0.6169005249
	 H           0.5588402673       -1.5098596158       -2.4296395783
	 H          -0.0564804623        1.4384935653       -1.0493480999
	 C          -1.5679361863       -1.7301153196        1.0270122266
	 H          -0.9466197353       -3.6281661163        1.5594923437
	 H          -1.7368591673       -0.6675700558        2.7911422311
	 C          -4.1457867906       -1.9234694259       -0.2599842847
	 H          -3.9879901916       -3.1959319062       -1.8811657198
	 H          -5.4860096194       -2.7998298392        1.0475970939
	             0.0000000304        0.0000000078       -0.0000000186
	            -0.0000000492       -0.0000000102       -0.0000000025
	             0.0000000563       -0.0000000816        0.0000000362
	             0.0000000234        0.0000000618        0.0000000890
	             0.0000000855        0.0000000490       -0.0000000478
	             0.0000000100       -0.0000000625        0.0000000052
	            -0.0000000768       -0.0000000037       -0.0000000437
	            -0.0000000262       -0.0000000124        0.0000000619
	            -0.0000000620        0.0000000223       -0.0000000895
	             0.0000000038       -0.0000000531       -0.0000001390
	            -0.0000000548        0.0000000488       -0.0000000384
	            -0.0000000572       -0.0000000486        0.0000000269
	            -0.0000000585       -0.0000000003       -0.0000000460
	             0.0000000246        0.0000000404       -0.0000000664
	            -0.0000001783       -0.0000000691        0.0000002318
	            -0.0000000496        0.0000000121       -0.0000000463
	            -0.0000000509        0.0000000603        0.0000000405
	            -0.0000000413        0.0000002063       -0.0000000721
	             0.0000000109        0.0000000578        0.0000000551
	             0.0000000679       -0.0000001396        0.0000000812
	             0.0000002946       -0.0000000482       -0.0000000188
	            -0.0000000439       -0.0000000110        0.0000000718
	             0.0000000613        0.0000000269       -0.0000000245
	             0.0000001865        0.0000001482       -0.0000000952
	            -0.0000000413       -0.0000000880       -0.0000001269
	            -0.0000000654       -0.0000001134        0.0000001764

	Previous optimization step data not found.  Starting new optimization.

	---Fragment 1 Intrafragment Coordinates---
	 - Coordinate -           - BOHR/RAD -       - ANG/DEG -
	 R(1,2)           =         2.059240	       1.089703
	 R(1,3)           =         2.061095	       1.090684
	 R(1,4)           =         2.061118	       1.090697
	 R(1,9)           =         2.879361	       1.523692
	 R(5,6)           =         2.059266	       1.089717
	 R(5,7)           =         2.059929	       1.090068
	 R(5,8)           =         2.062512	       1.091435
	 R(5,12)          =         2.880924	       1.524520
	 R(9,10)          =         2.065964	       1.093261
	 R(9,11)          =         2.065970	       1.093264
	 R(9,15)          =         2.878749	       1.523369
	 R(12,13)         =         2.063977	       1.092210
	 R(12,14)         =         2.063748	       1.092088
	 R(12,24)         =         2.888403	       1.528477
	 R(15,16)         =         2.069297	       1.095025
	 R(15,17)         =         2.068844	       1.094785
	 R(15,18)         =         2.878678	       1.523331
	 R(18,19)         =         2.069929	       1.095359
	 R(18,20)         =         2.066943	       1.093779
	 R(18,21)         =         2.879903	       1.523979
	 R(21,22)         =         2.066922	       1.093768
	 R(21,23)         =         2.066323	       1.093451
	 R(21,24)         =         2.887743	       1.528128
	 R(24,25)         =         2.066952	       1.093784
	 R(24,26)         =         2.067359	       1.093999
	 B(1,9,10)        =         1.915631	     109.757569
	 B(1,9,11)        =         1.915636	     109.757831
	 B(1,9,15)        =         1.963063	     112.475248
	 B(2,1,3)         =         1.883515	     107.917447
	 B(2,1,4)         =         1.883512	     107.917304
	 B(2,1,9)         =         1.949479	     111.696912
	 B(3,1,4)         =         1.879570	     107.691448
	 B(3,1,9)         =         1.932664	     110.733514
	 B(4,1,9)         =         1.932612	     110.730532
	 B(5,12,13)       =         1.908053	     109.323395
	 B(5,12,14)       =         1.913239	     109.620522
	 B(5,12,24)       =         1.974023	     113.103160
	 B(6,5,7)         =         1.878090	     107.606655
	 B(6,5,8)         =         1.883374	     107.909374
	 B(6,5,12)        =         1.940685	     111.193037
	 B(7,5,8)         =         1.879841	     107.706962
	 B(7,5,12)        =         1.946169	     111.507283
	 B(8,5,12)        =         1.932978	     110.751453
	 B(9,15,16)       =         1.906230	     109.218930
	 B(9,15,17)       =         1.907139	     109.270992
	 B(9,15,18)       =         1.975324	     113.177719
	 B(10,9,11)       =         1.857982	     106.454540
	 B(10,9,15)       =         1.904252	     109.105626
	 B(11,9,15)       =         1.904249	     109.105415
	 B(12,24,21)      =         1.997075	     114.423977
	 B(12,24,25)      =         1.902904	     109.028352
	 B(12,24,26)      =         1.898255	     108.761994
	 B(13,12,14)      =         1.852819	     106.158682
	 B(13,12,24)      =         1.895273	     108.591172
	 B(14,12,24)      =         1.916397	     109.801464
	 B(15,18,19)      =         1.908960	     109.375324
	 B(15,18,20)      =         1.899904	     108.856454
	 B(15,18,21)      =         1.966830	     112.691067
	 B(16,15,17)      =         1.856397	     106.363694
	 B(16,15,18)      =         1.906666	     109.243935
	 B(17,15,18)      =         1.908312	     109.338225
	 B(18,21,22)      =         1.899304	     108.822095
	 B(18,21,23)      =         1.905019	     109.149554
	 B(18,21,24)      =         1.985255	     113.746747
	 B(19,18,20)      =         1.857493	     106.426486
	 B(19,18,21)      =         1.907748	     109.305904
	 B(20,18,21)      =         1.919678	     109.989449
	 B(21,24,25)      =         1.899302	     108.821974
	 B(21,24,26)      =         1.902027	     108.978147
	 B(22,21,23)      =         1.851298	     106.071576
	 B(22,21,24)      =         1.898289	     108.763958
	 B(23,21,24)      =         1.919787	     109.995714
	 B(25,24,26)      =         1.859395	     106.535503
	 D(1,9,15,16)     =         1.014675	      58.136608
	 D(1,9,15,17)     =        -1.009443	     -57.836834
	 D(1,9,15,18)     =        -3.140361	    -179.929403
	 D(2,1,9,10)      =         1.018478	      58.354510
	 D(2,1,9,11)      =        -1.017757	     -58.313188
	 D(2,1,9,15)      =        -3.141231	    -179.979298
	 D(3,1,9,10)      =        -1.081291	     -61.953414
	 D(3,1,9,11)      =        -3.117527	    -178.621112
	 D(3,1,9,15)      =         1.042185	      59.712778
	 D(4,1,9,10)      =         3.118209	     178.660218
	 D(4,1,9,11)      =         1.081974	      61.992520
	 D(4,1,9,15)      =        -1.041501	     -59.673590
	 D(5,12,24,21)    =        -1.000969	     -57.351324
	 D(5,12,24,25)    =        -3.132064	    -179.454020
	 D(5,12,24,26)    =         1.130168	      64.753858
	 D(6,5,12,13)     =        -0.938234	     -53.756828
	 D(6,5,12,14)     =         1.086041	      62.225551
	 D(6,5,12,24)     =        -3.052247	    -174.880865
	 D(7,5,12,13)     =        -3.034352	    -173.855549
	 D(7,5,12,14)     =        -1.010077	     -57.873171
	 D(7,5,12,24)     =         1.134820	      65.020413
	 D(8,5,12,13)     =         1.155712	      66.217399
	 D(8,5,12,14)     =        -3.103199	    -177.800223
	 D(8,5,12,24)     =        -0.958302	     -54.906639
	 D(9,15,18,19)    =         1.027716	      58.883814
	 D(9,15,18,20)    =        -0.995193	     -57.020370
	 D(9,15,18,21)    =        -3.129718	    -179.319633
	 D(10,9,15,16)    =        -3.138573	    -179.827002
	 D(10,9,15,17)    =         1.120494	      64.199556
	 D(10,9,15,18)    =        -1.010424	     -57.893013
	 D(11,9,15,16)    =        -1.115265	     -63.899967
	 D(11,9,15,17)    =        -3.139383	    -179.873409
	 D(11,9,15,18)    =         1.012885	      58.034022
	 D(12,24,21,18)   =        -1.005736	     -57.624436
	 D(12,24,21,22)   =        -3.125396	    -179.071992
	 D(12,24,21,23)   =         1.137228	      65.158345
	 D(13,12,24,21)   =        -3.122194	    -178.888535
	 D(13,12,24,25)   =         1.029897	      59.008769
	 D(13,12,24,26)   =        -0.991056	     -56.783353
	 D(14,12,24,21)   =         1.142176	      65.441838
	 D(14,12,24,25)   =        -0.988919	     -56.660859
	 D(14,12,24,26)   =        -3.009872	    -172.452981
	 D(15,18,21,22)   =        -0.941835	     -53.963189
	 D(15,18,21,23)   =         1.071210	      61.375825
	 D(15,18,21,24)   =        -3.060930	    -175.378374
	 D(16,15,18,19)   =        -3.127564	    -179.196197
	 D(16,15,18,20)   =         1.132712	      64.899620
	 D(16,15,18,21)   =        -1.001813	     -57.399644
	 D(17,15,18,19)   =        -1.102545	     -63.171174
	 D(17,15,18,20)   =        -3.125455	    -179.075358
	 D(17,15,18,21)   =         1.023206	      58.625378
	 D(18,21,24,25)   =         1.127322	      64.590805
	 D(18,21,24,26)   =        -3.134814	    -179.611596
	 D(19,18,21,22)   =         1.184601	      67.872637
	 D(19,18,21,23)   =        -3.085539	    -176.788349
	 D(19,18,21,24)   =        -0.934494	     -53.542548
	 D(20,18,21,22)   =        -3.065192	    -175.622590
	 D(20,18,21,23)   =        -1.052147	     -60.283576
	 D(20,18,21,24)   =         1.098898	      62.962225
	 D(22,21,24,25)   =        -0.992338	     -56.856751
	 D(22,21,24,26)   =         1.028712	      58.940847
	 D(23,21,24,25)   =        -3.012899	    -172.626414
	 D(23,21,24,26)   =        -0.991850	     -56.828815
	 R(5,18)          =         6.881458	       3.641511

	Current energy   :      -314.9843567304

	Generating empirical Hessian (Schlegel '84) for each fragment.
	Taking RFO optimization step.
	Going to follow RFO solution 1.
	Using RFO vector 1.
	Norm of target step-size    0.00009
	Projected energy change by RFO approximation:         0.0000000000

	Back-transformation to cartesian coordinates...
	Successfully converged to displaced geometry.

	--- Internal Coordinate Step in ANG or DEG, aJ/ANG or AJ/DEG ---
	 ---------------------------------------------------------------------------
	   Coordinate                Previous        Force       Change         New 
	   ----------                --------       ------       ------       ------
	    1 R(1,2)          =      1.089703     0.000000     0.000000     1.089703
	    2 R(1,3)          =      1.090684    -0.000001    -0.000000     1.090684
	    3 R(1,4)          =      1.090697    -0.000001    -0.000000     1.090697
	    4 R(1,9)          =      1.523692    -0.000001    -0.000000     1.523692
	    5 R(5,6)          =      1.089717     0.000000     0.000000     1.089717
	    6 R(5,7)          =      1.090068     0.000001     0.000000     1.090068
	    7 R(5,8)          =      1.091435    -0.000001    -0.000000     1.091434
	    8 R(5,12)         =      1.524520     0.000000     0.000000     1.524520
	    9 R(9,10)         =      1.093261    -0.000001    -0.000000     1.093261
	   10 R(9,11)         =      1.093264    -0.000001    -0.000000     1.093264
	   11 R(9,15)         =      1.523369    -0.000000    -0.000000     1.523369
	   12 R(12,13)        =      1.092210    -0.000001    -0.000000     1.092209
	   13 R(12,14)        =      1.092088    -0.000001    -0.000000     1.092088
	   14 R(12,24)        =      1.528477    -0.000000    -0.000000     1.528477
	   15 R(15,16)        =      1.095025     0.000000     0.000000     1.095025
	   16 R(15,17)        =      1.094785     0.000000     0.000000     1.094785
	   17 R(15,18)        =      1.523331     0.000002     0.000000     1.523331
	   18 R(18,19)        =      1.095359     0.000001     0.000000     1.095360
	   19 R(18,20)        =      1.093779     0.000001     0.000000     1.093780
	   20 R(18,21)        =      1.523979     0.000002     0.000000     1.523980
	   21 R(21,22)        =      1.093768    -0.000000    -0.000000     1.093768
	   22 R(21,23)        =      1.093451     0.000000     0.000000     1.093451
	   23 R(21,24)        =      1.528128    -0.000000    -0.000000     1.528128
	   24 R(24,25)        =      1.093784    -0.000001    -0.000000     1.093784
	   25 R(24,26)        =      1.093999    -0.000002    -0.000000     1.093999
	   26 B(1,9,10)       =    109.757569    -0.000000     0.000005   109.757574
	   27 B(1,9,11)       =    109.757831    -0.000000    -0.000036   109.757795
	   28 B(1,9,15)       =    112.475248     0.000000     0.000023   112.475271
	   29 B(2,1,3)        =    107.917447     0.000000     0.000006   107.917453
	   30 B(2,1,4)        =    107.917304    -0.000000     0.000001   107.917305
	   31 B(2,1,9)        =    111.696912     0.000000     0.000025   111.696937
	   32 B(3,1,4)        =    107.691448     0.000000     0.000003   107.691450
	   33 B(3,1,9)        =    110.733514    -0.000000    -0.000014   110.733500
	   34 B(4,1,9)        =    110.730532    -0.000000    -0.000020   110.730511
	   35 B(5,12,13)      =    109.323395    -0.000000    -0.000005   109.323389
	   36 B(5,12,14)      =    109.620522     0.000000     0.000013   109.620535
	   37 B(5,12,24)      =    113.103160     0.000000     0.000017   113.103177
	   38 B(6,5,7)        =    107.606655     0.000000     0.000005   107.606660
	   39 B(6,5,8)        =    107.909374     0.000000     0.000003   107.909377
	   40 B(6,5,12)       =    111.193037     0.000000     0.000005   111.193041
	   41 B(7,5,8)        =    107.706962     0.000000     0.000004   107.706966
	   42 B(7,5,12)       =    111.507283    -0.000000    -0.000002   111.507280
	   43 B(8,5,12)       =    110.751453    -0.000000    -0.000014   110.751439
	   44 B(9,15,16)      =    109.218930    -0.000000    -0.000069   109.218861
	   45 B(9,15,17)      =    109.270992    -0.000000     0.000013   109.271005
	   46 B(9,15,18)      =    113.177719     0.000000     0.000045   113.177764
	   47 B(10,9,11)      =    106.454540     0.000000     0.000009   106.454549
	   48 B(10,9,15)      =    109.105626    -0.000000     0.000000   109.105626
	   49 B(11,9,15)      =    109.105415    -0.000000    -0.000002   109.105413
	   50 B(12,24,21)     =    114.423977    -0.000000    -0.000032   114.423945
	   51 B(12,24,25)     =    109.028352     0.000000    -0.000002   109.028350
	   52 B(12,24,26)     =    108.761994    -0.000000     0.000010   108.762004
	   53 B(13,12,14)     =    106.158682     0.000000     0.000008   106.158691
	   54 B(13,12,24)     =    108.591172    -0.000000    -0.000013   108.591159
	   55 B(14,12,24)     =    109.801464    -0.000000    -0.000021   109.801444
	   56 B(15,18,19)     =    109.375324    -0.000000     0.000005   109.375329
	   57 B(15,18,20)     =    108.856454    -0.000000    -0.000022   108.856432
	   58 B(15,18,21)     =    112.691067     0.000000     0.000092   112.691159
	   59 B(16,15,17)     =    106.363694     0.000000    -0.000007   106.363687
	   60 B(16,15,18)     =    109.243935    -0.000000    -0.000010   109.243925
	   61 B(17,15,18)     =    109.338225    -0.000000     0.000025   109.338249
	   62 B(18,21,22)     =    108.822095    -0.000000    -0.000026   108.822069
	   63 B(18,21,23)     =    109.149554     0.000000     0.000033   109.149587
	   64 B(18,21,24)     =    113.746747    -0.000000    -0.000019   113.746728
	   65 B(19,18,20)     =    106.426486     0.000000    -0.000025   106.426461
	   66 B(19,18,21)     =    109.305904    -0.000000     0.000011   109.305915
	   67 B(20,18,21)     =    109.989449    -0.000000    -0.000067   109.989382
	   68 B(21,24,25)     =    108.821974    -0.000000    -0.000051   108.821923
	   69 B(21,24,26)     =    108.978147     0.000000     0.000071   108.978219
	   70 B(22,21,23)     =    106.071576     0.000000     0.000016   106.071592
	   71 B(22,21,24)     =    108.763958     0.000000     0.000020   108.763978
	   72 B(23,21,24)     =    109.995714    -0.000000    -0.000022   109.995692
	   73 B(25,24,26)     =    106.535503    -0.000000     0.000007   106.535510
	   74 D(1,9,15,16)    =     58.136608    -0.000000    -0.000291    58.136317
	   75 D(1,9,15,17)    =    -57.836834     0.000000    -0.000252   -57.837085
	   76 D(1,9,15,18)    =   -179.929403    -0.000000    -0.000324  -179.929727
	   77 D(2,1,9,10)     =     58.354510    -0.000000     0.000052    58.354562
	   78 D(2,1,9,11)     =    -58.313188     0.000000     0.000060   -58.313129
	   79 D(2,1,9,15)     =   -179.979298     0.000000     0.000072  -179.979226
	   80 D(3,1,9,10)     =    -61.953414    -0.000000     0.000037   -61.953377
	   81 D(3,1,9,11)     =   -178.621112    -0.000000     0.000044  -178.621068
	   82 D(3,1,9,15)     =     59.712778    -0.000000     0.000057    59.712835
	   83 D(4,1,9,10)     =    178.660218     0.000000     0.000056   178.660274
	   84 D(4,1,9,11)     =     61.992520     0.000000     0.000063    61.992583
	   85 D(4,1,9,15)     =    -59.673590     0.000000     0.000075   -59.673514
	   86 D(5,12,24,21)   =    -57.351324    -0.000000    -0.000473   -57.351797
	   87 D(5,12,24,25)   =   -179.454020     0.000000    -0.000383  -179.454403
	   88 D(5,12,24,26)   =     64.753858     0.000000    -0.000396    64.753462
	   89 D(6,5,12,13)    =    -53.756828    -0.000000    -0.000296   -53.757124
	   90 D(6,5,12,14)    =     62.225551     0.000000    -0.000282    62.225269
	   91 D(6,5,12,24)    =   -174.880865    -0.000000    -0.000287  -174.881152
	   92 D(7,5,12,13)    =   -173.855549    -0.000000    -0.000304  -173.855853
	   93 D(7,5,12,14)    =    -57.873171    -0.000000    -0.000290   -57.873460
	   94 D(7,5,12,24)    =     65.020413    -0.000000    -0.000295    65.020119
	   95 D(8,5,12,13)    =     66.217399    -0.000000    -0.000298    66.217100
	   96 D(8,5,12,14)    =   -177.800223     0.000000    -0.000284  -177.800507
	   97 D(8,5,12,24)    =    -54.906639    -0.000000    -0.000289   -54.906928
	   98 D(9,15,18,19)   =     58.883814     0.000000     0.001441    58.885255
	   99 D(9,15,18,20)   =    -57.020370     0.000000     0.001481   -57.018889
	  100 D(9,15,18,21)   =   -179.319633     0.000000     0.001521  -179.318113
	  101 D(10,9,15,16)   =   -179.827002    -0.000000    -0.000269  -179.827271
	  102 D(10,9,15,17)   =     64.199556     0.000000    -0.000230    64.199327
	  103 D(10,9,15,18)   =    -57.893013    -0.000000    -0.000302   -57.893315
	  104 D(11,9,15,16)   =    -63.899967    -0.000000    -0.000260   -63.900227
	  105 D(11,9,15,17)   =   -179.873409     0.000000    -0.000220  -179.873629
	  106 D(11,9,15,18)   =     58.034022    -0.000000    -0.000292    58.033730
	  107 D(12,24,21,18)  =    -57.624436    -0.000000     0.000504   -57.623932
	  108 D(12,24,21,22)  =   -179.071992     0.000000     0.000535  -179.071457
	  109 D(12,24,21,23)  =     65.158345     0.000000     0.000516    65.158862
	  110 D(13,12,24,21)  =   -178.888535    -0.000000    -0.000468  -178.889003
	  111 D(13,12,24,25)  =     59.008769     0.000000    -0.000378    59.008391
	  112 D(13,12,24,26)  =    -56.783353     0.000000    -0.000391   -56.783744
	  113 D(14,12,24,21)  =     65.441838    -0.000000    -0.000460    65.441378
	  114 D(14,12,24,25)  =    -56.660859     0.000000    -0.000369   -56.661228
	  115 D(14,12,24,26)  =   -172.452981     0.000000    -0.000382  -172.453363
	  116 D(15,18,21,22)  =    -53.963189    -0.000000    -0.000370   -53.963559
	  117 D(15,18,21,23)  =     61.375825    -0.000000    -0.000348    61.375477
	  118 D(15,18,21,24)  =   -175.378374    -0.000000    -0.000365  -175.378739
	  119 D(16,15,18,19)  =   -179.196197    -0.000000     0.001376  -179.194820
	  120 D(16,15,18,20)  =     64.899620     0.000000     0.001416    64.901035
	  121 D(16,15,18,21)  =    -57.399644     0.000000     0.001455   -57.398189
	  122 D(17,15,18,19)  =    -63.171174    -0.000000     0.001376   -63.169798
	  123 D(17,15,18,20)  =   -179.075358     0.000000     0.001415  -179.073943
	  124 D(17,15,18,21)  =     58.625378     0.000000     0.001455    58.626833
	  125 D(18,21,24,25)  =     64.590805    -0.000000     0.000440    64.591245
	  126 D(18,21,24,26)  =   -179.611596    -0.000000     0.000460  -179.611137
	  127 D(19,18,21,22)  =     67.872637     0.000000    -0.000294    67.872343
	  128 D(19,18,21,23)  =   -176.788349     0.000000    -0.000272  -176.788621
	  129 D(19,18,21,24)  =    -53.542548     0.000000    -0.000289   -53.542837
	  130 D(20,18,21,22)  =   -175.622590    -0.000000    -0.000357  -175.622947
	  131 D(20,18,21,23)  =    -60.283576    -0.000000    -0.000335   -60.283910
	  132 D(20,18,21,24)  =     62.962225    -0.000000    -0.000352    62.961873
	  133 D(22,21,24,25)  =    -56.856751     0.000000     0.000471   -56.856280
	  134 D(22,21,24,26)  =     58.940847     0.000000     0.000491    58.941338
	  135 D(23,21,24,25)  =   -172.626414     0.000000     0.000453  -172.625961
	  136 D(23,21,24,26)  =    -56.828815     0.000000     0.000473   -56.828343
	  137 R(5,18)         =      3.641511    -0.000000    -0.000001     3.641510
	 ---------------------------------------------------------------------------

  ==> Convergence Check <==

  Measures of convergence in internal coordinates in au.
  Criteria marked as inactive (o), active & met (*), and active & unmet ( ).
  --------------------------------------------------------------------------------------------- ~
   Step     Total Energy     Delta E     MAX Force     RMS Force      MAX Disp      RMS Disp    ~
  --------------------------------------------------------------------------------------------- ~
    Convergence Criteria             o    2.00e-06 *    1.00e-06 *    6.00e-06 *    4.00e-06 *  ~
  --------------------------------------------------------------------------------------------- ~
      1    -314.98435673   -3.15e+02 o    3.10e-07 *    6.94e-08 *    2.65e-05      7.42e-06    ~
  ---------------------------------------------------------------------------------------------

	Writing optimization data to binary file.
	Structure for next step:
	Cartesian Geometry (in Angstrom)
	    C     4.0639187018   0.3488185160   0.1497491074
	    H     4.8253475728   0.8204121857  -0.4709588696
	    H     4.3802612977  -0.6759191042   0.3483242687
	    H     4.0339379974   0.8771593328   1.1034663167
	    C    -2.9115293911   1.3365873535   0.5186550368
	    H    -3.4048322677   2.2432864718   0.1693251170
	    H    -1.9412769429   1.6242612992   0.9237494542
	    H    -3.5047116306   0.9260345026   1.3376852013
	    C     2.6965351091   0.3706352777  -0.5221319512
	    H     2.7503001293  -0.1419159399  -1.4862998761
	    H     2.4062005159   1.4027462940  -0.7358574344
	    C    -2.7676411178   0.3187455627  -0.6071575666
	    H    -3.7457187557   0.1384717459  -1.0585851639
	    H    -2.1394898529   0.7334745096  -1.3984114642
	    C     1.6178475126  -0.2842437852   0.3312250134
	    H     1.5602930032   0.2297635916   1.2964002075
	    H     1.9069944276  -1.3174965652   0.5487963849
	    C     0.2438508954  -0.2727483875  -0.3264520469
	    H     0.2957197385  -0.7990053216  -1.2857100112
	    H    -0.0298879353   0.7612004362  -0.5552980244
	    C    -0.8297184300  -0.9155467355   0.5434750281
	    H    -0.5009371032  -1.9199537983   0.8252507686
	    H    -0.9191012345  -0.3532704447   1.4770122214
	    C    -2.1938617243  -1.0178566581  -0.1375682568
	    H    -2.1103685822  -1.6912225236  -0.9954550653
	    H    -2.9030801910  -1.4815931939   0.5543793526
			--------------------------
			 OPTKING Finished Execution 
			--------------------------

    Structure for next step:
    Molecular point group: c1
    Full point group: C1

    Geometry (in Angstrom), charge = 0, multiplicity = 1:

    C            4.063918893253     0.348819411033     0.149748900096
    H            4.825347764201     0.820413080749    -0.470959076952
    H            4.380261489138    -0.675918209135     0.348324061398
    H            4.033938188848     0.877160227806     1.103466109393
    C           -2.911529199688     1.336588248519     0.518654829458
    H           -3.404832076281     2.243287366870     0.169324909661
    H           -1.941276751445     1.624262194259     0.923749246903
    H           -3.504711439180     0.926035397648     1.337684993971
    C            2.696535300519     0.370636172770    -0.522132158508
    H            2.750300320742    -0.141915044896    -1.486300083416
    H            2.406200707312     1.402747189020    -0.735857641733
    C           -2.767640926319     0.318746457772    -0.607157773916
    H           -3.745718564257     0.138472640920    -1.058585371179
    H           -2.139489661419     0.733475404669    -1.398411671528
    C            1.617847704052    -0.284242890123     0.331224806099
    H            1.560293194624     0.229764486692     1.296400000210
    H            1.906994619013    -1.317495670165     0.548796177580
    C            0.243851086862    -0.272747492431    -0.326452254251
    H            0.295719929902    -0.799004426533    -1.285710218504
    H           -0.029887743883     0.761201331288    -0.555298231738
    C           -0.829718238588    -0.915545840408     0.543474820797
    H           -0.500936911744    -1.919952903213     0.825250561233
    H           -0.919101043051    -0.353269549648     1.477012014078
    C           -2.193861532816    -1.017855763053    -0.137568464090
    H           -2.110368390735    -1.691221628567    -0.995455272629
    H           -2.903079999530    -1.481592298884     0.554379145323

gradient() will perform analytic gradient computation.

*** tstart() called on wr40
*** at Tue Sep 20 22:48:23 2016


         ---------------------------------------------------------
                                   SCF
            by Justin Turney, Rob Parrish, and Andy Simmonett
                              RHF Reference
                       12 Threads,  60000 MiB Core
         ---------------------------------------------------------

  ==> Geometry <==

    Molecular point group: c1
    Full point group: C1

    Geometry (in Angstrom), charge = 0, multiplicity = 1:

       Center              X                  Y                   Z               Mass       
    ------------   -----------------  -----------------  -----------------  -----------------
           C          4.063918893253     0.348819411033     0.149748900096    12.000000000000
           H          4.825347764201     0.820413080749    -0.470959076952     1.007825032070
           H          4.380261489138    -0.675918209135     0.348324061398     1.007825032070
           H          4.033938188848     0.877160227806     1.103466109393     1.007825032070
           C         -2.911529199688     1.336588248519     0.518654829458    12.000000000000
           H         -3.404832076281     2.243287366870     0.169324909661     1.007825032070
           H         -1.941276751445     1.624262194259     0.923749246903     1.007825032070
           H         -3.504711439180     0.926035397648     1.337684993971     1.007825032070
           C          2.696535300519     0.370636172770    -0.522132158508    12.000000000000
           H          2.750300320742    -0.141915044896    -1.486300083416     1.007825032070
           H          2.406200707312     1.402747189020    -0.735857641733     1.007825032070
           C         -2.767640926319     0.318746457772    -0.607157773916    12.000000000000
           H         -3.745718564257     0.138472640920    -1.058585371179     1.007825032070
           H         -2.139489661419     0.733475404669    -1.398411671528     1.007825032070
           C          1.617847704052    -0.284242890123     0.331224806099    12.000000000000
           H          1.560293194624     0.229764486692     1.296400000210     1.007825032070
           H          1.906994619013    -1.317495670165     0.548796177580     1.007825032070
           C          0.243851086862    -0.272747492431    -0.326452254251    12.000000000000
           H          0.295719929902    -0.799004426533    -1.285710218504     1.007825032070
           H         -0.029887743883     0.761201331288    -0.555298231738     1.007825032070
           C         -0.829718238588    -0.915545840408     0.543474820797    12.000000000000
           H         -0.500936911744    -1.919952903213     0.825250561233     1.007825032070
           H         -0.919101043051    -0.353269549648     1.477012014078     1.007825032070
           C         -2.193861532816    -1.017855763053    -0.137568464090    12.000000000000
           H         -2.110368390735    -1.691221628567    -0.995455272629     1.007825032070
           H         -2.903079999530    -1.481592298884     0.554379145323     1.007825032070

  Running in c1 symmetry.

  Rotational constants: A =      0.15188  B =      0.02240  C =      0.02129 [cm^-1]
  Rotational constants: A =   4553.38855  B =    671.46202  C =    638.11525 [MHz]
  Nuclear repulsion =  389.252642359666311

  Charge       = 0
  Multiplicity = 1
  Electrons    = 66
  Nalpha       = 33
  Nbeta        = 33

  ==> Algorithm <==

  SCF Algorithm Type is DF.
  DIIS enabled.
  MOM disabled.
  Fractional occupation disabled.
  Guess Type is READ.
  Energy threshold   = 1.00e-10
  Density threshold  = 1.00e-10
  Integral threshold = 0.00e+00

  ==> Primary Basis <==

  Basis Set: AUG-CC-PVTZ
    Number of shells: 274
    Number of basis function: 782
    Number of Cartesian functions: 890
    Spherical Harmonics?: true
    Max angular momentum: 3

  ==> Pre-Iterations <==

   -------------------------------------------------------
    Irrep   Nso     Nmo     Nalpha   Nbeta   Ndocc  Nsocc
   -------------------------------------------------------
     A        782     782       0       0       0       0
   -------------------------------------------------------
    Total     782     782      33      33      33       0
   -------------------------------------------------------

  ==> Integral Setup <==

  ==> DFJK: Density-Fitted J/K Matrices <==

    J tasked:                  Yes
    K tasked:                  Yes
    wK tasked:                  No
    OpenMP threads:             12
    Integrals threads:          12
    Memory (MB):             42915
    Algorithm:                Core
    Integral Cache:           NONE
    Schwarz Cutoff:          1E-12
    Fitting Condition:       1E-12

   => Auxiliary Basis Set <=

  Basis Set: 
    Number of shells: 492
    Number of basis function: 1660
    Number of Cartesian functions: 2038
    Spherical Harmonics?: true
    Max angular momentum: 4

  Minimum eigenvalue in the overlap matrix is 2.6339221582E-06.
  Using Symmetric Orthogonalization.
  SCF Guess: Reading in previously saved MOs, projecting if necessary.

  Using orbitals from previous SCF, no projection.
  Recomputing DOCC and SOCC from number of alpha and beta electrons from previous calculation.
              A 
    DOCC [    33 ]

  ==> Iterations <==

                           Total Energy        Delta E     RMS |[F,P]|

   @DF-RHF iter   0:  -313.54389336683323   -3.13544e+02   5.09789e-08 
   @DF-RHF iter   1:  -313.54389281923591    5.47597e-07   1.04326e-08 
   @DF-RHF iter   2:  -313.54389281930878   -7.28733e-11   3.72953e-09 DIIS
   @DF-RHF iter   3:  -313.54389281931969   -1.09139e-11   9.63019e-10 DIIS
   @DF-RHF iter   4:  -313.54389281932072   -1.02318e-12   2.12749e-10 DIIS
   @DF-RHF iter   5:  -313.54389281931992    7.95808e-13   4.38187e-11 DIIS

  ==> Post-Iterations <==

    Orbital Energies (a.u.)
    -----------------------

    Doubly Occupied:                                                      

       1A    -11.212553     2A    -11.211965     3A    -11.210623  
       4A    -11.210299     5A    -11.209704     6A    -11.209130  
       7A    -11.207119     8A    -11.206958     9A     -1.094429  
      10A     -1.061542    11A     -1.008364    12A     -0.948665  
      13A     -0.883038    14A     -0.828688    15A     -0.788214  
      16A     -0.755966    17A     -0.653984    18A     -0.627095  
      19A     -0.619675    20A     -0.582206    21A     -0.573408  
      22A     -0.568024    23A     -0.537083    24A     -0.527660  
      25A     -0.520472    26A     -0.504008    27A     -0.483706  
      28A     -0.473740    29A     -0.468982    30A     -0.460195  
      31A     -0.450574    32A     -0.443790    33A     -0.430823  

    Virtual:                                                              

      34A      0.029599    35A      0.031967    36A      0.034061  
      37A      0.035298    38A      0.045914    39A      0.047302  
      40A      0.048086    41A      0.053969    42A      0.057752  
      43A      0.066873    44A      0.067250    45A      0.069432  
      46A      0.070737    47A      0.084860    48A      0.089521  
      49A      0.092565    50A      0.097199    51A      0.103897  
      52A      0.106852    53A      0.112769    54A      0.114809  
      55A      0.123284    56A      0.124931    57A      0.127896  
      58A      0.132733    59A      0.133462    60A      0.141603  
      61A      0.143655    62A      0.150097    63A      0.154133  
      64A      0.159477    65A      0.162018    66A      0.163230  
      67A      0.164873    68A      0.169297    69A      0.171035  
      70A      0.175176    71A      0.182051    72A      0.187929  
      73A      0.192513    74A      0.193129    75A      0.199333  
      76A      0.207446    77A      0.220549    78A      0.222207  
      79A      0.225321    80A      0.238232    81A      0.242587  
      82A      0.248936    83A      0.252655    84A      0.254565  
      85A      0.261451    86A      0.268362    87A      0.272991  
      88A      0.278628    89A      0.282525    90A      0.287579  
      91A      0.297752    92A      0.300936    93A      0.305736  
      94A      0.306511    95A      0.315451    96A      0.318730  
      97A      0.320986    98A      0.325494    99A      0.330164  
     100A      0.337301   101A      0.338559   102A      0.342649  
     103A      0.350346   104A      0.353495   105A      0.356244  
     106A      0.358316   107A      0.363322   108A      0.364039  
     109A      0.365992   110A      0.370398   111A      0.376715  
     112A      0.382330   113A      0.386299   114A      0.387488  
     115A      0.392230   116A      0.398387   117A      0.400898  
     118A      0.405008   119A      0.406341   120A      0.408086  
     121A      0.411709   122A      0.413482   123A      0.420998  
     124A      0.424338   125A      0.429433   126A      0.431190  
     127A      0.436742   128A      0.439710   129A      0.443577  
     130A      0.444766   131A      0.453878   132A      0.457681  
     133A      0.459820   134A      0.462135   135A      0.467510  
     136A      0.471332   137A      0.473107   138A      0.477494  
     139A      0.479602   140A      0.480880   141A      0.487943  
     142A      0.491983   143A      0.495316   144A      0.505518  
     145A      0.506785   146A      0.509284   147A      0.513340  
     148A      0.515677   149A      0.519621   150A      0.521316  
     151A      0.526786   152A      0.531459   153A      0.533885  
     154A      0.538515   155A      0.538856   156A      0.545241  
     157A      0.550233   158A      0.551934   159A      0.560573  
     160A      0.568130   161A      0.569059   162A      0.571742  
     163A      0.574323   164A      0.581211   165A      0.586865  
     166A      0.589379   167A      0.593425   168A      0.599249  
     169A      0.600418   170A      0.606295   171A      0.611748  
     172A      0.620810   173A      0.624352   174A      0.627299  
     175A      0.636804   176A      0.639884   177A      0.650865  
     178A      0.654741   179A      0.657565   180A      0.660216  
     181A      0.665306   182A      0.669632   183A      0.673383  
     184A      0.679724   185A      0.686571   186A      0.693941  
     187A      0.699330   188A      0.701537   189A      0.715235  
     190A      0.719704   191A      0.724135   192A      0.729710  
     193A      0.736602   194A      0.741285   195A      0.748599  
     196A      0.758012   197A      0.770098   198A      0.773153  
     199A      0.781282   200A      0.783606   201A      0.794808  
     202A      0.806477   203A      0.812214   204A      0.824197  
     205A      0.829630   206A      0.835214   207A      0.842586  
     208A      0.845577   209A      0.852128   210A      0.858487  
     211A      0.861020   212A      0.871201   213A      0.876750  
     214A      0.877963   215A      0.886027   216A      0.889052  
     217A      0.892398   218A      0.901674   219A      0.904805  
     220A      0.908283   221A      0.909612   222A      0.920806  
     223A      0.923853   224A      0.928987   225A      0.933818  
     226A      0.935282   227A      0.938842   228A      0.944879  
     229A      0.948420   230A      0.950480   231A      0.955258  
     232A      0.961314   233A      0.968217   234A      0.975524  
     235A      0.977609   236A      0.979641   237A      0.983972  
     238A      0.991580   239A      0.996556   240A      1.002767  
     241A      1.007626   242A      1.014552   243A      1.022691  
     244A      1.024750   245A      1.027087   246A      1.035209  
     247A      1.039104   248A      1.045501   249A      1.053039  
     250A      1.057402   251A      1.062511   252A      1.064432  
     253A      1.070514   254A      1.075930   255A      1.080796  
     256A      1.086552   257A      1.095526   258A      1.101725  
     259A      1.106246   260A      1.112776   261A      1.119597  
     262A      1.128783   263A      1.132465   264A      1.134299  
     265A      1.140893   266A      1.146166   267A      1.155060  
     268A      1.155477   269A      1.158571   270A      1.166003  
     271A      1.174934   272A      1.176493   273A      1.180453  
     274A      1.188802   275A      1.193532   276A      1.193797  
     277A      1.198218   278A      1.200793   279A      1.206248  
     280A      1.211142   281A      1.218785   282A      1.222661  
     283A      1.225917   284A      1.238280   285A      1.240040  
     286A      1.245262   287A      1.246778   288A      1.253934  
     289A      1.258088   290A      1.265122   291A      1.266969  
     292A      1.269976   293A      1.277132   294A      1.284464  
     295A      1.295631   296A      1.303466   297A      1.304858  
[...]
	 D(19,18,21,24)   =        -0.934492	     -53.542435
	 D(20,18,21,22)   =        -3.065192	    -175.622553
	 D(20,18,21,23)   =        -1.052146	     -60.283526
	 D(20,18,21,24)   =         1.098899	      62.962262
	 D(22,21,24,25)   =        -0.992334	     -56.856523
	 D(22,21,24,26)   =         1.028716	      58.941100
	 D(23,21,24,25)   =        -3.012896	    -172.626224
	 D(23,21,24,26)   =        -0.991846	     -56.828601
	 R(5,18)          =         6.881445	       3.641504

	Current energy   :      -314.9843567306

	Energy change for the previous step:
		Projected    :        -0.0000000000
		Actual       :         0.0000000027

	Performing BFGS update.
	Previous computed or guess Hessian on step 1.
	Denominators (dg)(dq) or (dq)(dq) are very small.
	 Skipping Hessian update for step 13.
	Denominators (dg)(dq) or (dq)(dq) are very small.
	 Skipping Hessian update for step 12.
	Denominators (dg)(dq) or (dq)(dq) are very small.
	 Skipping Hessian update for step 11.
	Denominators (dg)(dq) or (dq)(dq) are very small.
	 Skipping Hessian update for step 10.
	Denominators (dg)(dq) or (dq)(dq) are very small.
	 Skipping Hessian update for step 9.
	Denominators (dg)(dq) or (dq)(dq) are very small.
	 Skipping Hessian update for step 8.
	Denominators (dg)(dq) or (dq)(dq) are very small.
	 Skipping Hessian update for step 7.
	Denominators (dg)(dq) or (dq)(dq) are very small.
	 Skipping Hessian update for step 6.
	Denominators (dg)(dq) or (dq)(dq) are very small.
	 Skipping Hessian update for step 5.
	Denominators (dg)(dq) or (dq)(dq) are very small.
	 Skipping Hessian update for step 4.
	Denominators (dg)(dq) or (dq)(dq) are very small.
	 Skipping Hessian update for step 3.
	Denominators (dg)(dq) or (dq)(dq) are very small.
	 Skipping Hessian update for step 2.
	Steps to be used in Hessian update: 1
	Taking RFO optimization step.
	Going to follow RFO solution 1.
	Using RFO vector 1.
	Norm of target step-size    0.00002
	Projected energy change by RFO approximation:         0.0000000000

	Back-transformation to cartesian coordinates...
	Successfully converged to displaced geometry.

	--- Internal Coordinate Step in ANG or DEG, aJ/ANG or AJ/DEG ---
	 ---------------------------------------------------------------------------
	   Coordinate                Previous        Force       Change         New 
	   ----------                --------       ------       ------       ------
	    1 R(1,2)          =      1.089703     0.000002     0.000000     1.089703
	    2 R(1,3)          =      1.090684     0.000003     0.000000     1.090684
	    3 R(1,4)          =      1.090697     0.000002     0.000000     1.090697
	    4 R(1,9)          =      1.523692     0.000001     0.000000     1.523692
	    5 R(5,6)          =      1.089717     0.000001     0.000000     1.089717
	    6 R(5,7)          =      1.090068    -0.000000     0.000000     1.090068
	    7 R(5,8)          =      1.091434     0.000000     0.000000     1.091435
	    8 R(5,12)         =      1.524519     0.000000     0.000000     1.524520
	    9 R(9,10)         =      1.093261     0.000003     0.000000     1.093261
	   10 R(9,11)         =      1.093264     0.000002     0.000000     1.093264
	   11 R(9,15)         =      1.523368     0.000002     0.000000     1.523369
	   12 R(12,13)        =      1.092209     0.000000     0.000000     1.092209
	   13 R(12,14)        =      1.092088    -0.000001     0.000000     1.092088
	   14 R(12,24)        =      1.528477    -0.000000     0.000000     1.528477
	   15 R(15,16)        =      1.095025     0.000000    -0.000000     1.095025
	   16 R(15,17)        =      1.094785     0.000001     0.000000     1.094785
	   17 R(15,18)        =      1.523331    -0.000004    -0.000000     1.523331
	   18 R(18,19)        =      1.095360    -0.000002    -0.000000     1.095360
	   19 R(18,20)        =      1.093780    -0.000001    -0.000000     1.093780
	   20 R(18,21)        =      1.523979    -0.000003    -0.000000     1.523979
	   21 R(21,22)        =      1.093768    -0.000001    -0.000000     1.093768
	   22 R(21,23)        =      1.093451    -0.000003    -0.000000     1.093451
	   23 R(21,24)        =      1.528128    -0.000000     0.000000     1.528128
	   24 R(24,25)        =      1.093783    -0.000001     0.000000     1.093783
	   25 R(24,26)        =      1.093999    -0.000001     0.000000     1.093999
	   26 B(1,9,10)       =    109.757575    -0.000000    -0.000011   109.757563
	   27 B(1,9,11)       =    109.757805     0.000000     0.000002   109.757807
	   28 B(1,9,15)       =    112.475237     0.000000     0.000027   112.475265
	   29 B(2,1,3)        =    107.917441    -0.000000    -0.000001   107.917440
	   30 B(2,1,4)        =    107.917293     0.000000     0.000007   107.917299
	   31 B(2,1,9)        =    111.696932    -0.000000    -0.000001   111.696931
	   32 B(3,1,4)        =    107.691438    -0.000000     0.000003   107.691441
	   33 B(3,1,9)        =    110.733527     0.000000    -0.000007   110.733520
	   34 B(4,1,9)        =    110.730524     0.000000    -0.000001   110.730524
	   35 B(5,12,13)      =    109.323407    -0.000000    -0.000020   109.323387
	   36 B(5,12,14)      =    109.620533    -0.000000     0.000003   109.620536
	   37 B(5,12,24)      =    113.103138     0.000000     0.000025   113.103164
	   38 B(6,5,7)        =    107.606654    -0.000000     0.000003   107.606657
	   39 B(6,5,8)        =    107.909376    -0.000000    -0.000003   107.909373
	   40 B(6,5,12)       =    111.193055     0.000000    -0.000006   111.193049
	   41 B(7,5,8)        =    107.706963    -0.000000     0.000001   107.706964
	   42 B(7,5,12)       =    111.507282    -0.000000    -0.000003   111.507280
	   43 B(8,5,12)       =    110.751433     0.000000     0.000008   110.751441
	   44 B(9,15,16)      =    109.218880     0.000000     0.000015   109.218895
	   45 B(9,15,17)      =    109.270994    -0.000000    -0.000004   109.270990
	   46 B(9,15,18)      =    113.177798     0.000000    -0.000001   113.177797
	   47 B(10,9,11)      =    106.454525    -0.000000    -0.000001   106.454523
	   48 B(10,9,15)      =    109.105666    -0.000000    -0.000013   109.105653
	   49 B(11,9,15)      =    109.105421    -0.000000    -0.000006   109.105415
	   50 B(12,24,21)     =    114.423927     0.000000     0.000011   114.423938
	   51 B(12,24,25)     =    109.028362    -0.000000    -0.000001   109.028361
	   52 B(12,24,26)     =    108.762000    -0.000000    -0.000008   108.761993
	   53 B(13,12,14)     =    106.158683     0.000000     0.000009   106.158693
	   54 B(13,12,24)     =    108.591179    -0.000000    -0.000010   108.591169
	   55 B(14,12,24)     =    109.801457    -0.000000    -0.000009   109.801448
	   56 B(15,18,19)     =    109.375351     0.000000     0.000012   109.375363
	   57 B(15,18,20)     =    108.856465     0.000000     0.000007   108.856472
	   58 B(15,18,21)     =    112.691116    -0.000000    -0.000040   112.691076
	   59 B(16,15,17)     =    106.363652     0.000000     0.000007   106.363659
	   60 B(16,15,18)     =    109.243925    -0.000000     0.000008   109.243934
	   61 B(17,15,18)     =    109.338238    -0.000000    -0.000024   109.338214
	   62 B(18,21,22)     =    108.822074    -0.000000    -0.000004   108.822069
	   63 B(18,21,23)     =    109.149572    -0.000000    -0.000008   109.149564
	   64 B(18,21,24)     =    113.746701     0.000000     0.000013   113.746714
	   65 B(19,18,20)     =    106.426449    -0.000000     0.000028   106.426477
	   66 B(19,18,21)     =    109.305894     0.000000     0.000003   109.305897
	   67 B(20,18,21)     =    109.989404     0.000000    -0.000005   109.989399
	   68 B(21,24,25)     =    108.821954    -0.000000    -0.000014   108.821940
	   69 B(21,24,26)     =    108.978199    -0.000000     0.000011   108.978209
	   70 B(22,21,23)     =    106.071590    -0.000000    -0.000002   106.071588
	   71 B(22,21,24)     =    108.763993    -0.000000     0.000001   108.763995
	   72 B(23,21,24)     =    109.995718     0.000000    -0.000001   109.995717
	   73 B(25,24,26)     =    106.535509     0.000000     0.000000   106.535510
	   74 D(1,9,15,16)    =     58.136484     0.000000     0.000227    58.136712
	   75 D(1,9,15,17)    =    -57.836880     0.000000     0.000213   -57.836667
	   76 D(1,9,15,18)    =   -179.929522     0.000000     0.000247  -179.929274
	   77 D(2,1,9,10)     =     58.354569    -0.000000    -0.000043    58.354526
	   78 D(2,1,9,11)     =    -58.313099     0.000000    -0.000036   -58.313135
	   79 D(2,1,9,15)     =   -179.979190    -0.000000    -0.000049  -179.979239
	   80 D(3,1,9,10)     =    -61.953369    -0.000000    -0.000036   -61.953406
	   81 D(3,1,9,11)     =   -178.621037     0.000000    -0.000029  -178.621066
	   82 D(3,1,9,15)     =     59.712872     0.000000    -0.000042    59.712830
	   83 D(4,1,9,10)     =    178.660271    -0.000000    -0.000035   178.660236
	   84 D(4,1,9,11)     =     61.992604     0.000000    -0.000029    61.992575
	   85 D(4,1,9,15)     =    -59.673488    -0.000000    -0.000041   -59.673529
	   86 D(5,12,24,21)   =    -57.351272    -0.000000    -0.000199   -57.351471
	   87 D(5,12,24,25)   =   -179.453915    -0.000000    -0.000188  -179.454103
	   88 D(5,12,24,26)   =     64.753946    -0.000000    -0.000184    64.753762
	   89 D(6,5,12,13)    =    -53.757013     0.000000    -0.000030   -53.757043
	   90 D(6,5,12,14)    =     62.225380     0.000000    -0.000028    62.225351
	   91 D(6,5,12,24)    =   -174.881053     0.000000    -0.000021  -174.881074
	   92 D(7,5,12,13)    =   -173.855744     0.000000    -0.000028  -173.855772
	   93 D(7,5,12,14)    =    -57.873351     0.000000    -0.000027   -57.873378
	   94 D(7,5,12,24)    =     65.020216     0.000000    -0.000019    65.020197
	   95 D(8,5,12,13)    =     66.217216     0.000000    -0.000033    66.217183
	   96 D(8,5,12,14)    =   -177.800391     0.000000    -0.000031  -177.800422
	   97 D(8,5,12,24)    =    -54.906824     0.000000    -0.000023   -54.906847
	   98 D(9,15,18,19)   =     58.884761     0.000000    -0.000213    58.884547
	   99 D(9,15,18,20)   =    -57.019400    -0.000000    -0.000257   -57.019657
	  100 D(9,15,18,21)   =   -179.318647    -0.000000    -0.000229  -179.318876
	  101 D(10,9,15,16)   =   -179.827097     0.000000     0.000222  -179.826874
	  102 D(10,9,15,17)   =     64.199539    -0.000000     0.000208    64.199747
	  103 D(10,9,15,18)   =    -57.893103     0.000000     0.000243   -57.892860
	  104 D(11,9,15,16)   =    -63.900055    -0.000000     0.000211   -63.899844
	  105 D(11,9,15,17)   =   -179.873419    -0.000000     0.000196  -179.873223
	  106 D(11,9,15,18)   =     58.033939     0.000000     0.000231    58.034170
	  107 D(12,24,21,18)  =    -57.624203     0.000000     0.000079   -57.624124
	  108 D(12,24,21,22)  =   -179.071727     0.000000     0.000076  -179.071652
	  109 D(12,24,21,23)  =     65.158571    -0.000000     0.000077    65.158649
	  110 D(13,12,24,21)  =   -178.888489    -0.000000    -0.000184  -178.888673
	  111 D(13,12,24,25)  =     59.008868     0.000000    -0.000173    59.008695
	  112 D(13,12,24,26)  =    -56.783271     0.000000    -0.000169   -56.783440
	  113 D(14,12,24,21)  =     65.441882    -0.000000    -0.000185    65.441697
	  114 D(14,12,24,25)  =    -56.660761    -0.000000    -0.000173   -56.660934
	  115 D(14,12,24,26)  =   -172.452900     0.000000    -0.000169  -172.453069
	  116 D(15,18,21,22)  =    -53.963137     0.000000    -0.000201   -53.963338
	  117 D(15,18,21,23)  =     61.375891     0.000000    -0.000210    61.375681
	  118 D(15,18,21,24)  =   -175.378322     0.000000    -0.000208  -175.378530
	  119 D(16,15,18,19)  =   -179.195267     0.000000    -0.000190  -179.195457
	  120 D(16,15,18,20)  =     64.900572    -0.000000    -0.000233    64.900339
	  121 D(16,15,18,21)  =    -57.398675     0.000000    -0.000205   -57.398879
	  122 D(17,15,18,19)  =    -63.170294     0.000000    -0.000190   -63.170484
	  123 D(17,15,18,20)  =   -179.074454    -0.000000    -0.000234  -179.074688
	  124 D(17,15,18,21)  =     58.626299    -0.000000    -0.000205    58.626093
	  125 D(18,21,24,25)  =     64.591001     0.000000     0.000075    64.591076
	  126 D(18,21,24,26)  =   -179.611376     0.000000     0.000074  -179.611302
	  127 D(19,18,21,22)  =     67.872750    -0.000000    -0.000211    67.872538
	  128 D(19,18,21,23)  =   -176.788222    -0.000000    -0.000220  -176.788442
	  129 D(19,18,21,24)  =    -53.542435    -0.000000    -0.000219   -53.542654
	  130 D(20,18,21,22)  =   -175.622553     0.000000    -0.000179  -175.622733
	  131 D(20,18,21,23)  =    -60.283526     0.000000    -0.000188   -60.283713
	  132 D(20,18,21,24)  =     62.962262     0.000000    -0.000186    62.962075
	  133 D(22,21,24,25)  =    -56.856523     0.000000     0.000071   -56.856452
	  134 D(22,21,24,26)  =     58.941100     0.000000     0.000070    58.941170
	  135 D(23,21,24,25)  =   -172.626224     0.000000     0.000073  -172.626152
	  136 D(23,21,24,26)  =    -56.828601    -0.000000     0.000072   -56.828530
	  137 R(5,18)         =      3.641504     0.000000     0.000003     3.641507
	 ---------------------------------------------------------------------------

  ==> Convergence Check <==

  Measures of convergence in internal coordinates in au.
  Criteria marked as inactive (o), active & met (*), and active & unmet ( ).
  ---------------------------------------------------------------------------------------------
   Step     Total Energy     Delta E     MAX Force     RMS Force      MAX Disp      RMS Disp   
  ---------------------------------------------------------------------------------------------
    Convergence Criteria             o    2.00e-06 *    1.00e-06 *    6.00e-06 *    4.00e-06 *
  ---------------------------------------------------------------------------------------------
     14    -314.98435673    2.66e-09 o    5.73e-07 *    1.11e-07 *    5.33e-06 *    1.95e-06 *  ~
  ---------------------------------------------------------------------------------------------


  **** Optimization is complete! (in 14 steps) ****

  ==> Optimization Summary <==

  Measures of convergence in internal coordinates in au.
  --------------------------------------------------------------------------------------------------------------- ~
   Step         Total Energy             Delta E       MAX Force       RMS Force        MAX Disp        RMS Disp  ~
  --------------------------------------------------------------------------------------------------------------- ~
      1    -314.984356730396   -314.984356730396      0.00000031      0.00000007      0.00002654      0.00000742  ~
      2    -314.984356732805     -0.000000002409      0.00000080      0.00000019      0.00001799      0.00000513  ~
      3    -314.984356730818      0.000000001987      0.00000073      0.00000017      0.00001263      0.00000483  ~
      4    -314.984356733942     -0.000000003124      0.00000075      0.00000017      0.00007351      0.00002108  ~
      5    -314.984356731321      0.000000002621      0.00000318      0.00000071      0.00006174      0.00001716  ~
      6    -314.984356733365     -0.000000002044      0.00000036      0.00000010      0.00001638      0.00000508  ~
      7    -314.984356737301     -0.000000003936      0.00000090      0.00000021      0.00001111      0.00000329  ~
      8    -314.984356731997      0.000000005304      0.00000046      0.00000013      0.00000624      0.00000159  ~
      9    -314.984356731877      0.000000000120      0.00000087      0.00000022      0.00001373      0.00000529  ~
     10    -314.984356733385     -0.000000001508      0.00000038      0.00000009      0.00001776      0.00000475  ~
     11    -314.984356732488      0.000000000897      0.00000068      0.00000017      0.00001740      0.00000466  ~
     12    -314.984356729291      0.000000003197      0.00000115      0.00000027      0.00003242      0.00000881  ~
     13    -314.984356733296     -0.000000004005      0.00000116      0.00000030      0.00002759      0.00000773  ~
     14    -314.984356730639      0.000000002657      0.00000057      0.00000011      0.00000533      0.00000195  ~
  --------------------------------------------------------------------------------------------------------------- ~

	Writing optimization data to binary file.
	Final energy is   -314.9843567306389
	Final (previous) structure:
	Cartesian Geometry (in Angstrom)
	    C     4.0639211323   0.3488107129   0.1497482591
	    H     4.8253525978   0.8203991740  -0.4709607898
	    H     4.3802581662  -0.6759286586   0.3483247079
	    H     4.0339443279   0.8771530502   1.1034650636
	    C    -2.9115307782   1.3365834894   0.5186550296
	    H    -3.4048401811   2.2432803018   0.1693288486
	    H    -1.9412771051   1.6242619017   0.9237429505
	    H    -3.5047054457   0.9260276541   1.3376890045
	    C     2.6965373555   0.3706349178  -0.5221321904
	    H     2.7502988147  -0.1419179894  -1.4862997461
	    H     2.4062088770   1.4027475845  -0.7358593523
	    C    -2.7676452923   0.3187425709  -0.6071586592
	    H    -3.7457245076   0.1384655053  -1.0585811440
	    H    -2.1394998061   0.7334737970  -1.3984156566
	    C     1.6178466845  -0.2842360291   0.3312270133
	    H     1.5602938964   0.2297752956   1.2964005538
	    H     1.9069895594  -1.3174892443   0.5488030204
	    C     0.2438503803  -0.2727383897  -0.3264500279
	    H     0.2957188922  -0.7989921946  -1.2857099637
	    H    -0.0298890996   0.7612112455  -0.5552926508
	    C    -0.8297179494  -0.9155405173   0.5434751022
	    H    -0.5009326297  -1.9199456711   0.8252531700
	    H    -0.9191054991  -0.3532632340   1.4770112521
	    C    -2.1938586264  -1.0178574643  -0.1375719920
	    H    -2.1103594573  -1.6912204433  -0.9954603386
	    H    -2.9030756124  -1.4816002313   0.5543727613
	Saving final (previous) structure.
			--------------------------
			 OPTKING Finished Execution 
			--------------------------

    Final optimized geometry and variables:
    Molecular point group: c1
    Full point group: C1

    Geometry (in Angstrom), charge = 0, multiplicity = 1:

    C            4.063921132264     0.348810712879     0.149748259052
    H            4.825352597827     0.820399173995    -0.470960789777
    H            4.380258166229    -0.675928658625     0.348324707907
    H            4.033944327871     0.877153050207     1.103465063640
    C           -2.911530778231     1.336583489365     0.518655029557
    H           -3.404840181057     2.243280301789     0.169328848589
    H           -1.941277105128     1.624261901672     0.923742950458
    H           -3.504705445692     0.926027654081     1.337689004489
    C            2.696537355539     0.370634917796    -0.522132190434
    H            2.750298814736    -0.141917989350    -1.486299746053
    H            2.406208877040     1.402747584484    -0.735859352329
    C           -2.767645292327     0.318742570880    -0.607158659230
    H           -3.745724507554     0.138465505260    -1.058581144040
    H           -2.139499806131     0.733473796952    -1.398415656637
    C            1.617846684498    -0.284236029051     0.331227013292
    H            1.560293896398     0.229775295576     1.296400553821
    H            1.906989559398    -1.317489244337     0.548803020444
    C            0.243850380316    -0.272738389719    -0.326450027879
    H            0.295718892236    -0.798992194563    -1.285709963663
    H           -0.029889099574     0.761211245504    -0.555292650798
    C           -0.829717949393    -0.915540517316     0.543475102154
    H           -0.500932629682    -1.919945671081     0.825253169967
    H           -0.919105499147    -0.353263234020     1.477011252100
    C           -2.193858626448    -1.017857464264    -0.137571992047
    H           -2.110359457272    -1.691220443318    -0.995460338588
    H           -2.903075612424    -1.481600231325     0.554372761250

	Cleaning optimization helper files.

*** Psi4 exiting successfully. Buy a developer a beer!
