    -----------------------------------------------------------------------
          Psi4: An Open-Source Ab Initio Electronic Structure Package
                              Psi4 1.0.0 Driver

                          Git: Rev {master} 6a9a71b dirty

    J. M. Turney, A. C. Simmonett, R. M. Parrish, E. G. Hohenstein,
    F. A. Evangelista, J. T. Fermann, B. J. Mintz, L. A. Burns, J. J. Wilke,
    M. L. Abrams, N. J. Russ, M. L. Leininger, C. L. Janssen, E. T. Seidl,
    W. D. Allen, H. F. Schaefer, R. A. King, E. F. Valeev, C. D. Sherrill,
    and T. D. Crawford, WIREs Comput. Mol. Sci. 2, 556-565 (2012)
    (doi: 10.1002/wcms.93)

                         Additional Contributions by
    A. E. DePrince, U. Bozkaya, A. Yu. Sokolov, D. G. A. Smith, R. Di Remigio,
    R. M. Richard, J. F. Gonthier, H. R. McAlexander, M. Saitow, and
    B. P. Pritchard
    -----------------------------------------------------------------------


    Psi4 started on: Tue Sep 20 16:43:05 2016

    Process ID:  18611
    PSI4DATADIR: /usr/local/hpc5/psi4conda/share/psi4
    Memory level set to 256.000 MB

  ==> Input File <==

--------------------------------------------------------------------------
memory 30 Gb

molecule molecule_14_psi {
0 1
symmetry c1
    C            3.009250793810     0.826185922777    -0.723476752741
    H            3.338791289953     1.802483955685    -1.071919001269
    H            2.560609567806     0.307732821610    -1.567465185046
    H            3.890730728347     0.263432222150    -0.418096071294
    C           -3.624136535479     0.695103137263     0.345197492188
    H           -4.492158087583     1.030619855991    -0.217738992556
    H           -3.272331522907     1.529414610709     0.949370111807
    H           -3.947636872091    -0.092389854101     1.023547556867
    C            2.032234489616     0.956227952756     0.431852610094
    H            1.141133104077     1.489150589162     0.098303714956
    H            2.478344905022     1.569136911850     1.215514494828
    C           -2.522173860477     0.194049936366    -0.569275752060
    H           -2.897347469137    -0.623557779469    -1.186864530068
    H           -2.221997055328     0.988210761175    -1.255135474884
    C            1.635724931155    -0.385224771623     1.029127290159
    H            0.948783924854    -0.220572025079     1.859615558676
    H            2.523492084370    -0.857887877603     1.454221605204
    C            1.001980263041    -1.345286169351     0.030724632965
    H            0.679460807107    -2.241919085120     0.563667039101
    H            1.753467892919    -1.671669875389    -0.688868372594
    C           -0.188381579480    -0.763349061777    -0.715856941204
    H            0.135851456382     0.065748704658    -1.348112457866
    H           -0.587576494041    -1.522408668145    -1.391665272024
    C           -1.302367891336    -0.282927484636     0.195588893644
    H           -1.590800388305    -1.094029876538     0.870116619452
    H           -0.942459837181     0.531347531113     0.827156048459
}

set globals {
  reference rhf
  g_convergence gau_verytight
  basis aug-cc-pvtz
  freeze_core true
  scf_type df
  mp_type df
}
optimize('mp2')
--------------------------------------------------------------------------
/usr/local/hpc5/psi4conda/lib/python2.7/site-packages/v2rdm_casscf/v2rdm_casscf.so loaded.

  Memory set to  30.000 GiB by Python script.
gradient() will perform analytic gradient computation.

*** tstart() called on wr37
*** at Tue Sep 20 16:43:05 2016


         ---------------------------------------------------------
                                   SCF
            by Justin Turney, Rob Parrish, and Andy Simmonett
                              RHF Reference
                       12 Threads,  30000 MiB Core
         ---------------------------------------------------------

  ==> Geometry <==

    Molecular point group: c1
    Full point group: C1

    Geometry (in Angstrom), charge = 0, multiplicity = 1:

       Center              X                  Y                   Z               Mass       
    ------------   -----------------  -----------------  -----------------  -----------------
           C          3.009250793810     0.826185922777    -0.723476752741    12.000000000000
           H          3.338791289953     1.802483955685    -1.071919001269     1.007825032070
           H          2.560609567806     0.307732821610    -1.567465185046     1.007825032070
           H          3.890730728347     0.263432222150    -0.418096071294     1.007825032070
           C         -3.624136535479     0.695103137263     0.345197492188    12.000000000000
           H         -4.492158087583     1.030619855991    -0.217738992556     1.007825032070
           H         -3.272331522907     1.529414610709     0.949370111807     1.007825032070
           H         -3.947636872091    -0.092389854101     1.023547556867     1.007825032070
           C          2.032234489616     0.956227952756     0.431852610094    12.000000000000
           H          1.141133104077     1.489150589162     0.098303714956     1.007825032070
           H          2.478344905022     1.569136911850     1.215514494828     1.007825032070
           C         -2.522173860477     0.194049936366    -0.569275752060    12.000000000000
           H         -2.897347469137    -0.623557779469    -1.186864530068     1.007825032070
           H         -2.221997055328     0.988210761175    -1.255135474884     1.007825032070
           C          1.635724931155    -0.385224771623     1.029127290159    12.000000000000
           H          0.948783924854    -0.220572025079     1.859615558676     1.007825032070
           H          2.523492084370    -0.857887877603     1.454221605204     1.007825032070
           C          1.001980263041    -1.345286169351     0.030724632965    12.000000000000
           H          0.679460807107    -2.241919085120     0.563667039101     1.007825032070
           H          1.753467892919    -1.671669875389    -0.688868372594     1.007825032070
           C         -0.188381579480    -0.763349061777    -0.715856941204    12.000000000000
           H          0.135851456382     0.065748704658    -1.348112457866     1.007825032070
           H         -0.587576494041    -1.522408668145    -1.391665272024     1.007825032070
           C         -1.302367891336    -0.282927484636     0.195588893644    12.000000000000
           H         -1.590800388305    -1.094029876538     0.870116619452     1.007825032070
           H         -0.942459837181     0.531347531113     0.827156048459     1.007825032070

  Running in c1 symmetry.

  Rotational constants: A =      0.12263  B =      0.02685  C =      0.02574 [cm^-1]
  Rotational constants: A =   3676.44248  B =    804.95554  C =    771.52787 [MHz]
  Nuclear repulsion =  399.389050675194369

  Charge       = 0
  Multiplicity = 1
  Electrons    = 66
  Nalpha       = 33
  Nbeta        = 33

  ==> Algorithm <==

  SCF Algorithm Type is DF.
  DIIS enabled.
  MOM disabled.
  Fractional occupation disabled.
  Guess Type is SAD.
  Energy threshold   = 1.00e-10
  Density threshold  = 1.00e-10
  Integral threshold = 0.00e+00

  ==> Primary Basis <==

  Basis Set: AUG-CC-PVTZ
    Number of shells: 274
    Number of basis function: 782
    Number of Cartesian functions: 890
    Spherical Harmonics?: true
    Max angular momentum: 3

  ==> Pre-Iterations <==

   -------------------------------------------------------
    Irrep   Nso     Nmo     Nalpha   Nbeta   Ndocc  Nsocc
   -------------------------------------------------------
     A        782     782       0       0       0       0
   -------------------------------------------------------
    Total     782     782      33      33      33       0
   -------------------------------------------------------

  ==> Integral Setup <==

  ==> DFJK: Density-Fitted J/K Matrices <==

    J tasked:                  Yes
    K tasked:                  Yes
    wK tasked:                  No
    OpenMP threads:             12
    Integrals threads:          12
    Memory (MB):             21457
    Algorithm:                Core
    Integral Cache:           NONE
    Schwarz Cutoff:          1E-12
    Fitting Condition:       1E-12

   => Auxiliary Basis Set <=

  Basis Set: 
    Number of shells: 492
    Number of basis function: 1660
    Number of Cartesian functions: 2038
    Spherical Harmonics?: true
    Max angular momentum: 4

  Minimum eigenvalue in the overlap matrix is 1.8767492554E-06.
  Using Symmetric Orthogonalization.
  SCF Guess: Superposition of Atomic Densities via on-the-fly atomic UHF.

  ==> Iterations <==

                           Total Energy        Delta E     RMS |[F,P]|

   @DF-RHF iter   0:  -317.17161930457297   -3.17172e+02   7.13979e-03 
   @DF-RHF iter   1:  -313.30722883362654    3.86439e+00   6.92494e-04 
   @DF-RHF iter   2:  -313.51073106814516   -2.03502e-01   2.50214e-04 DIIS
   @DF-RHF iter   3:  -313.53609044466913   -2.53594e-02   1.01551e-04 DIIS
   @DF-RHF iter   4:  -313.54102845676692   -4.93801e-03   1.58708e-05 DIIS
   @DF-RHF iter   5:  -313.54119036247374   -1.61906e-04   4.80403e-06 DIIS
   @DF-RHF iter   6:  -313.54120248915746   -1.21267e-05   1.33453e-06 DIIS
   @DF-RHF iter   7:  -313.54120346956046   -9.80403e-07   2.64807e-07 DIIS
   @DF-RHF iter   8:  -313.54120351677471   -4.72143e-08   7.18445e-08 DIIS
   @DF-RHF iter   9:  -313.54120352015519   -3.38048e-09   2.14097e-08 DIIS
   @DF-RHF iter  10:  -313.54120352043623   -2.81034e-10   6.65575e-09 DIIS
   @DF-RHF iter  11:  -313.54120352046499   -2.87628e-11   1.38226e-09 DIIS
   @DF-RHF iter  12:  -313.54120352046567   -6.82121e-13   3.26559e-10 DIIS
   @DF-RHF iter  13:  -313.54120352046613   -4.54747e-13   9.77722e-11 DIIS

  ==> Post-Iterations <==

    Orbital Energies (a.u.)
    -----------------------

    Doubly Occupied:                                                      

       1A    -11.210721     2A    -11.210466     3A    -11.208339  
       4A    -11.208002     5A    -11.207606     6A    -11.207311  
       7A    -11.205765     8A    -11.205435     9A     -1.099809  
      10A     -1.062369    11A     -1.009682    12A     -0.947721  
      13A     -0.891055    14A     -0.828677    15A     -0.792756  
      16A     -0.747189    17A     -0.657880    18A     -0.631615  
      19A     -0.620967    20A     -0.585255    21A     -0.571386  
      22A     -0.566567    23A     -0.546159    24A     -0.532824  
      25A     -0.519642    26A     -0.496066    27A     -0.490920  
      28A     -0.474608    29A     -0.470038    30A     -0.462573  
      31A     -0.444771    32A     -0.439116    33A     -0.434808  

    Virtual:                                                              

      34A      0.029129    35A      0.032809    36A      0.033579  
      37A      0.034093    38A      0.047089    39A      0.048099  
      40A      0.049408    41A      0.053144    42A      0.056835  
      43A      0.065878    44A      0.068589    45A      0.069808  
      46A      0.073651    47A      0.080634    48A      0.085764  
      49A      0.091332    50A      0.097131    51A      0.103281  
      52A      0.112944    53A      0.114643    54A      0.117863  
      55A      0.124514    56A      0.126460    57A      0.129296  
      58A      0.133780    59A      0.137532    60A      0.140560  
      61A      0.143126    62A      0.145551    63A      0.149557  
      64A      0.157399    65A      0.160663    66A      0.163739  
      67A      0.164164    68A      0.168349    69A      0.171906  
      70A      0.177698    71A      0.180401    72A      0.184155  
      73A      0.186105    74A      0.190694    75A      0.193986  
      76A      0.205789    77A      0.213755    78A      0.221472  
      79A      0.223321    80A      0.237086    81A      0.240025  
      82A      0.248005    83A      0.254474    84A      0.256968  
      85A      0.266189    86A      0.272736    87A      0.277951  
      88A      0.283532    89A      0.288631    90A      0.293060  
      91A      0.299954    92A      0.302001    93A      0.307189  
      94A      0.309146    95A      0.314218    96A      0.321385  
      97A      0.326172    98A      0.330057    99A      0.332734  
     100A      0.335595   101A      0.337211   102A      0.343572  
     103A      0.349898   104A      0.351372   105A      0.355054  
     106A      0.360046   107A      0.365689   108A      0.366768  
     109A      0.368903   110A      0.373831   111A      0.377084  
     112A      0.380910   113A      0.383211   114A      0.386823  
     115A      0.391374   116A      0.395507   117A      0.398294  
     118A      0.404538   119A      0.406582   120A      0.416544  
     121A      0.419744   122A      0.421110   123A      0.426588  
     124A      0.430076   125A      0.434940   126A      0.443443  
     127A      0.446559   128A      0.451165   129A      0.453177  
     130A      0.455315   131A      0.459760   132A      0.460635  
     133A      0.463335   134A      0.466883   135A      0.468744  
     136A      0.470948   137A      0.473853   138A      0.480376  
     139A      0.483526   140A      0.485076   141A      0.491762  
     142A      0.493203   143A      0.499821   144A      0.505718  
     145A      0.508577   146A      0.512674   147A      0.518902  
     148A      0.523272   149A      0.526274   150A      0.529938  
     151A      0.534080   152A      0.538348   153A      0.541064  
     154A      0.544272   155A      0.547653   156A      0.552369  
     157A      0.557184   158A      0.563613   159A      0.567234  
     160A      0.567427   161A      0.571839   162A      0.583833  
     163A      0.589552   164A      0.590473   165A      0.594017  
     166A      0.599921   167A      0.600959   168A      0.609661  
     169A      0.613638   170A      0.617696   171A      0.619245  
     172A      0.627922   173A      0.632512   174A      0.637421  
     175A      0.644572   176A      0.648166   177A      0.650447  
     178A      0.655742   179A      0.658782   180A      0.667089  
     181A      0.674813   182A      0.679628   183A      0.682244  
     184A      0.684992   185A      0.693458   186A      0.699755  
     187A      0.703038   188A      0.709781   189A      0.714508  
     190A      0.724263   191A      0.731308   192A      0.739607  
     193A      0.747020   194A      0.753310   195A      0.756598  
     196A      0.758965   197A      0.768728   198A      0.772473  
     199A      0.777360   200A      0.785808   201A      0.794687  
     202A      0.812062   203A      0.817986   204A      0.820356  
     205A      0.826369   206A      0.833763   207A      0.849386  
     208A      0.851098   209A      0.855615   210A      0.858536  
     211A      0.865620   212A      0.870936   213A      0.876432  
     214A      0.885388   215A      0.890037   216A      0.895564  
     217A      0.904650   218A      0.908929   219A      0.912790  
     220A      0.918314   221A      0.925464   222A      0.925970  
     223A      0.929816   224A      0.935793   225A      0.940780  
     226A      0.944072   227A      0.947654   228A      0.950394  
     229A      0.959614   230A      0.964262   231A      0.967600  
     232A      0.969650   233A      0.972882   234A      0.980823  
     235A      0.987168   236A      0.994336   237A      1.001886  
     238A      1.004800   239A      1.007159   240A      1.012585  
     241A      1.019694   242A      1.024656   243A      1.027995  
     244A      1.030349   245A      1.032857   246A      1.038946  
     247A      1.050319   248A      1.053065   249A      1.057871  
     250A      1.061803   251A      1.067424   252A      1.076271  
     253A      1.077628   254A      1.079225   255A      1.090563  
     256A      1.095460   257A      1.103206   258A      1.110677  
     259A      1.114548   260A      1.119411   261A      1.124168  
     262A      1.132013   263A      1.134369   264A      1.145167  
     265A      1.148952   266A      1.152834   267A      1.157589  
     268A      1.162479   269A      1.166513   270A      1.172977  
     271A      1.179624   272A      1.182352   273A      1.186483  
     274A      1.193168   275A      1.193778   276A      1.206612  
     277A      1.212447   278A      1.216054   279A      1.218665  
     280A      1.222900   281A      1.232360   282A      1.236143  
     283A      1.241048   284A      1.246738   285A      1.251651  
     286A      1.257616   287A      1.260818   288A      1.265722  
     289A      1.273734   290A      1.277542   291A      1.284241  
     292A      1.291460   293A      1.294464   294A      1.302361  
     295A      1.304123   296A      1.311667   297A      1.313348  
     298A      1.321500   299A      1.326951   300A      1.334764  
     301A      1.340636   302A      1.346373   303A      1.351368  
     304A      1.359512   305A      1.365797   306A      1.374169  
     307A      1.386228   308A      1.386684   309A      1.397203  
     310A      1.408501   311A      1.417389   312A      1.419194  
     313A      1.421887   314A      1.438909   315A      1.444175  
     316A      1.445021   317A      1.453128   318A      1.460687  
     319A      1.466905   320A      1.474927   321A      1.487771  
     322A      1.494328   323A      1.496759   324A      1.505204  
     325A      1.518944   326A      1.524569   327A      1.528017  
     328A      1.540968   329A      1.545888   330A      1.552439  
     331A      1.561269   332A      1.568695   333A      1.573188  
     334A      1.583804   335A      1.587834   336A      1.596891  
     337A      1.602721   338A      1.604487   339A      1.619851  
     340A      1.625096   341A      1.629123   342A      1.640191  
     343A      1.645664   344A      1.654397   345A      1.656707  
     346A      1.661585   347A      1.667412   348A      1.674778  
     349A      1.683943   350A      1.687188   351A      1.695539  
     352A      1.702025   353A      1.706567   354A      1.710699  
     355A      1.714108   356A      1.723208   357A      1.726617  
     358A      1.730462   359A      1.733096   360A      1.752799  
     361A      1.756254   362A      1.762032   363A      1.768058  
     364A      1.770354   365A      1.775471   366A      1.787453  
     367A      1.793124   368A      1.798695   369A      1.800632  
     370A      1.810659   371A      1.815656   372A      1.821469  
     373A      1.825827   374A      1.836651   375A      1.838807  
     376A      1.845538   377A      1.851171   378A      1.855080  
     379A      1.862943   380A      1.871041   381A      1.875780  
     382A      1.882302   383A      1.886757   384A      1.893425  
     385A      1.894487   386A      1.903913   387A      1.914042  
     388A      1.926256   389A      1.930596   390A      1.938404  
     391A      1.942736   392A      1.949636   393A      1.967615  
     394A      1.970460   395A      1.974594   396A      1.980408  
     397A      1.985882   398A      1.999312   399A      2.002990  
     400A      2.003560   401A      2.013063   402A      2.021985  
     403A      2.030168   404A      2.035722   405A      2.040305  
     406A      2.046270   407A      2.051185   408A      2.059388  
     409A      2.070232   410A      2.072542   411A      2.081198  
     412A      2.084557   413A      2.086974   414A      2.096060  
     415A      2.113514   416A      2.126185   417A      2.128884  
     418A      2.132933   419A      2.136378   420A      2.146128  
     421A      2.155620   422A      2.167317   423A      2.170066  
     424A      2.176922   425A      2.181997   426A      2.195298  
     427A      2.211405   428A      2.226931   429A      2.233072  
     430A      2.240812   431A      2.245561   432A      2.255141  
     433A      2.258651   434A      2.275816   435A      2.283413  
     436A      2.291193   437A      2.301628   438A      2.304853  
     439A      2.315181   440A      2.326402   441A      2.329438  
     442A      2.340520   443A      2.343561   444A      2.347642  
     445A      2.373780   446A      2.377021   447A      2.392839  
     448A      2.396757   449A      2.400190   450A      2.403952  
     451A      2.412163   452A      2.428049   453A      2.436637  
     454A      2.444818   455A      2.459874   456A      2.462537  
     457A      2.472717   458A      2.476774   459A      2.503878  
     460A      2.507401   461A      2.510638   462A      2.532513  
     463A      2.534087   464A      2.542067   465A      2.560301  
     466A      2.571803   467A      2.584200   468A      2.589297  
     469A      2.598965   470A      2.617350   471A      2.627113  
     472A      2.646412   473A      2.660237   474A      2.682189  
     475A      2.689486   476A      2.700821   477A      2.722148  
     478A      2.733692   479A      2.745282   480A      2.778556  
     481A      2.796501   482A      2.816531   483A      2.896020  
     484A      2.915632   485A      2.950940   486A      2.963289  
     487A      2.998082   488A      3.024823   489A      3.089284  
     490A      3.110291   491A      3.220679   492A      3.260623  
     493A      3.281323   494A      3.294075   495A      3.321334  
     496A      3.413731   497A      3.429714   498A      3.450404  
     499A      3.455936   500A      3.479629   501A      3.485134  
     502A      3.496875   503A      3.515952   504A      3.522267  
     505A      3.542142   506A      3.553400   507A      3.559252  
     508A      3.582480   509A      3.587498   510A      3.604561  
     511A      3.610279   512A      3.625283   513A      3.628967  
     514A      3.641312   515A      3.652879   516A      3.657859  
     517A      3.676517   518A      3.685224   519A      3.695860  
     520A      3.705544   521A      3.707819   522A      3.713229  
     523A      3.730372   524A      3.735047   525A      3.747475  
     526A      3.753777   527A      3.769583   528A      3.774216  
     529A      3.780113   530A      3.792179   531A      3.802992  
     532A      3.807439   533A      3.813401   534A      3.821706  
     535A      3.825766   536A      3.837764   537A      3.841117  
     538A      3.860156   539A      3.869355   540A      3.878107  
     541A      3.887194   542A      3.891733   543A      3.894053  
     544A      3.899637   545A      3.905148   546A      3.928412  
     547A      3.931670   548A      3.945757   549A      3.952888  
     550A      3.968197   551A      3.971495   552A      3.974953  
     553A      3.990168   554A      3.994963   555A      4.003850  
     556A      4.007460   557A      4.019568   558A      4.023849  
     559A      4.026850   560A      4.036409   561A      4.037635  
     562A      4.046728   563A      4.046930   564A      4.062193  
     565A      4.065882   566A      4.069883   567A      4.085944  
     568A      4.090497   569A      4.096859   570A      4.102237  
     571A      4.108849   572A      4.112321   573A      4.134224  
     574A      4.144704   575A      4.154737   576A      4.158530  
     577A      4.166301   578A      4.172233   579A      4.179932  
     580A      4.188122   581A      4.198438   582A      4.207910  
     583A      4.211408   584A      4.228448   585A      4.234723  
     586A      4.244096   587A      4.249097   588A      4.262228  
     589A      4.270096   590A      4.280876   591A      4.288891  
     592A      4.310796   593A      4.314450   594A      4.322380  
     595A      4.327075   596A      4.343252   597A      4.351962  
     598A      4.356298   599A      4.366392   600A      4.377431  
     601A      4.396671   602A      4.400968   603A      4.414331  
     604A      4.415274   605A      4.445580   606A      4.450093  
     607A      4.468072   608A      4.472060   609A      4.476412  
     610A      4.489642   611A      4.508227   612A      4.523001  
     613A      4.537300   614A      4.558084   615A      4.565667  
     616A      4.574007   617A      4.589516   618A      4.598802  
     619A      4.618769   620A      4.631247   621A      4.644992  
     622A      4.658864   623A      4.681323   624A      4.688290  
     625A      4.694090   626A      4.696283   627A      4.710119  
     628A      4.723388   629A      4.730367   630A      4.736301  
     631A      4.745805   632A      4.757068   633A      4.771761  
     634A      4.784105   635A      4.794046   636A      4.808996  
     637A      4.815302   638A      4.820327   639A      4.835423  
     640A      4.845526   641A      4.863206   642A      4.864611  
     643A      4.883263   644A      4.890626   645A      4.897310  
     646A      4.901255   647A      4.920025   648A      4.929556  
     649A      4.934094   650A      4.940028   651A      4.959021  
     652A      4.971688   653A      4.988767   654A      4.996911  
     655A      5.002381   656A      5.019948   657A      5.035752  
     658A      5.052319   659A      5.070570   660A      5.088508  
     661A      5.094904   662A      5.103305   663A      5.114733  
     664A      5.151005   665A      5.157112   666A      5.169951  
     667A      5.183132   668A      5.185300   669A      5.204414  
     670A      5.220438   671A      5.223705   672A      5.231285  
     673A      5.245892   674A      5.261501   675A      5.269081  
     676A      5.283159   677A      5.286191   678A      5.291613  
     679A      5.303931   680A      5.308192   681A      5.317764  
     682A      5.327514   683A      5.348570   684A      5.361826  
     685A      5.368037   686A      5.374975   687A      5.391167  
     688A      5.401512   689A      5.404682   690A      5.423737  
     691A      5.441080   692A      5.445894   693A      5.448531  
     694A      5.449919   695A      5.465825   696A      5.478074  
     697A      5.486452   698A      5.489842   699A      5.500137  
     700A      5.515882   701A      5.528077   702A      5.540722  
     703A      5.555542   704A      5.572474   705A      5.587659  
     706A      5.598975   707A      5.621971   708A      5.632448  
     709A      5.644246   710A      5.654529   711A      5.668810  
     712A      5.672608   713A      5.688064   714A      5.691460  
     715A      5.712901   716A      5.724543   717A      5.736314  
     718A      5.742558   719A      5.752509   720A      5.769739  
     721A      5.784776   722A      5.802261   723A      5.817041  
     724A      5.834441   725A      5.850547   726A      5.873073  
     727A      5.880149   728A      5.895336   729A      5.911540  
     730A      5.934689   731A      5.957614   732A      5.980927  
     733A      5.987334   734A      6.005231   735A      6.009342  
     736A      6.046871   737A      6.074336   738A      6.086255  
     739A      6.087738   740A      6.142951   741A      6.163263  
     742A      6.172609   743A      6.188376   744A      6.218926  
     745A      6.239646   746A      6.242049   747A      6.257604  
     748A      6.280815   749A      6.300566   750A      6.314113  
     751A      6.322969   752A      6.341469   753A      6.354464  
     754A      6.376320   755A      6.396243   756A      6.403772  
     757A      6.430158   758A      6.444400   759A      6.555982  
     760A      6.633712   761A      6.667079   762A      6.710539  
     763A      6.738134   764A      6.788028   765A      6.828267  
     766A      6.869332   767A      6.876731   768A      6.905123  
     769A      6.927325   770A      7.002819   771A      7.051093  
     772A      7.102780   773A      7.125151   774A      7.176912  
     775A     18.091284   776A     18.227840   777A     18.452991  
     778A     18.589014   779A     18.755186   780A     18.951109  
     781A     19.591773   782A     19.943909  

    Final Occupation by Irrep:
              A 
    DOCC [    33 ]

  Energy converged.

  @DF-RHF Final Energy:  -313.54120352046613

   => Energetics <=

    Nuclear Repulsion Energy =            399.3890506751943690
    One-Electron Energy =               -1213.8843099491275552
    Two-Electron Energy =                 500.9540557534667187
    DFT Exchange-Correlation Energy =       0.0000000000000000
    Empirical Dispersion Energy =           0.0000000000000000
    PCM Polarization Energy =               0.0000000000000000
    EFP Energy =                            0.0000000000000000
    Total Energy =                       -313.5412035204665244


  Saving occupied orbitals to File 180.

*** tstop() called on wr37 at Tue Sep 20 16:44:31 2016
Module time:
	user time   =     955.78 seconds =      15.93 minutes
	system time =      10.40 seconds =       0.17 minutes
	total time  =         86 seconds =       1.43 minutes
Total time:
	user time   =     955.78 seconds =      15.93 minutes
	system time =      10.40 seconds =       0.17 minutes
	total time  =         86 seconds =       1.43 minutes


Properties will be evaluated at   0.000000,   0.000000,   0.000000 Bohr

Properties computed using the SCF density matrix

  Nuclear Dipole Moment: (a.u.)
     X:    -0.4703      Y:     1.1745      Z:    -0.2666

  Electronic Dipole Moment: (a.u.)
     X:     0.4724      Y:    -1.1803      Z:     0.2690

  Dipole Moment: (a.u.)
     X:     0.0021      Y:    -0.0058      Z:     0.0024     Total:     0.0066

  Dipole Moment: (Debye)
     X:     0.0054      Y:    -0.0147      Z:     0.0061     Total:     0.0168


  //>>>>>>>>>>>>>>>>>>>>>>>>>>>>>>>>>>>//
  //               DFMP2               //
  //<<<<<<<<<<<<<<<<<<<<<<<<<<<<<<<<<<<//


*** tstart() called on wr37
*** at Tue Sep 20 16:44:32 2016


*** tstop() called on wr37 at Tue Sep 20 16:44:32 2016
Module time:
	user time   =       3.77 seconds =       0.06 minutes
	system time =       0.17 seconds =       0.00 minutes
	total time  =          0 seconds =       0.00 minutes
Total time:
	user time   =     961.05 seconds =      16.02 minutes
	system time =      10.64 seconds =       0.18 minutes
	total time  =         87 seconds =       1.45 minutes
	 --------------------------------------------------------
	                          DF-MP2                         
	      2nd-Order Density-Fitted Moller-Plesset Theory     
	              RMP2 Wavefunction,  12 Threads             
	                                                         
	        Rob Parrish, Justin Turney, Andy Simmonett,      
	           Ed Hohenstein, and C. David Sherrill          
	 --------------------------------------------------------

   => Auxiliary Basis Set <=

  Basis Set: 
    Number of shells: 476
    Number of basis function: 1676
    Number of Cartesian functions: 2078
    Spherical Harmonics?: true
    Max angular momentum: 4

	 --------------------------------------------------------
	                 NBF =   782, NAUX =  1676
	 --------------------------------------------------------
	   CLASS    FOCC     OCC    AOCC    AVIR     VIR    FVIR
	   PAIRS       8      33      25     749     749       0
	 --------------------------------------------------------

DGAS Warning! /src/lib/libfock/apps.cc:80 is not currently checking restricted

         ------------------------------------------------------------
                                     CPHF                           
                                  Rob Parrish                       
         ------------------------------------------------------------

  ==> Geometry <==

    Molecular point group: c1
    Full point group: C1

    Geometry (in Angstrom), charge = 0, multiplicity = 1:

       Center              X                  Y                   Z               Mass       
    ------------   -----------------  -----------------  -----------------  -----------------
           C          3.009250793810     0.826185922777    -0.723476752741    12.000000000000
           H          3.338791289953     1.802483955685    -1.071919001269     1.007825032070
           H          2.560609567806     0.307732821610    -1.567465185046     1.007825032070
           H          3.890730728347     0.263432222150    -0.418096071294     1.007825032070
           C         -3.624136535479     0.695103137263     0.345197492188    12.000000000000
           H         -4.492158087583     1.030619855991    -0.217738992556     1.007825032070
           H         -3.272331522907     1.529414610709     0.949370111807     1.007825032070
           H         -3.947636872091    -0.092389854101     1.023547556867     1.007825032070
           C          2.032234489616     0.956227952756     0.431852610094    12.000000000000
           H          1.141133104077     1.489150589162     0.098303714956     1.007825032070
           H          2.478344905022     1.569136911850     1.215514494828     1.007825032070
           C         -2.522173860477     0.194049936366    -0.569275752060    12.000000000000
           H         -2.897347469137    -0.623557779469    -1.186864530068     1.007825032070
           H         -2.221997055328     0.988210761175    -1.255135474884     1.007825032070
           C          1.635724931155    -0.385224771623     1.029127290159    12.000000000000
           H          0.948783924854    -0.220572025079     1.859615558676     1.007825032070
           H          2.523492084370    -0.857887877603     1.454221605204     1.007825032070
           C          1.001980263041    -1.345286169351     0.030724632965    12.000000000000
           H          0.679460807107    -2.241919085120     0.563667039101     1.007825032070
           H          1.753467892919    -1.671669875389    -0.688868372594     1.007825032070
           C         -0.188381579480    -0.763349061777    -0.715856941204    12.000000000000
           H          0.135851456382     0.065748704658    -1.348112457866     1.007825032070
           H         -0.587576494041    -1.522408668145    -1.391665272024     1.007825032070
           C         -1.302367891336    -0.282927484636     0.195588893644    12.000000000000
           H         -1.590800388305    -1.094029876538     0.870116619452     1.007825032070
           H         -0.942459837181     0.531347531113     0.827156048459     1.007825032070

  Nuclear repulsion =  399.389050675194369
  Reference energy  = -313.541203520466127

  ==> Basis Set <==

  Basis Set: AUG-CC-PVTZ
    Number of shells: 274
    Number of basis function: 782
    Number of Cartesian functions: 890
    Spherical Harmonics?: true
    Max angular momentum: 3

  ==> CGRSolver (by Rob Parrish) <==

   Number of roots    =         1
   Preconditioning    =    JACOBI
   Convergence cutoff =     1E-06
   Maximum iterations =       100

  ==> CPHFRHamiltonian (by Rob Parrish) <== 

  ==> DFJK: Density-Fitted J/K Matrices <==

    J tasked:                  Yes
    K tasked:                  Yes
    wK tasked:                  No
    OpenMP threads:             12
    Integrals threads:          12
    Memory (MB):             21457
    Algorithm:                Core
    Integral Cache:           NONE
    Schwarz Cutoff:          1E-12
    Fitting Condition:       1E-12

   => Auxiliary Basis Set <=

  Basis Set: 
    Number of shells: 492
    Number of basis function: 1660
    Number of Cartesian functions: 2038
    Spherical Harmonics?: true
    Max angular momentum: 4

  ==> CPHF Iterations <==

  => Iterations <=

             Iter  Converged  Remaining    Residual
  CGR           1          0          1   9.236E-02
  CGR           2          0          1   1.327E-02
  CGR           3          0          1   3.976E-03
  CGR           4          0          1   8.958E-04
  CGR           5          0          1   2.154E-04
  CGR           6          0          1   5.018E-05
  CGR           7          0          1   1.370E-05
  CGR           8          0          1   3.221E-06
  CGR           9          1          0   8.699E-07

    CGRSolver converged.

  ==> DFCorrGrad: Density-Fitted Correlated Gradients <==

    OpenMP threads:             12
    Integrals threads:          12
    Memory (MB):             21457
    Schwarz Cutoff:          0E+00
    Fitting Condition:       1E-12

   => Auxiliary Basis Set <=

  Basis Set: 
    Number of shells: 492
    Number of basis function: 1660
    Number of Cartesian functions: 2038
    Spherical Harmonics?: true
    Max angular momentum: 4

	-----------------------------------------------------------
	 ==================> DF-MP2 Energies <==================== 
	-----------------------------------------------------------
	 Reference Energy          =    -313.5412035204661265 [Eh]
	 Singles Energy            =      -0.0000000000000004 [Eh]
	 Same-Spin Energy          =      -0.3172721753724022 [Eh]
	 Opposite-Spin Energy      =      -1.1255675626989845 [Eh]
	 Correlation Energy        =      -1.4428397380713871 [Eh]
	 Total Energy              =    -314.9840432585374970 [Eh]
	-----------------------------------------------------------
	 ================> DF-SCS-MP2 Energies <================== 
	-----------------------------------------------------------
	 SCS Same-Spin Scale       =       0.3333333333333333 [-]
	 SCS Opposite-Spin Scale   =       1.2000000000000000 [-]
	 SCS Same-Spin Energy      =      -0.1057573917908007 [Eh]
	 SCS Opposite-Spin Energy  =      -1.3506810752387814 [Eh]
	 SCS Correlation Energy    =      -1.4564384670295827 [Eh]
	 SCS Total Energy          =    -314.9976419874956832 [Eh]
	-----------------------------------------------------------


  -Total Gradient:
     Atom            X                  Y                   Z
    ------   -----------------  -----------------  -----------------
       1       -0.001290940828    -0.000221203267     0.000840083806
       2       -0.000539438890    -0.001098672579     0.000623049042
       3        0.000375662643     0.000729518942     0.001413213414
       4       -0.001250770308     0.000625022822    -0.000092139708
       5        0.001203375565    -0.000474200035    -0.000893323377
       6        0.001226585038    -0.000502569893     0.000524598100
       7       -0.000223886245    -0.001185354775    -0.000952611337
       8        0.000656506262     0.000893343525    -0.001049129579
       9        0.000263929899    -0.001833960725    -0.000849867820
      10        0.001135873735    -0.001048481487     0.000359307045
      11       -0.000433477729    -0.000977409623    -0.000867677374
      12        0.000220838326     0.000124929898     0.002188156126
      13        0.000558747547     0.000858923264     0.001094463479
      14       -0.000212750484    -0.000964470804     0.001135316959
      15       -0.000358934528     0.000667678216    -0.001950554231
      16        0.000623650143    -0.000282579238    -0.001333132395
      17       -0.001047159332     0.000584426122    -0.000793373723
      18       -0.000666057772     0.002060434988     0.000249495590
      19        0.000189237212     0.001281008110    -0.000543058969
      20       -0.000866550044     0.000686526275     0.000942751961
      21        0.000268696577     0.000053763045     0.002042674739
      22       -0.000384994451    -0.000968377775     0.001085709449
      23        0.000493803615     0.000814695091     0.000991125103
      24       -0.000015555037     0.000320809180    -0.002010333321
      25        0.000474222859     0.000801950664    -0.001026905236
      26       -0.000400613776    -0.000945749941    -0.001127837744


			-----------------------------------------
			 OPTKING 2.0: for geometry optimizations 
			  - R.A. King,  Bethel University        
			-----------------------------------------

	Internal coordinates to be generated automatically.
	Detected frag 1 with atoms:  1 2 3 4 5 6 7 8 9 10 11 12 13 14 15 16 17 18 19 20
	 21 22 23 24 25 26
	---Fragment 1 Bond Connectivity---
	 1 : 2 3 4 9
	 2 : 1
	 3 : 1
	 4 : 1
	 5 : 6 7 8 12
	 6 : 5
	 7 : 5
	 8 : 5
	 9 : 1 10 11 15
	 10 : 9
	 11 : 9
	 12 : 5 13 14 24
	 13 : 12
	 14 : 12
	 15 : 9 16 17 18
	 16 : 15
	 17 : 15
	 18 : 15 19 20 21
	 19 : 18
	 20 : 18
	 21 : 18 22 23 24
	 22 : 21
	 23 : 21
	 24 : 12 21 25 26
	 25 : 24
	 26 : 24

	---Fragment 1 Geometry and Gradient---
	 C           5.6866598655        1.5612651289       -1.3671729262
	 H           6.3094011529        3.4062010352       -2.0256333490
	 H           4.8388508164        0.5815307549       -2.9620799226
	 H           7.3524155334        0.4978147544       -0.7900870720
	 C          -6.8486255202        1.3135545635        0.6523287220
	 H          -8.4889485312        1.9475892749       -0.4114670644
	 H          -6.1838103943        2.8901747579        1.7940495101
	 H          -7.4599525603       -0.1745915217        1.9342245665
	 C           3.8403666232        1.8070089513        0.8160831628
	 H           2.1564290479        2.8140867841        0.1857670991
	 H           4.6833931333        2.9652390284        2.2969895058
	 C          -4.7662178558        0.3667012358       -1.0757752655
	 H          -5.4751932285       -1.1783534312       -2.2428489187
	 H          -4.1989659026        1.8674477002       -2.3718623072
	 C           3.0910721486       -0.7279693180        1.9447687343
	 H           1.7929417773       -0.4168207200        3.5141641184
	 H           4.7687089380       -1.6211731414        2.7480805704
	 C           1.8934682877       -2.5422224304        0.0580611418
	 H           1.2839948435       -4.2366130830        1.0651763340
	 H           3.3135741004       -3.1589982491       -1.3017725658
	 C          -0.3559895937       -1.4425206706       -1.3527735692
	 H           0.2567220473        0.1242470454       -2.5475633417
	 H          -1.1103586559       -2.8769354451       -2.6298662328
	 C          -2.4611186389       -0.5346554614        0.3696094436
	 H          -3.0061770660       -2.0674168479        1.6442821144
	 H          -1.7809909835        1.0041013152        1.5630984007
	            -0.0012909408       -0.0002212033        0.0008400838
	            -0.0005394389       -0.0010986726        0.0006230490
	             0.0003756626        0.0007295189        0.0014132134
	            -0.0012507703        0.0006250228       -0.0000921397
	             0.0012033756       -0.0004742000       -0.0008933234
	             0.0012265850       -0.0005025699        0.0005245981
	            -0.0002238862       -0.0011853548       -0.0009526113
	             0.0006565063        0.0008933435       -0.0010491296
	             0.0002639299       -0.0018339607       -0.0008498678
	             0.0011358737       -0.0010484815        0.0003593070
	            -0.0004334777       -0.0009774096       -0.0008676774
	             0.0002208383        0.0001249299        0.0021881561
	             0.0005587475        0.0008589233        0.0010944635
	            -0.0002127505       -0.0009644708        0.0011353170
	            -0.0003589345        0.0006676782       -0.0019505542
	             0.0006236501       -0.0002825792       -0.0013331324
	            -0.0010471593        0.0005844261       -0.0007933737
	            -0.0006660578        0.0020604350        0.0002494956
	             0.0001892372        0.0012810081       -0.0005430590
	            -0.0008665500        0.0006865263        0.0009427520
	             0.0002686966        0.0000537630        0.0020426747
	            -0.0003849945       -0.0009683778        0.0010857094
	             0.0004938036        0.0008146951        0.0009911251
	            -0.0000155550        0.0003208092       -0.0020103333
	             0.0004742229        0.0008019507       -0.0010269052
	            -0.0004006138       -0.0009457499       -0.0011278377

	Previous optimization step data not found.  Starting new optimization.

	---Fragment 1 Intrafragment Coordinates---
	 - Coordinate -           - BOHR/RAD -       - ANG/DEG -
	 R(1,2)           =         2.055521	       1.087735
	 R(1,3)           =         2.054845	       1.087377
	 R(1,4)           =         2.058810	       1.089475
	 R(1,9)           =         2.869808	       1.518637
	 R(5,6)           =         2.055315	       1.087626
	 R(5,7)           =         2.056997	       1.088516
	 R(5,8)           =         2.057075	       1.088557
	 R(5,12)          =         2.866932	       1.517115
	 R(9,10)          =         2.060861	       1.090561
	 R(9,11)          =         2.060406	       1.090320
	 R(9,15)          =         2.874280	       1.521004
	 R(12,13)         =         2.062014	       1.091171
	 R(12,14)         =         2.062488	       1.091422
	 R(12,24)         =         2.866193	       1.516724
	 R(15,16)         =         2.060330	       1.090279
	 R(15,17)         =         2.063392	       1.091900
	 R(15,18)         =         2.878443	       1.523207
	 R(18,19)         =         2.063177	       1.091786
	 R(18,20)         =         2.060646	       1.090447
	 R(18,21)         =         2.873997	       1.520854
	 R(21,22)         =         2.063419	       1.091914
	 R(21,23)         =         2.063391	       1.091900
	 R(21,24)         =         2.867471	       1.517400
	 R(24,25)         =         2.066697	       1.093649
	 R(24,26)         =         2.062707	       1.091538
	 B(1,9,10)        =         1.912240	     109.563304
	 B(1,9,11)        =         1.908905	     109.372191
	 B(1,9,15)        =         1.972443	     113.012636
	 B(2,1,3)         =         1.880008	     107.716547
	 B(2,1,4)         =         1.884189	     107.956077
	 B(2,1,9)         =         1.940945	     111.207962
	 B(3,1,4)         =         1.880841	     107.764266
	 B(3,1,9)         =         1.945366	     111.461248
	 B(4,1,9)         =         1.929985	     110.579974
	 B(5,12,13)       =         1.916531	     109.809150
	 B(5,12,14)       =         1.915846	     109.769879
	 B(5,12,24)       =         1.964978	     112.584972
	 B(6,5,7)         =         1.884702	     107.985499
	 B(6,5,8)         =         1.884442	     107.970555
	 B(6,5,12)        =         1.949368	     111.690537
	 B(7,5,8)         =         1.880367	     107.737087
	 B(7,5,12)        =         1.931515	     110.667679
	 B(8,5,12)        =         1.931103	     110.644033
	 B(9,15,16)       =         1.907285	     109.279358
	 B(9,15,17)       =         1.899383	     108.826654
	 B(9,15,18)       =         1.989918	     114.013904
	 B(10,9,11)       =         1.854020	     106.227541
	 B(10,9,15)       =         1.915667	     109.759624
	 B(11,9,15)       =         1.896737	     108.675038
	 B(12,24,21)      =         1.968263	     112.773165
	 B(12,24,25)      =         1.909385	     109.399686
	 B(12,24,26)      =         1.899020	     108.805845
	 B(13,12,14)      =         1.858872	     106.505497
	 B(13,12,24)      =         1.903184	     109.044438
	 B(14,12,24)      =         1.901316	     108.937357
	 B(15,18,19)      =         1.897136	     108.697893
	 B(15,18,20)      =         1.911835	     109.540100
	 B(15,18,21)      =         1.989129	     113.968692
	 B(16,15,17)      =         1.855728	     106.325375
	 B(16,15,18)      =         1.909560	     109.409743
	 B(17,15,18)      =         1.897177	     108.700263
	 B(18,21,22)      =         1.920237	     110.021493
	 B(18,21,23)      =         1.900730	     108.903786
	 B(18,21,24)      =         1.983285	     113.633876
	 B(19,18,20)      =         1.854481	     106.253935
	 B(19,18,21)      =         1.899331	     108.823657
	 B(20,18,21)      =         1.907079	     109.267561
	 B(21,24,25)      =         1.906333	     109.224824
	 B(21,24,26)      =         1.919486	     109.978429
	 B(22,21,23)      =         1.852538	     106.142609
	 B(22,21,24)      =         1.902228	     108.989642
	 B(23,21,24)      =         1.900186	     108.872639
	 B(25,24,26)      =         1.858089	     106.460665
	 D(1,9,15,16)     =         3.126078	     179.111104
	 D(1,9,15,17)     =         1.106482	      63.396760
	 D(1,9,15,18)     =        -1.014371	     -58.119190
	 D(2,1,9,10)      =         1.084998	      62.165827
	 D(2,1,9,11)      =        -0.940640	     -53.894727
	 D(2,1,9,15)      =        -3.056070	    -175.099928
	 D(3,1,9,10)      =        -1.013189	     -58.051468
	 D(3,1,9,11)      =        -3.038828	    -174.112022
	 D(3,1,9,15)      =         1.128927	      64.682777
	 D(4,1,9,10)      =        -3.105034	    -177.905360
	 D(4,1,9,11)      =         1.152512	      66.034086
	 D(4,1,9,15)      =        -0.962918	     -55.171115
	 D(5,12,24,21)    =        -3.124772	    -179.036257
	 D(5,12,24,25)    =         1.033201	      59.198065
	 D(5,12,24,26)    =        -0.990163	     -56.732156
	 D(6,5,12,13)     =        -1.014726	     -58.139540
	 D(6,5,12,14)     =         1.023235	      58.627049
	 D(6,5,12,24)     =        -3.138776	    -179.838615
	 D(7,5,12,13)     =        -3.115144	    -178.484584
	 D(7,5,12,14)     =        -1.077182	     -61.717995
	 D(7,5,12,24)     =         1.043992	      59.816341
	 D(8,5,12,13)     =         1.085079	      62.170452
	 D(8,5,12,14)     =         3.123041	     178.937042
	 D(8,5,12,24)     =        -1.038970	     -59.528623
	 D(9,15,18,19)    =        -3.062582	    -175.473003
	 D(9,15,18,20)    =         1.201253	      68.826752
	 D(9,15,18,21)    =        -0.941134	     -53.923027
	 D(10,9,15,16)    =        -1.016899	     -58.263997
	 D(10,9,15,17)    =        -3.036495	    -173.978340
	 D(10,9,15,18)    =         1.125837	      64.505710
	 D(11,9,15,16)    =         1.003776	      57.512142
	 D(11,9,15,17)    =        -1.015820	     -58.202202
	 D(11,9,15,18)    =        -3.136673	    -179.718152
	 D(12,24,21,18)   =        -3.064150	    -175.562839
	 D(12,24,21,22)   =         1.070879	      61.356837
	 D(12,24,21,23)   =        -0.942609	     -54.007520
	 D(13,12,24,21)   =         1.026806	      58.831636
	 D(13,12,24,25)   =        -1.098406	     -62.934042
	 D(13,12,24,26)   =        -3.121770	    -178.864263
	 D(14,12,24,21)   =        -0.995357	     -57.029746
	 D(14,12,24,25)   =        -3.120569	    -178.795425
	 D(14,12,24,26)   =         1.139252	      65.274354
	 D(15,18,21,22)   =         1.135952	      65.085237
	 D(15,18,21,23)   =        -3.123543	    -178.965803
	 D(15,18,21,24)   =        -1.002305	     -57.427843
	 D(16,15,18,19)   =        -0.921089	     -52.774503
	 D(16,15,18,20)   =        -2.940439	    -168.474749
	 D(16,15,18,21)   =         1.200358	      68.775473
	 D(17,15,18,19)   =         1.098530	      62.941120
	 D(17,15,18,20)   =        -0.920820	     -52.759126
	 D(17,15,18,21)   =        -3.063208	    -175.508904
	 D(18,21,24,25)   =        -0.937214	     -53.698388
	 D(18,21,24,26)   =         1.095967	      62.794296
	 D(19,18,21,22)   =        -3.027002	    -173.434455
	 D(19,18,21,23)   =        -1.003311	     -57.485495
	 D(19,18,21,24)   =         1.117926	      64.052465
	 D(20,18,21,22)   =        -1.009034	     -57.813362
	 D(20,18,21,23)   =         1.014658	      58.135598
	 D(20,18,21,24)   =         3.135895	     179.673558
	 D(22,21,24,25)   =        -3.085371	    -176.778712
	 D(22,21,24,26)   =        -1.052190	     -60.286027
	 D(23,21,24,25)   =         1.184327	      67.856931
	 D(23,21,24,26)   =        -3.065678	    -175.650385
	 R(1,21)          =         6.748077	       3.570929
	 R(9,24)          =         6.737318	       3.565235

	Current energy   :      -314.9840432585

	Generating empirical Hessian (Schlegel '84) for each fragment.
	Taking RFO optimization step.
	Going to follow RFO solution 1.
	Using RFO vector 1.
	Norm of target step-size    0.08425
	Projected energy change by RFO approximation:        -0.0003190375

	Back-transformation to cartesian coordinates...
	Could not converge backtransformation.
	Using first guess instead.

	--- Internal Coordinate Step in ANG or DEG, aJ/ANG or AJ/DEG ---
	 ---------------------------------------------------------------------------
	   Coordinate                Previous        Force       Change         New 
	   ----------                --------       ------       ------       ------
	    1 R(1,2)          =      1.087735     0.011115     0.002063     1.089798
	    2 R(1,3)          =      1.087377     0.013179     0.002420     1.089797
	    3 R(1,4)          =      1.089475     0.011210     0.002105     1.091580
	    4 R(1,9)          =      1.518637     0.028134     0.006393     1.525030
	    5 R(5,6)          =      1.087626     0.011579     0.002150     1.089776
	    6 R(5,7)          =      1.088516     0.012437     0.002379     1.090895
	    7 R(5,8)          =      1.088557     0.012318     0.002343     1.090900
	    8 R(5,12)         =      1.517115     0.032354     0.006808     1.523922
	    9 R(9,10)         =      1.090561     0.012773     0.002365     1.092925
	   10 R(9,11)         =      1.090320     0.011126     0.002059     1.092379
	   11 R(9,15)         =      1.521004     0.027391     0.006897     1.527901
	   12 R(12,13)        =      1.091171     0.011989     0.002320     1.093490
	   13 R(12,14)        =      1.091422     0.012142     0.002308     1.093730
	   14 R(12,24)        =      1.516724     0.034467     0.007238     1.523962
	   15 R(15,16)        =      1.090279     0.011955     0.002259     1.092538
	   16 R(15,17)        =      1.091900     0.011643     0.002172     1.094073
	   17 R(15,18)        =      1.523207     0.027781     0.007213     1.530419
	   18 R(18,19)        =      1.091786     0.011312     0.002107     1.093893
	   19 R(18,20)        =      1.090447     0.011739     0.002202     1.092649
	   20 R(18,21)        =      1.520854     0.027712     0.006980     1.527834
	   21 R(21,22)        =      1.091914     0.012179     0.002259     1.094173
	   22 R(21,23)        =      1.091900     0.011207     0.002083     1.093983
	   23 R(21,24)        =      1.517400     0.029787     0.006795     1.524195
	   24 R(24,25)        =      1.093649     0.011149     0.002121     1.095770
	   25 R(24,26)        =      1.091538     0.012277     0.002326     1.093864
	   26 B(1,9,10)       =    109.563304    -0.000006    -0.008331   109.554973
	   27 B(1,9,11)       =    109.372191     0.000010    -0.061931   109.310260
	   28 B(1,9,15)       =    113.012636    -0.000017     0.104715   113.117351
	   29 B(2,1,3)        =    107.716547    -0.000024    -0.118480   107.598066
	   30 B(2,1,4)        =    107.956077    -0.000023    -0.120405   107.835672
	   31 B(2,1,9)        =    111.207962     0.000015     0.061757   111.269720
	   32 B(3,1,4)        =    107.764266    -0.000025    -0.097269   107.666997
	   33 B(3,1,9)        =    111.461248     0.000027     0.128207   111.589455
	   34 B(4,1,9)        =    110.579974     0.000026     0.127429   110.707404
	   35 B(5,12,13)      =    109.809150    -0.000002    -0.012415   109.796735
	   36 B(5,12,14)      =    109.769879    -0.000000    -0.014438   109.755441
	   37 B(5,12,24)      =    112.584972    -0.000006     0.015656   112.600628
	   38 B(6,5,7)        =    107.985499    -0.000021    -0.107730   107.877769
	   39 B(6,5,8)        =    107.970555    -0.000021    -0.100474   107.870081
	   40 B(6,5,12)       =    111.690537     0.000015     0.058039   111.748575
	   41 B(7,5,8)        =    107.737087    -0.000023    -0.094094   107.642993
	   42 B(7,5,12)       =    110.667679     0.000022     0.104767   110.772446
	   43 B(8,5,12)       =    110.644033     0.000025     0.123776   110.767808
	   44 B(9,15,16)      =    109.279358    -0.000001    -0.079326   109.200032
	   45 B(9,15,17)      =    108.826654     0.000055     0.025220   108.851874
	   46 B(9,15,18)      =    114.013904    -0.000099     0.082609   114.096513
	   47 B(10,9,11)      =    106.227541    -0.000014    -0.180754   106.046787
	   48 B(10,9,15)      =    109.759624     0.000014     0.081325   109.840949
	   49 B(11,9,15)      =    108.675038     0.000012     0.046188   108.721226
	   50 B(12,24,21)     =    112.773165     0.000008     0.065324   112.838489
	   51 B(12,24,25)     =    109.399686    -0.000010    -0.073459   109.326227
	   52 B(12,24,26)     =    108.805845    -0.000000     0.026478   108.832323
	   53 B(13,12,14)     =    106.505497    -0.000013    -0.180731   106.324765
	   54 B(13,12,24)     =    109.044438     0.000012     0.107430   109.151869
	   55 B(14,12,24)     =    108.937357     0.000009     0.074415   109.011771
	   56 B(15,18,19)     =    108.697893     0.000019     0.049933   108.747826
	   57 B(15,18,20)     =    109.540100     0.000050     0.009513   109.549613
	   58 B(15,18,21)     =    113.968692    -0.000099     0.103511   114.072203
	   59 B(16,15,17)     =    106.325375    -0.000027    -0.183673   106.141702
	   60 B(16,15,18)     =    109.409743     0.000055     0.094763   109.504506
	   61 B(17,15,18)     =    108.700263     0.000021     0.040824   108.741086
	   62 B(18,21,22)     =    110.021493     0.000003     0.004591   110.026085
	   63 B(18,21,23)     =    108.903786     0.000008    -0.003521   108.900265
	   64 B(18,21,24)     =    113.633876    -0.000010     0.146149   113.780025
	   65 B(19,18,20)     =    106.253935    -0.000026    -0.178523   106.075412
	   66 B(19,18,21)     =    108.823657     0.000059     0.084654   108.908311
	   67 B(20,18,21)     =    109.267561     0.000002    -0.088563   109.178998
	   68 B(21,24,25)     =    109.224824     0.000008     0.064237   109.289061
	   69 B(21,24,26)     =    109.978429     0.000004     0.074465   110.052894
	   70 B(22,21,23)     =    106.142609    -0.000011    -0.165427   105.977182
	   71 B(22,21,24)     =    108.989642    -0.000000     0.057826   109.047468
	   72 B(23,21,24)     =    108.872639     0.000010    -0.062840   108.809799
	   73 B(25,24,26)     =    106.460665    -0.000010    -0.172422   106.288243
	   74 D(1,9,15,16)    =    179.111104     0.000003    -0.423033   178.688071
	   75 D(1,9,15,17)    =     63.396760     0.000003    -0.174825    63.221935
	   76 D(1,9,15,18)    =    -58.119190     0.000003    -0.301596   -58.420785
	   77 D(2,1,9,10)     =     62.165827    -0.000001    -0.430658    61.735169
	   78 D(2,1,9,11)     =    -53.894727     0.000002    -0.173779   -54.068506
	   79 D(2,1,9,15)     =   -175.099928    -0.000001    -0.258738  -175.358666
	   80 D(3,1,9,10)     =    -58.051468    -0.000001    -0.409248   -58.460716
	   81 D(3,1,9,11)     =   -174.112022     0.000002    -0.152369  -174.264391
	   82 D(3,1,9,15)     =     64.682777    -0.000001    -0.237328    64.445449
	   83 D(4,1,9,10)     =   -177.905360    -0.000002    -0.456797  -178.362157
	   84 D(4,1,9,11)     =     66.034086     0.000001    -0.199919    65.834167
	   85 D(4,1,9,15)     =    -55.171115    -0.000001    -0.284877   -55.455992
	   86 D(5,12,24,21)   =   -179.036257    -0.000000    -0.303440  -179.339697
	   87 D(5,12,24,25)   =     59.198065    -0.000002    -0.377180    58.820885
	   88 D(5,12,24,26)   =    -56.732156     0.000002    -0.145798   -56.877954
	   89 D(6,5,12,13)    =    -58.139540     0.000002     0.072844   -58.066697
	   90 D(6,5,12,14)    =     58.627049    -0.000002    -0.161875    58.465174
	   91 D(6,5,12,24)    =   -179.838615    -0.000000    -0.066437  -179.905053
	   92 D(7,5,12,13)    =   -178.484584     0.000002     0.099007  -178.385576
	   93 D(7,5,12,14)    =    -61.717995    -0.000002    -0.135711   -61.853706
	   94 D(7,5,12,24)    =     59.816341     0.000000    -0.040273    59.776067
	   95 D(8,5,12,13)    =     62.170452     0.000002     0.068800    62.239252
	   96 D(8,5,12,14)    =    178.937042    -0.000002    -0.165919   178.771123
	   97 D(8,5,12,24)    =    -59.528623    -0.000000    -0.070481   -59.599104
	   98 D(9,15,18,19)   =   -175.473003     0.000007     0.301652  -175.171350
	   99 D(9,15,18,20)   =     68.826752     0.000005     0.481734    69.308486
	  100 D(9,15,18,21)   =    -53.923027     0.000012     0.516679   -53.406348
	  101 D(10,9,15,16)   =    -58.263997     0.000001    -0.300471   -58.564467
	  102 D(10,9,15,17)   =   -173.978340     0.000001    -0.052263  -174.030603
	  103 D(10,9,15,18)   =     64.505710     0.000001    -0.179034    64.326676
	  104 D(11,9,15,16)   =     57.512142     0.000000    -0.446071    57.066070
	  105 D(11,9,15,17)   =    -58.202202     0.000001    -0.197863   -58.400065
	  106 D(11,9,15,18)   =   -179.718152     0.000001    -0.324634  -180.042786
	  107 D(12,24,21,18)  =   -175.562839    -0.000001    -0.328299  -175.891139
	  108 D(12,24,21,22)  =     61.356837    -0.000000    -0.479702    60.877135
	  109 D(12,24,21,23)  =    -54.007520     0.000002    -0.280394   -54.287915
	  110 D(13,12,24,21)  =     58.831636    -0.000001    -0.374329    58.457307
	  111 D(13,12,24,25)  =    -62.934042    -0.000003    -0.448069   -63.382111
	  112 D(13,12,24,26)  =   -178.864263     0.000001    -0.216686  -179.080950
	  113 D(14,12,24,21)  =    -57.029746     0.000000    -0.258842   -57.288589
	  114 D(14,12,24,25)  =   -178.795425    -0.000002    -0.332582  -179.128006
	  115 D(14,12,24,26)  =     65.274354     0.000002    -0.101200    65.173155
	  116 D(15,18,21,22)  =     65.085237     0.000002    -0.421307    64.663930
	  117 D(15,18,21,23)  =   -178.965803    -0.000000    -0.619488  -179.585291
	  118 D(15,18,21,24)  =    -57.427843     0.000003    -0.604485   -58.032328
	  119 D(16,15,18,19)  =    -52.774503    -0.000000     0.328414   -52.446089
	  120 D(16,15,18,20)  =   -168.474749    -0.000002     0.508496  -167.966253
	  121 D(16,15,18,21)  =     68.775473     0.000005     0.543441    69.318913
	  122 D(17,15,18,19)  =     62.941120     0.000002     0.183691    63.124811
	  123 D(17,15,18,20)  =    -52.759126     0.000001     0.363773   -52.395353
	  124 D(17,15,18,21)  =   -175.508904     0.000007     0.398717  -175.110187
	  125 D(18,21,24,25)  =    -53.698388    -0.000001    -0.332373   -54.030761
	  126 D(18,21,24,26)  =     62.794296    -0.000003    -0.460818    62.333478
	  127 D(19,18,21,22)  =   -173.434455     0.000002    -0.225143  -173.659598
	  128 D(19,18,21,23)  =    -57.485495     0.000000    -0.423324   -57.908819
	  129 D(19,18,21,24)  =     64.052465     0.000003    -0.408321    63.644144
	  130 D(20,18,21,22)  =    -57.813362     0.000002    -0.439536   -58.252898
	  131 D(20,18,21,23)  =     58.135598     0.000001    -0.637717    57.497881
	  132 D(20,18,21,24)  =    179.673558     0.000004    -0.622714   179.050844
	  133 D(22,21,24,25)  =   -176.778712    -0.000000    -0.483776  -177.262487
	  134 D(22,21,24,26)  =    -60.286027    -0.000002    -0.612221   -60.898248
	  135 D(23,21,24,25)  =     67.856931     0.000001    -0.284468    67.572463
	  136 D(23,21,24,26)  =   -175.650385     0.000000    -0.412913  -176.063298
	  137 R(1,21)         =      3.570929     0.006821     0.017190     3.588119
	  138 R(9,24)         =      3.565235     0.008537     0.023349     3.588584
	 ---------------------------------------------------------------------------

  ==> Convergence Check <==

  Measures of convergence in internal coordinates in au.
  Criteria marked as inactive (o), active & met (*), and active & unmet ( ).
  --------------------------------------------------------------------------------------------- ~
   Step     Total Energy     Delta E     MAX Force     RMS Force      MAX Disp      RMS Disp    ~
  --------------------------------------------------------------------------------------------- ~
    Convergence Criteria             o    2.00e-06 *    1.00e-06 *    6.00e-06 *    4.00e-06 *  ~
  --------------------------------------------------------------------------------------------- ~
      1    -314.98404326   -3.15e+02 o    4.18e-03      1.00e-03      4.41e-02      7.18e-03    ~
  ---------------------------------------------------------------------------------------------

	Writing optimization data to binary file.
	Structure for next step:
	Cartesian Geometry (in Angstrom)
	    C     3.0227174067   0.8314942253  -0.7316246950
	    H     3.3462412067   1.8101554588  -1.0854801433
	    H     2.5750669914   0.3073624531  -1.5757524819
	    H     3.9116049980   0.2745740145  -0.4295214587
	    C    -3.6453345036   0.6957390606   0.3426191565
	    H    -4.5110593953   1.0392769746  -0.2231670328
	    H    -3.2981420850   1.5253170529   0.9601219816
	    H    -3.9770232960  -0.0988357611   1.0124671123
	    C     2.0451507269   0.9593045321   0.4318807157
	    H     1.1509300696   1.4937184105   0.1013398728
	    H     2.4934637655   1.5758553662   1.2142951169
	    C    -2.5323467646   0.2009277092  -0.5732190275
	    H    -2.9053256829  -0.6103801564  -1.2043985396
	    H    -2.2277688286   1.0030000633  -1.2515679804
	    C     1.6508496566  -0.3880665902   1.0348723777
	    H     0.9709610286  -0.2211656997   1.8736423522
	    H     2.5427864896  -0.8615588003   1.4558812278
	    C     1.0054600970  -1.3537399184   0.0383129264
	    H     0.6814392078  -2.2494551500   0.5761850592
	    H     1.7541938813  -1.6885949872  -0.6835955140
	    C    -0.1891434721  -0.7679400845  -0.7127110884
	    H     0.1371173505   0.0622711976  -1.3463660469
	    H    -0.5873226348  -1.5270827110  -1.3923830487
	    C    -1.3120976307  -0.2866507775   0.1986101588
	    H    -1.6086214447  -1.1012559340   0.8688364130
	    H    -0.9533084927   0.5233524361   0.8402514511
			--------------------------
			 OPTKING Finished Execution 
			--------------------------

    Structure for next step:
    Molecular point group: c1
    Full point group: C1

    Geometry (in Angstrom), charge = 0, multiplicity = 1:

    C            3.022416467074     0.831851637323    -0.732092639121
    H            3.345940267061     1.810512870874    -1.085948087402
    H            2.574766051728     0.307719865112    -1.576220426014
    H            3.911304058401     0.274931426535    -0.429989402788
    C           -3.645635443244     0.696096472703     0.342151212338
    H           -4.511360334979     1.039634386683    -0.223634976907
    H           -3.298443024661     1.525674464906     0.959654037431
    H           -3.977324235622    -0.098478349017     1.011999168173
    C            2.044849787240     0.959661944172     0.431412771588
    H            1.150629129988     1.494075822504     0.100871928627
    H            2.493162825824     1.576212778279     1.213827172775
    C           -2.532647704198     0.201285121273    -0.573686971591
    H           -2.905626622562    -0.610022744393    -1.204866483721
    H           -2.228069768276     1.003357475351    -1.252035924492
    C            1.650548716970    -0.387709178189     1.034404433542
    H            0.970660088929    -0.220808287671     1.873174408035
    H            2.542485549952    -0.861201388203     1.455413283655
    C            1.005159157368    -1.353382506354     0.037844982318
    H            0.681138268166    -2.249097737901     0.575717115025
    H            1.753892941609    -1.688237575143    -0.684063458099
    C           -0.189444411741    -0.767582672460    -0.713179032572
    H            0.136816410826     0.062628609639    -1.346833991041
    H           -0.587623574433    -1.526725298989    -1.392850992819
    C           -1.312398570361    -0.286293365436     0.198142214704
    H           -1.608922384373    -1.100898521958     0.868368468849
    H           -0.953609432393     0.523709848180     0.839783506938

gradient() will perform analytic gradient computation.

*** tstart() called on wr37
*** at Tue Sep 20 16:52:05 2016


         ---------------------------------------------------------
                                   SCF
            by Justin Turney, Rob Parrish, and Andy Simmonett
                              RHF Reference
                       12 Threads,  30000 MiB Core
         ---------------------------------------------------------

  ==> Geometry <==

    Molecular point group: c1
    Full point group: C1

    Geometry (in Angstrom), charge = 0, multiplicity = 1:

       Center              X                  Y                   Z               Mass       
    ------------   -----------------  -----------------  -----------------  -----------------
           C          3.022416467074     0.831851637323    -0.732092639121    12.000000000000
           H          3.345940267061     1.810512870874    -1.085948087402     1.007825032070
           H          2.574766051728     0.307719865112    -1.576220426014     1.007825032070
           H          3.911304058401     0.274931426535    -0.429989402788     1.007825032070
           C         -3.645635443244     0.696096472703     0.342151212338    12.000000000000
           H         -4.511360334979     1.039634386683    -0.223634976907     1.007825032070
           H         -3.298443024661     1.525674464906     0.959654037431     1.007825032070
           H         -3.977324235622    -0.098478349017     1.011999168173     1.007825032070
           C          2.044849787240     0.959661944172     0.431412771588    12.000000000000
           H          1.150629129988     1.494075822504     0.100871928627     1.007825032070
           H          2.493162825824     1.576212778279     1.213827172775     1.007825032070
           C         -2.532647704198     0.201285121273    -0.573686971591    12.000000000000
           H         -2.905626622562    -0.610022744393    -1.204866483721     1.007825032070
           H         -2.228069768276     1.003357475351    -1.252035924492     1.007825032070
           C          1.650548716970    -0.387709178189     1.034404433542    12.000000000000
           H          0.970660088929    -0.220808287671     1.873174408035     1.007825032070
           H          2.542485549952    -0.861201388203     1.455413283655     1.007825032070
           C          1.005159157368    -1.353382506354     0.037844982318    12.000000000000
           H          0.681138268166    -2.249097737901     0.575717115025     1.007825032070
           H          1.753892941609    -1.688237575143    -0.684063458099     1.007825032070
           C         -0.189444411741    -0.767582672460    -0.713179032572    12.000000000000
           H          0.136816410826     0.062628609639    -1.346833991041     1.007825032070
           H         -0.587623574433    -1.526725298989    -1.392850992819     1.007825032070
           C         -1.312398570361    -0.286293365436     0.198142214704    12.000000000000
           H         -1.608922384373    -1.100898521958     0.868368468849     1.007825032070
           H         -0.953609432393     0.523709848180     0.839783506938     1.007825032070

  Running in c1 symmetry.

  Rotational constants: A =      0.12149  B =      0.02656  C =      0.02546 [cm^-1]
  Rotational constants: A =   3642.04419  B =    796.36099  C =    763.16833 [MHz]
  Nuclear repulsion =  397.581254571083321

  Charge       = 0
  Multiplicity = 1
  Electrons    = 66
  Nalpha       = 33
  Nbeta        = 33

  ==> Algorithm <==

  SCF Algorithm Type is DF.
  DIIS enabled.
  MOM disabled.
  Fractional occupation disabled.
  Guess Type is READ.
  Energy threshold   = 1.00e-10
  Density threshold  = 1.00e-10
  Integral threshold = 0.00e+00

  ==> Primary Basis <==

  Basis Set: AUG-CC-PVTZ
    Number of shells: 274
    Number of basis function: 782
    Number of Cartesian functions: 890
    Spherical Harmonics?: true
    Max angular momentum: 3

  ==> Pre-Iterations <==

   -------------------------------------------------------
    Irrep   Nso     Nmo     Nalpha   Nbeta   Ndocc  Nsocc
   -------------------------------------------------------
     A        782     782       0       0       0       0
   -------------------------------------------------------
    Total     782     782      33      33      33       0
   -------------------------------------------------------

  ==> Integral Setup <==

  ==> DFJK: Density-Fitted J/K Matrices <==

    J tasked:                  Yes
    K tasked:                  Yes
    wK tasked:                  No
    OpenMP threads:             12
    Integrals threads:          12
    Memory (MB):             21457
    Algorithm:                Core
    Integral Cache:           NONE
    Schwarz Cutoff:          1E-12
    Fitting Condition:       1E-12

   => Auxiliary Basis Set <=

  Basis Set: 
    Number of shells: 492
    Number of basis function: 1660
    Number of Cartesian functions: 2038
    Spherical Harmonics?: true
    Max angular momentum: 4

  Minimum eigenvalue in the overlap matrix is 1.9538871306E-06.
  Using Symmetric Orthogonalization.
  SCF Guess: Reading in previously saved MOs, projecting if necessary.

  Using orbitals from previous SCF, no projection.
  Recomputing DOCC and SOCC from number of alpha and beta electrons from previous calculation.
              A 
    DOCC [    33 ]

  ==> Iterations <==

                           Total Energy        Delta E     RMS |[F,P]|

   @DF-RHF iter   0:  -313.49680200798520   -3.13497e+02   5.96833e-05 
   @DF-RHF iter   1:  -313.54142101521296   -4.46190e-02   1.72586e-05 
   @DF-RHF iter   2:  -313.54151610443063   -9.50892e-05   9.24110e-06 DIIS
   @DF-RHF iter   3:  -313.54154259519470   -2.64908e-05   1.40855e-06 DIIS
   @DF-RHF iter   4:  -313.54154419863431   -1.60344e-06   3.48414e-07 DIIS
   @DF-RHF iter   5:  -313.54154427210216   -7.34678e-08   1.10776e-07 DIIS
   @DF-RHF iter   6:  -313.54154427894190   -6.83974e-09   2.07338e-08 DIIS
   @DF-RHF iter   7:  -313.54154427923078   -2.88878e-10   5.09431e-09 DIIS
   @DF-RHF iter   8:  -313.54154427924396   -1.31877e-11   1.30207e-09 DIIS
   @DF-RHF iter   9:  -313.54154427924385    1.13687e-13   3.34621e-10 DIIS
   @DF-RHF iter  10:  -313.54154427924442   -5.68434e-13   8.93566e-11 DIIS

  ==> Post-Iterations <==

    Orbital Energies (a.u.)
    -----------------------

    Doubly Occupied:                                                      

       1A    -11.212823     2A    -11.212477     3A    -11.210471  
       4A    -11.210113     5A    -11.209761     6A    -11.209434  
       7A    -11.207377     8A    -11.206924     9A     -1.095960  
      10A     -1.059265    11A     -1.007330    12A     -0.946209  
      13A     -0.889809    14A     -0.828087    15A     -0.792188  
      16A     -0.747374    17A     -0.655071    18A     -0.629173  
      19A     -0.618816    20A     -0.583616    21A     -0.569679  
      22A     -0.565250    23A     -0.545036    24A     -0.531892  
      25A     -0.518804    26A     -0.495638    27A     -0.490555  
      28A     -0.473932    29A     -0.469870    30A     -0.462450  
      31A     -0.444558    32A     -0.439096    33A     -0.434442  

    Virtual:                                                              

      34A      0.029171    35A      0.032842    36A      0.033601  
      37A      0.034118    38A      0.047058    39A      0.048084  
      40A      0.049386    41A      0.053109    42A      0.056857  
      43A      0.065790    44A      0.068439    45A      0.069729  
      46A      0.073645    47A      0.080746    48A      0.085614  
      49A      0.091205    50A      0.096904    51A      0.103171  
      52A      0.113101    53A      0.114794    54A      0.117885  
      55A      0.124490    56A      0.126582    57A      0.129401  
      58A      0.133689    59A      0.137402    60A      0.140450  
      61A      0.143230    62A      0.145733    63A      0.149536  
      64A      0.157206    65A      0.160404    66A      0.163693  
      67A      0.163966    68A      0.168092    69A      0.171567  
      70A      0.177549    71A      0.180310    72A      0.183892  
      73A      0.185780    74A      0.190731    75A      0.193989  
      76A      0.205329    77A      0.213322    78A      0.221363  
      79A      0.222850    80A      0.236617    81A      0.239543  
      82A      0.248021    83A      0.253508    84A      0.256535  
      85A      0.266150    86A      0.272426    87A      0.277525  
      88A      0.283127    89A      0.287851    90A      0.292722  
      91A      0.299678    92A      0.301320    93A      0.306442  
      94A      0.308269    95A      0.313310    96A      0.321019  
      97A      0.325799    98A      0.329283    99A      0.332450  
     100A      0.335240   101A      0.336658   102A      0.343102  
     103A      0.349400   104A      0.350681   105A      0.354574  
     106A      0.359561   107A      0.365309   108A      0.366256  
     109A      0.368063   110A      0.373180   111A      0.376530  
     112A      0.380075   113A      0.382930   114A      0.386178  
     115A      0.390784   116A      0.394694   117A      0.397541  
     118A      0.403930   119A      0.405728   120A      0.415709  
     121A      0.418724   122A      0.420141   123A      0.425330  
     124A      0.429166   125A      0.433729   126A      0.442144  
     127A      0.445348   128A      0.450214   129A      0.452048  
     130A      0.454018   131A      0.458212   132A      0.459445  
     133A      0.461648   134A      0.465866   135A      0.467304  
     136A      0.469706   137A      0.472814   138A      0.479370  
     139A      0.482471   140A      0.483677   141A      0.490671  
     142A      0.491814   143A      0.498901   144A      0.504486  
     145A      0.507450   146A      0.511004   147A      0.518005  
     148A      0.522014   149A      0.524620   150A      0.528608  
     151A      0.533249   152A      0.537322   153A      0.539541  
     154A      0.542920   155A      0.546093   156A      0.551375  
     157A      0.555669   158A      0.562041   159A      0.565649  
     160A      0.566287   161A      0.570350   162A      0.582384  
     163A      0.588328   164A      0.589459   165A      0.593577  
     166A      0.598542   167A      0.599267   168A      0.608375  
     169A      0.611811   170A      0.616193   171A      0.618353  
     172A      0.627020   173A      0.630986   174A      0.636428  
     175A      0.642896   176A      0.646679   177A      0.648894  
     178A      0.653965   179A      0.657267   180A      0.665688  
     181A      0.673484   182A      0.677466   183A      0.680700  
     184A      0.683431   185A      0.691527   186A      0.697840  
     187A      0.701906   188A      0.707464   189A      0.713112  
     190A      0.722316   191A      0.729048   192A      0.737813  
     193A      0.744663   194A      0.752229   195A      0.754868  
     196A      0.757757   197A      0.767486   198A      0.770016  
     199A      0.776029   200A      0.784150   201A      0.793687  
     202A      0.810655   203A      0.816471   204A      0.818896  
     205A      0.825568   206A      0.832272   207A      0.848430  
     208A      0.850133   209A      0.854660   210A      0.857007  
     211A      0.864562   212A      0.869080   213A      0.874926  
     214A      0.884599   215A      0.888857   216A      0.895051  
     217A      0.903762   218A      0.907280   219A      0.910485  
     220A      0.917750   221A      0.923718   222A      0.923961  
     223A      0.927908   224A      0.934429   225A      0.938924  
     226A      0.942133   227A      0.947168   228A      0.949014  
     229A      0.957938   230A      0.962791   231A      0.965771  
     232A      0.967634   233A      0.971460   234A      0.979283  
     235A      0.984167   236A      0.992632   237A      1.000374  
     238A      1.003188   239A      1.005062   240A      1.011659  
     241A      1.017611   242A      1.023394   243A      1.026564  
     244A      1.029713   245A      1.031033   246A      1.036549  
     247A      1.048409   248A      1.051720   249A      1.055743  
     250A      1.059861   251A      1.065921   252A      1.074593  
     253A      1.075923   254A      1.077365   255A      1.088625  
     256A      1.093850   257A      1.100822   258A      1.108764  
     259A      1.111992   260A      1.118563   261A      1.122540  
     262A      1.129630   263A      1.132635   264A      1.142853  
     265A      1.147236   266A      1.149509   267A      1.155021  
     268A      1.160113   269A      1.164071   270A      1.170638  
     271A      1.177110   272A      1.180397   273A      1.184113  
[...]
	Denominators (dg)(dq) or (dq)(dq) are very small.
	 Skipping Hessian update for step 7.
	Denominators (dg)(dq) or (dq)(dq) are very small.
	 Skipping Hessian update for step 6.
	Steps to be used in Hessian update: 5 4
	Taking RFO optimization step.
	Going to follow RFO solution 1.
	Using RFO vector 1.
	Norm of target step-size    0.00002
	Projected energy change by RFO approximation:        -0.0000000000

	Back-transformation to cartesian coordinates...
	Successfully converged to displaced geometry.

	--- Internal Coordinate Step in ANG or DEG, aJ/ANG or AJ/DEG ---
	 ---------------------------------------------------------------------------
	   Coordinate                Previous        Force       Change         New 
	   ----------                --------       ------       ------       ------
	    1 R(1,2)          =      1.089748     0.000001     0.000000     1.089748
	    2 R(1,3)          =      1.089857     0.000000     0.000000     1.089857
	    3 R(1,4)          =      1.091414     0.000001     0.000000     1.091414
	    4 R(1,9)          =      1.524713     0.000001     0.000000     1.524714
	    5 R(5,6)          =      1.089735     0.000001     0.000000     1.089735
	    6 R(5,7)          =      1.090725     0.000001     0.000000     1.090725
	    7 R(5,8)          =      1.090721     0.000001     0.000000     1.090721
	    8 R(5,12)         =      1.523629     0.000000    -0.000000     1.523629
	    9 R(9,10)         =      1.092908    -0.000000    -0.000000     1.092908
	   10 R(9,11)         =      1.092270    -0.000000     0.000000     1.092270
	   11 R(9,15)         =      1.527780     0.000001     0.000000     1.527780
	   12 R(12,13)        =      1.093228     0.000002     0.000000     1.093228
	   13 R(12,14)        =      1.093471     0.000002     0.000000     1.093472
	   14 R(12,24)        =      1.523589     0.000001     0.000000     1.523589
	   15 R(15,16)        =      1.092446    -0.000001    -0.000000     1.092446
	   16 R(15,17)        =      1.093976    -0.000001    -0.000000     1.093976
	   17 R(15,18)        =      1.530008    -0.000003    -0.000001     1.530007
	   18 R(18,19)        =      1.093790     0.000001     0.000000     1.093790
	   19 R(18,20)        =      1.092570     0.000002     0.000000     1.092570
	   20 R(18,21)        =      1.527714    -0.000001    -0.000000     1.527713
	   21 R(21,22)        =      1.094113     0.000003     0.000000     1.094114
	   22 R(21,23)        =      1.093868     0.000003     0.000001     1.093869
	   23 R(21,24)        =      1.523876     0.000002     0.000000     1.523876
	   24 R(24,25)        =      1.095484     0.000003     0.000000     1.095484
	   25 R(24,26)        =      1.093808     0.000002     0.000000     1.093808
	   26 B(1,9,10)       =    109.569694     0.000000     0.000024   109.569718
	   27 B(1,9,11)       =    109.312557    -0.000000    -0.000050   109.312507
	   28 B(1,9,15)       =    113.092938     0.000000     0.000037   113.092975
	   29 B(2,1,3)        =    107.640482    -0.000000    -0.000011   107.640471
	   30 B(2,1,4)        =    107.897963    -0.000000    -0.000002   107.897961
	   31 B(2,1,9)        =    111.217039     0.000000     0.000009   111.217048
	   32 B(3,1,4)        =    107.716813     0.000000     0.000007   107.716820
	   33 B(3,1,9)        =    111.522218    -0.000000    -0.000023   111.522195
	   34 B(4,1,9)        =    110.681758     0.000000     0.000020   110.681778
	   35 B(5,12,13)      =    109.794316     0.000000    -0.000005   109.794311
	   36 B(5,12,14)      =    109.746221    -0.000000    -0.000030   109.746192
	   37 B(5,12,24)      =    112.482369    -0.000000    -0.000011   112.482358
	   38 B(6,5,7)        =    107.916456     0.000000     0.000005   107.916462
	   39 B(6,5,8)        =    107.914432     0.000000     0.000004   107.914435
	   40 B(6,5,12)       =    111.695591    -0.000000    -0.000011   111.695581
	   41 B(7,5,8)        =    107.696599     0.000000     0.000003   107.696602
	   42 B(7,5,12)       =    110.734119     0.000000     0.000003   110.734122
	   43 B(8,5,12)       =    110.730101    -0.000000    -0.000004   110.730097
	   44 B(9,15,16)      =    109.178092     0.000000    -0.000015   109.178077
	   45 B(9,15,17)      =    108.796935     0.000000     0.000028   108.796963
	   46 B(9,15,18)      =    114.185124    -0.000000    -0.000025   114.185099
	   47 B(10,9,11)      =    106.149847     0.000000    -0.000003   106.149844
	   48 B(10,9,15)      =    109.801676    -0.000000    -0.000019   109.801658
	   49 B(11,9,15)      =    108.672915    -0.000000     0.000009   108.672924
	   50 B(12,24,21)     =    112.733697    -0.000000     0.000005   112.733701
	   51 B(12,24,25)     =    109.333983     0.000000     0.000044   109.334027
	   52 B(12,24,26)     =    108.837007    -0.000000    -0.000035   108.836972
	   53 B(13,12,14)     =    106.434935    -0.000000     0.000003   106.434938
	   54 B(13,12,24)     =    109.155179     0.000000     0.000020   109.155200
	   55 B(14,12,24)     =    109.041440     0.000000     0.000023   109.041464
	   56 B(15,18,19)     =    108.659474     0.000000     0.000029   108.659503
	   57 B(15,18,20)     =    109.522901    -0.000000     0.000017   109.522918
	   58 B(15,18,21)     =    114.177325    -0.000000    -0.000023   114.177302
	   59 B(16,15,17)     =    106.228218     0.000000     0.000019   106.228237
	   60 B(16,15,18)     =    109.499733    -0.000000    -0.000013   109.499720
	   61 B(17,15,18)     =    108.647913     0.000000     0.000011   108.647924
	   62 B(18,21,22)     =    109.981676    -0.000000    -0.000049   109.981627
	   63 B(18,21,23)     =    108.843951    -0.000000    -0.000027   108.843924
	   64 B(18,21,24)     =    113.747100     0.000000     0.000021   113.747122
	   65 B(19,18,20)     =    106.164597     0.000000     0.000014   106.164611
	   66 B(19,18,21)     =    108.855499    -0.000000    -0.000068   108.855431
	   67 B(20,18,21)     =    109.152158     0.000000     0.000033   109.152191
	   68 B(21,24,25)     =    109.302115     0.000000     0.000072   109.302186
	   69 B(21,24,26)     =    110.026801    -0.000000    -0.000044   110.026757
	   70 B(22,21,23)     =    106.090933     0.000000     0.000028   106.090961
	   71 B(22,21,24)     =    109.072319     0.000000     0.000034   109.072353
	   72 B(23,21,24)     =    108.815940    -0.000000    -0.000007   108.815933
	   73 B(25,24,26)     =    106.407052    -0.000000    -0.000043   106.407009
	   74 D(1,9,15,16)    =    178.438532    -0.000000     0.000021   178.438554
	   75 D(1,9,15,17)    =     62.911464    -0.000000    -0.000008    62.911456
	   76 D(1,9,15,18)    =    -58.630760    -0.000000    -0.000025   -58.630785
	   77 D(2,1,9,10)     =     61.678453    -0.000000     0.000152    61.678605
	   78 D(2,1,9,11)     =    -54.258542     0.000000     0.000172   -54.258370
	   79 D(2,1,9,15)     =   -175.472342    -0.000000     0.000171  -175.472171
	   80 D(3,1,9,10)     =    -58.489710     0.000000     0.000175   -58.489535
	   81 D(3,1,9,11)     =   -174.426705     0.000000     0.000194  -174.426510
	   82 D(3,1,9,15)     =     64.359495     0.000000     0.000194    64.359689
	   83 D(4,1,9,10)     =   -178.392245     0.000000     0.000168  -178.392076
	   84 D(4,1,9,11)     =     65.670761     0.000000     0.000188    65.670949
	   85 D(4,1,9,15)     =    -55.543040     0.000000     0.000188   -55.542852
	   86 D(5,12,24,21)   =   -179.512536     0.000000     0.000211  -179.512325
	   87 D(5,12,24,25)   =     58.696428    -0.000000     0.000085    58.696513
	   88 D(5,12,24,26)   =    -57.151013     0.000000     0.000132   -57.150881
	   89 D(6,5,12,13)    =    -58.203610     0.000000     0.000025   -58.203584
	   90 D(6,5,12,14)    =     58.454966    -0.000000     0.000009    58.454976
	   91 D(6,5,12,24)    =   -179.963964     0.000000     0.000010  -179.963954
	   92 D(7,5,12,13)    =   -178.509804     0.000000     0.000024  -178.509780
	   93 D(7,5,12,14)    =    -61.851228    -0.000000     0.000008   -61.851220
	   94 D(7,5,12,24)    =     59.729842     0.000000     0.000009    59.729851
	   95 D(8,5,12,13)    =     62.097276     0.000000     0.000020    62.097296
	   96 D(8,5,12,14)    =    178.755852    -0.000000     0.000004   178.755856
	   97 D(8,5,12,24)    =    -59.663078    -0.000000     0.000005   -59.663073
	   98 D(9,15,18,19)   =   -176.267643     0.000000     0.000238  -176.267406
	   99 D(9,15,18,20)   =     68.169408     0.000000     0.000195    68.169603
	  100 D(9,15,18,21)   =    -54.564669    -0.000000     0.000155   -54.564513
	  101 D(10,9,15,16)   =    -58.841123     0.000000     0.000064   -58.841059
	  102 D(10,9,15,17)   =   -174.368192     0.000000     0.000035  -174.368157
	  103 D(10,9,15,18)   =     64.089585     0.000000     0.000018    64.089603
	  104 D(11,9,15,16)   =     56.863974     0.000000     0.000055    56.864029
	  105 D(11,9,15,17)   =    -58.663094    -0.000000     0.000025   -58.663069
	  106 D(11,9,15,18)   =    179.794682    -0.000000     0.000008   179.794690
	  107 D(12,24,21,18)  =   -176.122485    -0.000000    -0.000056  -176.122541
	  108 D(12,24,21,22)  =     60.707827    -0.000000    -0.000033    60.707794
	  109 D(12,24,21,23)  =    -54.609055    -0.000000    -0.000081   -54.609136
	  110 D(13,12,24,21)  =     58.364589     0.000000     0.000210    58.364799
	  111 D(13,12,24,25)  =    -63.426447    -0.000000     0.000084   -63.426363
	  112 D(13,12,24,26)  =   -179.273888     0.000000     0.000131  -179.273756
	  113 D(14,12,24,21)  =    -57.531015     0.000000     0.000182   -57.530833
	  114 D(14,12,24,25)  =   -179.322051    -0.000000     0.000056  -179.321995
	  115 D(14,12,24,26)  =     64.830508    -0.000000     0.000103    64.830611
	  116 D(15,18,21,22)  =     64.304587    -0.000000    -0.000172    64.304415
	  117 D(15,18,21,23)  =   -179.864820    -0.000000    -0.000181  -179.865002
	  118 D(15,18,21,24)  =    -58.366975    -0.000000    -0.000195   -58.367170
	  119 D(16,15,18,19)  =    -53.511804     0.000000     0.000190   -53.511614
	  120 D(16,15,18,20)  =   -169.074753    -0.000000     0.000148  -169.074605
	  121 D(16,15,18,21)  =     68.191170    -0.000000     0.000108    68.191278
	  122 D(17,15,18,19)  =     62.107983     0.000000     0.000211    62.108194
	  123 D(17,15,18,20)  =    -53.454966    -0.000000     0.000169   -53.454797
	  124 D(17,15,18,21)  =   -176.189043    -0.000000     0.000129  -176.188914
	  125 D(18,21,24,25)  =    -54.313431     0.000000     0.000054   -54.313377
	  126 D(18,21,24,26)  =     62.187051     0.000000     0.000018    62.187070
	  127 D(19,18,21,22)  =   -174.100440     0.000000    -0.000201  -174.100641
	  128 D(19,18,21,23)  =    -58.269847    -0.000000    -0.000210   -58.270058
	  129 D(19,18,21,24)  =     63.227998    -0.000000    -0.000224    63.227774
	  130 D(20,18,21,22)  =    -58.631104     0.000000    -0.000203   -58.631308
	  131 D(20,18,21,23)  =     57.199489    -0.000000    -0.000212    57.199276
	  132 D(20,18,21,24)  =    178.697334    -0.000000    -0.000226   178.697108
	  133 D(22,21,24,25)  =   -177.483119     0.000000     0.000077  -177.483042
	  134 D(22,21,24,26)  =    -60.982637     0.000000     0.000041   -60.982596
	  135 D(23,21,24,25)  =     67.199999     0.000000     0.000029    67.200028
	  136 D(23,21,24,26)  =   -176.299519    -0.000000    -0.000007  -176.299526
	  137 R(1,21)         =      3.614059    -0.000000    -0.000003     3.614056
	  138 R(9,24)         =      3.616796    -0.000000    -0.000000     3.616796
	 ---------------------------------------------------------------------------

  ==> Convergence Check <==

  Measures of convergence in internal coordinates in au.
  Criteria marked as inactive (o), active & met (*), and active & unmet ( ).
  ---------------------------------------------------------------------------------------------
   Step     Total Energy     Delta E     MAX Force     RMS Force      MAX Disp      RMS Disp   
  ---------------------------------------------------------------------------------------------
    Convergence Criteria             o    2.00e-06 *    1.00e-06 *    6.00e-06 *    4.00e-06 *
  ---------------------------------------------------------------------------------------------
     27    -314.98431288    4.73e-09 o    3.97e-07 *    9.07e-08 *    5.71e-06 *    1.71e-06 *  ~
  ---------------------------------------------------------------------------------------------


  **** Optimization is complete! (in 27 steps) ****

  ==> Optimization Summary <==

  Measures of convergence in internal coordinates in au.
  --------------------------------------------------------------------------------------------------------------- ~
   Step         Total Energy             Delta E       MAX Force       RMS Force        MAX Disp        RMS Disp  ~
  --------------------------------------------------------------------------------------------------------------- ~
      1    -314.984043258537   -314.984043258537      0.00418349      0.00100474      0.04412375      0.00717696  ~
      2    -314.984291297881     -0.000248039343      0.00036353      0.00011823      0.03056828      0.00707644  ~
      3    -314.984303585221     -0.000012287340      0.00032949      0.00011066      0.01295905      0.00334375  ~
      4    -314.984311657116     -0.000008071896      0.00013089      0.00003640      0.00979264      0.00191766  ~
      5    -314.984312366762     -0.000000709646      0.00006796      0.00002197      0.00288480      0.00091098  ~
      6    -314.984312863484     -0.000000496722      0.00003643      0.00000842      0.00044054      0.00010696  ~
      7    -314.984312879583     -0.000000016099      0.00000533      0.00000123      0.00008247      0.00003110  ~
      8    -314.984312882801     -0.000000003218      0.00000140      0.00000039      0.00002966      0.00000756  ~
      9    -314.984312882273      0.000000000528      0.00000119      0.00000030      0.00004203      0.00001157  ~
     10    -314.984312881590      0.000000000683      0.00000096      0.00000020      0.00004375      0.00000779  ~
     11    -314.984312884476     -0.000000002886      0.00000171      0.00000038      0.00005990      0.00001594  ~
     12    -314.984312880342      0.000000004134      0.00000251      0.00000055      0.00008158      0.00002092  ~
     13    -314.984312879269      0.000000001073      0.00000136      0.00000029      0.00006932      0.00001101  ~
     14    -314.984312881883     -0.000000002614      0.00000102      0.00000025      0.00001987      0.00000524  ~
     15    -314.984312881957     -0.000000000074      0.00000114      0.00000028      0.00002552      0.00000618  ~
     16    -314.984312877335      0.000000004622      0.00000180      0.00000042      0.00007054      0.00001803  ~
     17    -314.984312882731     -0.000000005396      0.00000448      0.00000105      0.00014743      0.00003713  ~
     18    -314.984312882169      0.000000000562      0.00000239      0.00000057      0.00005453      0.00001544  ~
     19    -314.984312887707     -0.000000005538      0.00000171      0.00000042      0.00004859      0.00001387  ~
     20    -314.984312878681      0.000000009026      0.00000135      0.00000031      0.00005060      0.00001208  ~
     21    -314.984312882202     -0.000000003521      0.00000257      0.00000061      0.00007654      0.00001900  ~
     22    -314.984312881686      0.000000000516      0.00000402      0.00000095      0.00012602      0.00003172  ~
     23    -314.984312881477      0.000000000209      0.00000138      0.00000034      0.00003901      0.00001091  ~
     24    -314.984312880970      0.000000000507      0.00000242      0.00000058      0.00006128      0.00001588  ~
     25    -314.984312880808      0.000000000161      0.00000173      0.00000040      0.00005899      0.00001670  ~
     26    -314.984312882860     -0.000000002052      0.00000144      0.00000031      0.00003321      0.00000911  ~
     27    -314.984312878130      0.000000004730      0.00000040      0.00000009      0.00000571      0.00000171  ~
  --------------------------------------------------------------------------------------------------------------- ~

	Writing optimization data to binary file.
	Final energy is   -314.9843128781297
	Final (previous) structure:
	Cartesian Geometry (in Angstrom)
	    C     3.0528818762   0.8211629885  -0.7284641161
	    H     3.3877730392   1.7946101918  -1.0859529929
	    H     2.6106760629   0.2933280115  -1.5732320147
	    H     3.9330324426   0.2598421783  -0.4099715594
	    C    -3.6600044471   0.6743795073   0.3508971327
	    H    -4.5267036663   1.0187698547  -0.2127957546
	    H    -3.3177185222   1.4991666369   0.9771938637
	    H    -3.9871627959  -0.1297308869   1.0112354758
	    C     2.0618667352   0.9665439382   0.4211029255
	    H     1.1763714917   1.5056410110   0.0750968619
	    H     2.5061683979   1.5836646056   1.2052022968
	    C    -2.5435043943   0.1962272757  -0.5690182084
	    H    -2.9104007603  -0.6117623983  -1.2075217195
	    H    -2.2433345958   1.0072924299  -1.2381603077
	    C     1.6479234829  -0.3728319653   1.0284203150
	    H     0.9624115449  -0.1933242080   1.8598583014
	    H     2.5316754811  -0.8528066514   1.4589894741
	    C     1.0021072092  -1.3393308365   0.0335713786
	    H     0.6825591522  -2.2353895615   0.5733341936
	    H     1.7496056011  -1.6710408197  -0.6909446767
	    C    -0.1973522423  -0.7590847059  -0.7137707913
	    H     0.1229253381   0.0764402819  -1.3433769942
	    H    -0.5903259992  -1.5190618730  -1.3953525458
	    C    -1.3223189841  -0.2904835714   0.2011394356
	    H    -1.6154017558  -1.1115821868   0.8644527953
	    H    -0.9674654286   0.5173162861   0.8476331940
	Saving final (previous) structure.
			--------------------------
			 OPTKING Finished Execution 
			--------------------------

    Final optimized geometry and variables:
    Molecular point group: c1
    Full point group: C1

    Geometry (in Angstrom), charge = 0, multiplicity = 1:

    C            3.052881876156     0.821162988451    -0.728464116075
    H            3.387773039247     1.794610191829    -1.085952992864
    H            2.610676062938     0.293328011523    -1.573232014736
    H            3.933032442584     0.259842178345    -0.409971559373
    C           -3.660004447083     0.674379507304     0.350897132665
    H           -4.526703666257     1.018769854714    -0.212795754650
    H           -3.317718522226     1.499166636900     0.977193863694
    H           -3.987162795895    -0.129730886897     1.011235475765
    C            2.061866735178     0.966543938165     0.421102925513
    H            1.176371491669     1.505641010986     0.075096861927
    H            2.506168397930     1.583664605554     1.205202296836
    C           -2.543504394307     0.196227275697    -0.569018208362
    H           -2.910400760295    -0.611762398287    -1.207521719477
    H           -2.243334595810     1.007292429943    -1.238160307735
    C            1.647923482904    -0.372831965336     1.028420314979
    H            0.962411544872    -0.193324208009     1.859858301352
    H            2.531675481126    -0.852806651370     1.458989474060
    C            1.002107209203    -1.339330836533     0.033571378641
    H            0.682559152176    -2.235389561525     0.573334193619
    H            1.749605601053    -1.671040819709    -0.690944676740
    C           -0.197352242320    -0.759084705914    -0.713770791268
    H            0.122925338082     0.076440281925    -1.343376994249
    H           -0.590325999209    -1.519061873044    -1.395352545820
    C           -1.322318984069    -0.290483571390     0.201139435606
    H           -1.615401755831    -1.111582186780     0.864452795322
    H           -0.967465428557     0.517316286120     0.847633194049

	Cleaning optimization helper files.

*** Psi4 exiting successfully. Buy a developer a beer!
