    -----------------------------------------------------------------------
          Psi4: An Open-Source Ab Initio Electronic Structure Package
                              Psi4 1.0.0 Driver

                          Git: Rev {master} 6a9a71b dirty

    J. M. Turney, A. C. Simmonett, R. M. Parrish, E. G. Hohenstein,
    F. A. Evangelista, J. T. Fermann, B. J. Mintz, L. A. Burns, J. J. Wilke,
    M. L. Abrams, N. J. Russ, M. L. Leininger, C. L. Janssen, E. T. Seidl,
    W. D. Allen, H. F. Schaefer, R. A. King, E. F. Valeev, C. D. Sherrill,
    and T. D. Crawford, WIREs Comput. Mol. Sci. 2, 556-565 (2012)
    (doi: 10.1002/wcms.93)

                         Additional Contributions by
    A. E. DePrince, U. Bozkaya, A. Yu. Sokolov, D. G. A. Smith, R. Di Remigio,
    R. M. Richard, J. F. Gonthier, H. R. McAlexander, M. Saitow, and
    B. P. Pritchard
    -----------------------------------------------------------------------


    Psi4 started on: Tue Sep 20 22:40:02 2016

    Process ID:  46432
    PSI4DATADIR: /usr/local/hpc5/psi4conda/share/psi4
    Memory level set to 256.000 MB

  ==> Input File <==

--------------------------------------------------------------------------
memory 60 Gb

molecule molecule_09_psi {
0 1
C           -0.583087471264    -3.608191926372    -0.831430876275
H           -1.493064902103    -3.012267010046    -0.888689797065
H           -0.878361056752    -4.655046790427    -0.764986835076
H           -0.036001008293    -3.473312472578    -1.766113862668
C            0.582961849635     3.608206643828    -0.831721730774
H            0.035779200083     3.473254475672    -1.766337847736
H            1.492973625039     3.012343891842    -0.889060193664
H            0.878171196393     4.655083967515    -0.765351409185
C            0.279698699772    -3.202326527962     0.358761485063
H            1.124357862881    -3.890019837595     0.440311437142
H           -0.296067022842    -3.307643462766     1.282439326501
C           -0.279661546645     3.202328716054     0.358584611871
H            0.296212931516     3.307676757417     1.282190790415
H           -1.124326531645     3.890002623767     0.440226102145
C            0.809289689091    -1.773481000121     0.261091616151
H            1.403009765652    -1.671083869311    -0.653268041968
H            1.490476354373    -1.584418086906     1.095767028141
C           -0.281099798395    -0.708257028475     0.270711352386
H           -0.912988103226    -0.847365533571     1.154456008037
H           -0.931719330438    -0.829318976727    -0.599331570359
C            0.281150729150     0.708249243517     0.270625480994
H            0.913109225757     0.847434360230     1.154307909604
H            0.931699772941     0.829233737775    -0.599479897122
C           -0.809241199942     1.773470294665     0.261001328476
H           -1.403010660920     1.671023080676    -0.653320485262
H           -1.490381714897     1.584442015775     1.095721238118
}

set globals {
  reference rhf
  g_convergence gau_verytight
  basis aug-cc-pvtz
  freeze_core true
  scf_type df
  mp_type df
}
optimize('mp2')
--------------------------------------------------------------------------
/usr/local/hpc5/psi4conda/lib/python2.7/site-packages/v2rdm_casscf/v2rdm_casscf.so loaded.

  Memory set to  60.000 GiB by Python script.
gradient() will perform analytic gradient computation.

*** tstart() called on wr37
*** at Tue Sep 20 22:40:02 2016


         ---------------------------------------------------------
                                   SCF
            by Justin Turney, Rob Parrish, and Andy Simmonett
                              RHF Reference
                       12 Threads,  60000 MiB Core
         ---------------------------------------------------------

  ==> Geometry <==

    Molecular point group: c1
    Full point group: C1

    Geometry (in Angstrom), charge = 0, multiplicity = 1:

       Center              X                  Y                   Z               Mass       
    ------------   -----------------  -----------------  -----------------  -----------------
           C         -0.583087471264    -3.608191926372    -0.831430876275    12.000000000000
           H         -1.493064902103    -3.012267010046    -0.888689797065     1.007825032070
           H         -0.878361056752    -4.655046790427    -0.764986835076     1.007825032070
           H         -0.036001008293    -3.473312472578    -1.766113862668     1.007825032070
           C          0.582961849635     3.608206643828    -0.831721730774    12.000000000000
           H          0.035779200083     3.473254475672    -1.766337847736     1.007825032070
           H          1.492973625039     3.012343891842    -0.889060193664     1.007825032070
           H          0.878171196393     4.655083967515    -0.765351409185     1.007825032070
           C          0.279698699772    -3.202326527962     0.358761485063    12.000000000000
           H          1.124357862881    -3.890019837595     0.440311437142     1.007825032070
           H         -0.296067022842    -3.307643462766     1.282439326501     1.007825032070
           C         -0.279661546645     3.202328716054     0.358584611871    12.000000000000
           H          0.296212931516     3.307676757417     1.282190790415     1.007825032070
           H         -1.124326531645     3.890002623767     0.440226102145     1.007825032070
           C          0.809289689091    -1.773481000121     0.261091616151    12.000000000000
           H          1.403009765652    -1.671083869311    -0.653268041968     1.007825032070
           H          1.490476354373    -1.584418086906     1.095767028141     1.007825032070
           C         -0.281099798395    -0.708257028475     0.270711352386    12.000000000000
           H         -0.912988103226    -0.847365533571     1.154456008037     1.007825032070
           H         -0.931719330438    -0.829318976727    -0.599331570359     1.007825032070
           C          0.281150729150     0.708249243517     0.270625480994    12.000000000000
           H          0.913109225757     0.847434360230     1.154307909604     1.007825032070
           H          0.931699772941     0.829233737775    -0.599479897122     1.007825032070
           C         -0.809241199942     1.773470294665     0.261001328476    12.000000000000
           H         -1.403010660920     1.671023080676    -0.653320485262     1.007825032070
           H         -1.490381714897     1.584442015775     1.095721238118     1.007825032070

  Running in c1 symmetry.

  Rotational constants: A =      0.18562  B =      0.02004  C =      0.01991 [cm^-1]
  Rotational constants: A =   5564.82752  B =    600.91718  C =    596.83766 [MHz]
  Nuclear repulsion =  385.130299318974778

  Charge       = 0
  Multiplicity = 1
  Electrons    = 66
  Nalpha       = 33
  Nbeta        = 33

  ==> Algorithm <==

  SCF Algorithm Type is DF.
  DIIS enabled.
  MOM disabled.
  Fractional occupation disabled.
  Guess Type is SAD.
  Energy threshold   = 1.00e-10
  Density threshold  = 1.00e-10
  Integral threshold = 0.00e+00

  ==> Primary Basis <==

  Basis Set: AUG-CC-PVTZ
    Number of shells: 274
    Number of basis function: 782
    Number of Cartesian functions: 890
    Spherical Harmonics?: true
    Max angular momentum: 3

  ==> Pre-Iterations <==

   -------------------------------------------------------
    Irrep   Nso     Nmo     Nalpha   Nbeta   Ndocc  Nsocc
   -------------------------------------------------------
     A        782     782       0       0       0       0
   -------------------------------------------------------
    Total     782     782      33      33      33       0
   -------------------------------------------------------

  ==> Integral Setup <==

  ==> DFJK: Density-Fitted J/K Matrices <==

    J tasked:                  Yes
    K tasked:                  Yes
    wK tasked:                  No
    OpenMP threads:             12
    Integrals threads:          12
    Memory (MB):             42915
    Algorithm:                Core
    Integral Cache:           NONE
    Schwarz Cutoff:          1E-12
    Fitting Condition:       1E-12

   => Auxiliary Basis Set <=

  Basis Set: 
    Number of shells: 492
    Number of basis function: 1660
    Number of Cartesian functions: 2038
    Spherical Harmonics?: true
    Max angular momentum: 4

  Minimum eigenvalue in the overlap matrix is 2.9266911458E-06.
  Using Symmetric Orthogonalization.
  SCF Guess: Superposition of Atomic Densities via on-the-fly atomic UHF.

  ==> Iterations <==

                           Total Energy        Delta E     RMS |[F,P]|

   @DF-RHF iter   0:  -317.23526281810365   -3.17235e+02   7.18033e-03 
   @DF-RHF iter   1:  -313.33558697174573    3.89968e+00   6.22553e-04 
   @DF-RHF iter   2:  -313.52147548779948   -1.85889e-01   1.92117e-04 DIIS
   @DF-RHF iter   3:  -313.54139575277117   -1.99203e-02   7.48521e-05 DIIS
   @DF-RHF iter   4:  -313.54397597924964   -2.58023e-03   1.50130e-05 DIIS
   @DF-RHF iter   5:  -313.54412140550011   -1.45426e-04   3.23198e-06 DIIS
   @DF-RHF iter   6:  -313.54412809629315   -6.69079e-06   1.00708e-06 DIIS
   @DF-RHF iter   7:  -313.54412857208291   -4.75790e-07   2.03720e-07 DIIS
   @DF-RHF iter   8:  -313.54412859675648   -2.46736e-08   4.84771e-08 DIIS
   @DF-RHF iter   9:  -313.54412859813050   -1.37402e-09   1.38309e-08 DIIS
   @DF-RHF iter  10:  -313.54412859824942   -1.18916e-10   3.87734e-09 DIIS
   @DF-RHF iter  11:  -313.54412859825976   -1.03455e-11   9.50856e-10 DIIS
   @DF-RHF iter  12:  -313.54412859825931    4.54747e-13   2.42148e-10 DIIS
   @DF-RHF iter  13:  -313.54412859825931    0.00000e+00   8.03592e-11 DIIS

  ==> Post-Iterations <==

    Orbital Energies (a.u.)
    -----------------------

    Doubly Occupied:                                                      

       1A    -11.212722     2A    -11.212722     3A    -11.210321  
       4A    -11.210264     5A    -11.209487     6A    -11.208916  
       7A    -11.206438     8A    -11.206438     9A     -1.093399  
      10A     -1.062109    11A     -1.009276    12A     -0.945031  
      13A     -0.886518    14A     -0.828545    15A     -0.773572  
      16A     -0.771075    17A     -0.648165    18A     -0.621594  
      19A     -0.618845    20A     -0.592321    21A     -0.581393  
      22A     -0.563748    23A     -0.536069    24A     -0.527437  
      25A     -0.516314    26A     -0.496435    27A     -0.489712  
      28A     -0.477446    29A     -0.461074    30A     -0.459529  
      31A     -0.452843    32A     -0.448483    33A     -0.428403  

    Virtual:                                                              

      34A      0.030487    35A      0.031704    36A      0.034247  
      37A      0.035965    38A      0.044440    39A      0.046947  
      40A      0.048793    41A      0.055151    42A      0.056914  
      43A      0.061886    44A      0.067710    45A      0.070281  
      46A      0.073434    47A      0.077195    48A      0.087770  
      49A      0.094615    50A      0.098066    51A      0.111651  
      52A      0.114268    53A      0.115795    54A      0.117905  
      55A      0.122692    56A      0.124650    57A      0.131097  
      58A      0.132692    59A      0.134054    60A      0.141067  
      61A      0.142769    62A      0.143643    63A      0.153813  
      64A      0.156326    65A      0.160981    66A      0.163531  
      67A      0.165744    68A      0.167945    69A      0.169538  
      70A      0.170915    71A      0.173451    72A      0.186455  
      73A      0.188796    74A      0.189781    75A      0.193933  
      76A      0.209926    77A      0.225502    78A      0.225898  
      79A      0.230894    80A      0.236765    81A      0.244320  
      82A      0.245423    83A      0.253747    84A      0.256727  
      85A      0.260500    86A      0.272437    87A      0.281215  
      88A      0.282061    89A      0.286800    90A      0.290222  
      91A      0.296136    92A      0.304985    93A      0.313421  
      94A      0.314175    95A      0.316551    96A      0.317526  
      97A      0.322856    98A      0.332743    99A      0.333181  
     100A      0.335515   101A      0.335723   102A      0.340119  
     103A      0.344167   104A      0.350471   105A      0.351876  
     106A      0.361313   107A      0.361656   108A      0.364359  
     109A      0.364954   110A      0.364958   111A      0.369227  
     112A      0.380521   113A      0.381781   114A      0.384515  
     115A      0.387229   116A      0.392817   117A      0.396199  
     118A      0.400042   119A      0.403861   120A      0.405005  
     121A      0.411505   122A      0.419762   123A      0.420771  
     124A      0.429377   125A      0.431856   126A      0.434589  
     127A      0.434977   128A      0.443304   129A      0.445475  
     130A      0.448371   131A      0.450871   132A      0.454004  
     133A      0.465113   134A      0.465747   135A      0.467766  
     136A      0.468331   137A      0.475695   138A      0.476622  
     139A      0.483507   140A      0.484129   141A      0.486456  
     142A      0.489616   143A      0.495979   144A      0.496059  
     145A      0.500486   146A      0.501223   147A      0.507242  
     148A      0.508527   149A      0.516724   150A      0.519276  
     151A      0.521687   152A      0.529342   153A      0.532256  
     154A      0.537149   155A      0.540069   156A      0.541504  
     157A      0.545469   158A      0.549122   159A      0.559993  
     160A      0.566234   161A      0.566714   162A      0.572942  
     163A      0.576665   164A      0.582029   165A      0.585309  
     166A      0.585637   167A      0.589301   168A      0.597462  
     169A      0.602123   170A      0.609221   171A      0.612619  
     172A      0.616559   173A      0.620422   174A      0.626558  
     175A      0.628390   176A      0.635253   177A      0.636318  
     178A      0.646326   179A      0.656296   180A      0.662703  
     181A      0.668600   182A      0.676368   183A      0.680080  
     184A      0.684238   185A      0.685332   186A      0.691954  
     187A      0.697930   188A      0.709205   189A      0.710043  
     190A      0.722337   191A      0.722784   192A      0.733491  
     193A      0.735033   194A      0.740745   195A      0.747896  
     196A      0.757358   197A      0.769003   198A      0.775798  
     199A      0.784398   200A      0.792952   201A      0.794028  
     202A      0.819066   203A      0.826076   204A      0.829222  
     205A      0.831307   206A      0.838505   207A      0.841168  
     208A      0.846222   209A      0.852102   210A      0.855730  
     211A      0.860191   212A      0.860515   213A      0.873686  
     214A      0.876319   215A      0.885255   216A      0.890378  
     217A      0.894492   218A      0.895273   219A      0.897784  
     220A      0.903948   221A      0.912832   222A      0.914398  
     223A      0.916914   224A      0.920248   225A      0.925590  
     226A      0.930370   227A      0.933763   228A      0.936793  
     229A      0.942135   230A      0.946161   231A      0.953859  
     232A      0.962575   233A      0.968899   234A      0.978785  
     235A      0.983171   236A      0.983421   237A      0.990545  
     238A      0.990818   239A      0.997318   240A      1.004106  
     241A      1.005006   242A      1.007421   243A      1.013978  
     244A      1.016157   245A      1.028520   246A      1.032055  
     247A      1.033645   248A      1.044283   249A      1.054089  
     250A      1.055292   251A      1.061869   252A      1.066704  
     253A      1.066762   254A      1.069692   255A      1.080527  
     256A      1.086938   257A      1.097014   258A      1.099705  
     259A      1.102465   260A      1.103072   261A      1.105053  
     262A      1.109965   263A      1.114366   264A      1.125784  
     265A      1.133190   266A      1.142190   267A      1.144101  
     268A      1.147060   269A      1.150323   270A      1.156825  
     271A      1.158845   272A      1.167912   273A      1.177032  
     274A      1.194715   275A      1.199998   276A      1.200308  
     277A      1.202956   278A      1.205205   279A      1.209015  
     280A      1.219325   281A      1.221711   282A      1.225906  
     283A      1.229174   284A      1.232230   285A      1.235469  
     286A      1.240612   287A      1.242291   288A      1.246947  
     289A      1.247097   290A      1.253487   291A      1.255322  
     292A      1.261469   293A      1.279022   294A      1.282582  
     295A      1.284534   296A      1.290893   297A      1.293104  
     298A      1.306009   299A      1.312615   300A      1.322376  
     301A      1.325619   302A      1.334835   303A      1.338423  
     304A      1.342560   305A      1.354381   306A      1.363201  
     307A      1.363627   308A      1.365610   309A      1.377055  
     310A      1.391927   311A      1.395959   312A      1.398297  
     313A      1.405122   314A      1.409643   315A      1.425237  
     316A      1.425347   317A      1.434366   318A      1.443948  
     319A      1.451104   320A      1.460107   321A      1.465780  
     322A      1.478653   323A      1.479289   324A      1.493413  
     325A      1.494563   326A      1.498995   327A      1.504620  
     328A      1.524107   329A      1.528270   330A      1.535520  
     331A      1.541891   332A      1.550417   333A      1.559113  
     334A      1.561538   335A      1.568481   336A      1.572191  
     337A      1.582867   338A      1.583087   339A      1.604266  
     340A      1.606983   341A      1.608866   342A      1.622991  
     343A      1.633063   344A      1.633929   345A      1.645647  
     346A      1.651631   347A      1.661461   348A      1.670846  
     349A      1.674225   350A      1.675637   351A      1.682568  
     352A      1.688757   353A      1.698342   354A      1.698784  
     355A      1.707341   356A      1.711664   357A      1.718185  
     358A      1.721174   359A      1.726380   360A      1.731015  
     361A      1.734256   362A      1.737933   363A      1.749326  
     364A      1.753856   365A      1.758733   366A      1.767279  
     367A      1.769567   368A      1.780341   369A      1.784356  
     370A      1.784860   371A      1.796649   372A      1.797127  
     373A      1.809159   374A      1.811825   375A      1.821630  
     376A      1.825422   377A      1.829340   378A      1.830794  
     379A      1.840619   380A      1.849627   381A      1.854449  
     382A      1.858276   383A      1.859474   384A      1.869867  
     385A      1.882051   386A      1.890461   387A      1.892467  
     388A      1.894657   389A      1.900405   390A      1.916988  
     391A      1.917207   392A      1.923961   393A      1.929132  
     394A      1.935554   395A      1.944991   396A      1.954078  
     397A      1.957898   398A      1.961980   399A      1.978917  
     400A      1.984786   401A      1.988282   402A      1.989260  
     403A      2.000486   404A      2.003123   405A      2.011374  
     406A      2.017912   407A      2.022724   408A      2.032443  
     409A      2.037642   410A      2.040432   411A      2.047199  
     412A      2.050199   413A      2.066351   414A      2.072475  
     415A      2.079099   416A      2.079974   417A      2.089269  
     418A      2.091659   419A      2.108219   420A      2.121035  
     421A      2.130604   422A      2.133973   423A      2.138770  
     424A      2.150140   425A      2.150453   426A      2.167294  
     427A      2.172759   428A      2.187301   429A      2.192322  
     430A      2.202039   431A      2.227619   432A      2.235164  
     433A      2.243428   434A      2.251265   435A      2.259687  
     436A      2.273204   437A      2.275493   438A      2.295226  
     439A      2.297028   440A      2.300451   441A      2.305585  
     442A      2.306828   443A      2.310505   444A      2.323508  
     445A      2.327457   446A      2.343374   447A      2.344958  
     448A      2.354342   449A      2.362283   450A      2.378499  
     451A      2.382791   452A      2.383661   453A      2.406717  
     454A      2.427531   455A      2.434653   456A      2.452609  
     457A      2.454535   458A      2.456895   459A      2.466181  
     460A      2.470040   461A      2.476246   462A      2.486978  
     463A      2.503295   464A      2.507548   465A      2.539669  
     466A      2.556344   467A      2.564089   468A      2.566166  
     469A      2.574095   470A      2.582547   471A      2.587492  
     472A      2.627454   473A      2.632624   474A      2.644963  
     475A      2.663818   476A      2.668848   477A      2.681102  
     478A      2.694557   479A      2.699995   480A      2.746891  
     481A      2.791334   482A      2.803296   483A      2.852502  
     484A      2.903609   485A      2.921149   486A      2.946688  
     487A      2.972954   488A      3.011349   489A      3.032331  
     490A      3.065912   491A      3.139588   492A      3.160132  
     493A      3.265216   494A      3.309937   495A      3.320432  
     496A      3.397003   497A      3.411531   498A      3.429338  
     499A      3.452819   500A      3.452949   501A      3.469293  
     502A      3.476115   503A      3.507357   504A      3.510836  
     505A      3.516372   506A      3.534690   507A      3.553965  
     508A      3.557588   509A      3.574147   510A      3.581900  
     511A      3.590446   512A      3.615614   513A      3.617904  
     514A      3.641343   515A      3.648423   516A      3.651032  
     517A      3.654677   518A      3.657964   519A      3.671486  
     520A      3.682019   521A      3.696462   522A      3.698419  
     523A      3.700484   524A      3.720400   525A      3.729944  
     526A      3.732394   527A      3.744319   528A      3.762283  
     529A      3.768832   530A      3.779929   531A      3.783412  
     532A      3.800016   533A      3.803181   534A      3.814539  
     535A      3.817705   536A      3.818081   537A      3.827780  
     538A      3.835484   539A      3.839735   540A      3.842396  
     541A      3.857557   542A      3.870133   543A      3.871229  
     544A      3.880712   545A      3.893385   546A      3.903169  
     547A      3.908478   548A      3.919755   549A      3.927183  
     550A      3.927683   551A      3.944758   552A      3.945257  
     553A      3.955613   554A      3.958887   555A      3.969668  
     556A      3.982766   557A      3.995023   558A      3.996317  
     559A      4.005094   560A      4.013734   561A      4.016513  
     562A      4.016884   563A      4.028869   564A      4.034761  
     565A      4.039003   566A      4.043565   567A      4.051770  
     568A      4.059459   569A      4.065704   570A      4.069466  
     571A      4.087699   572A      4.088204   573A      4.099903  
     574A      4.103982   575A      4.105699   576A      4.107358  
     577A      4.121630   578A      4.134150   579A      4.136128  
     580A      4.145767   581A      4.149903   582A      4.176694  
     583A      4.198309   584A      4.199966   585A      4.214727  
     586A      4.221808   587A      4.228519   588A      4.233793  
     589A      4.244249   590A      4.261183   591A      4.278464  
     592A      4.282787   593A      4.290384   594A      4.292917  
     595A      4.295445   596A      4.300934   597A      4.342304  
     598A      4.342579   599A      4.350818   600A      4.362148  
     601A      4.370565   602A      4.380997   603A      4.395808  
     604A      4.399204   605A      4.421068   606A      4.432349  
     607A      4.442522   608A      4.450293   609A      4.452296  
     610A      4.461715   611A      4.487365   612A      4.499451  
     613A      4.511912   614A      4.540377   615A      4.547874  
     616A      4.566554   617A      4.567333   618A      4.584857  
     619A      4.592792   620A      4.602969   621A      4.611629  
     622A      4.642799   623A      4.648976   624A      4.679546  
     625A      4.685401   626A      4.695475   627A      4.699150  
     628A      4.702341   629A      4.715422   630A      4.731079  
     631A      4.737327   632A      4.740260   633A      4.745686  
     634A      4.774365   635A      4.777574   636A      4.788175  
     637A      4.795986   638A      4.816010   639A      4.818852  
     640A      4.831832   641A      4.848238   642A      4.851691  
     643A      4.853383   644A      4.855639   645A      4.874719  
     646A      4.894763   647A      4.896407   648A      4.923756  
     649A      4.923934   650A      4.936114   651A      4.940020  
     652A      4.953141   653A      4.962118   654A      4.964407  
     655A      4.983006   656A      4.995759   657A      5.007739  
     658A      5.026202   659A      5.029531   660A      5.041671  
     661A      5.047970   662A      5.061146   663A      5.073439  
     664A      5.093167   665A      5.109330   666A      5.115581  
     667A      5.124399   668A      5.139299   669A      5.143265  
     670A      5.155089   671A      5.182132   672A      5.191506  
     673A      5.199273   674A      5.209361   675A      5.211366  
     676A      5.237266   677A      5.246719   678A      5.266336  
     679A      5.294090   680A      5.294468   681A      5.297420  
     682A      5.307739   683A      5.318444   684A      5.329270  
     685A      5.348652   686A      5.350035   687A      5.385826  
     688A      5.392220   689A      5.392366   690A      5.402165  
     691A      5.409597   692A      5.414822   693A      5.419369  
     694A      5.441511   695A      5.442808   696A      5.452530  
     697A      5.474888   698A      5.491520   699A      5.493679  
     700A      5.500860   701A      5.507752   702A      5.518525  
     703A      5.545057   704A      5.554046   705A      5.562702  
     706A      5.582460   707A      5.588018   708A      5.604124  
     709A      5.608191   710A      5.620421   711A      5.627225  
     712A      5.646489   713A      5.652196   714A      5.654698  
     715A      5.670384   716A      5.684538   717A      5.698207  
     718A      5.703197   719A      5.712370   720A      5.726478  
     721A      5.751047   722A      5.760700   723A      5.783643  
     724A      5.796378   725A      5.806542   726A      5.832202  
     727A      5.842606   728A      5.854727   729A      5.874147  
     730A      5.901637   731A      5.917670   732A      5.924543  
     733A      5.955265   734A      5.996951   735A      5.997426  
     736A      6.019956   737A      6.045542   738A      6.056344  
     739A      6.062201   740A      6.113702   741A      6.135182  
     742A      6.146124   743A      6.165110   744A      6.168167  
     745A      6.206339   746A      6.231647   747A      6.259050  
     748A      6.261255   749A      6.275124   750A      6.284323  
     751A      6.302041   752A      6.306728   753A      6.332187  
     754A      6.335881   755A      6.343927   756A      6.349783  
     757A      6.397876   758A      6.405638   759A      6.551786  
     760A      6.583216   761A      6.619638   762A      6.626750  
     763A      6.738464   764A      6.742308   765A      6.796509  
     766A      6.797707   767A      6.830406   768A      6.886949  
     769A      6.902036   770A      6.928584   771A      6.977266  
     772A      6.983534   773A      7.028779   774A      7.130727  
     775A     17.808394   776A     17.879810   777A     18.281554  
     778A     18.422073   779A     18.606316   780A     18.611168  
     781A     19.089028   782A     19.595236  

    Final Occupation by Irrep:
              A 
    DOCC [    33 ]

  Energy converged.

  @DF-RHF Final Energy:  -313.54412859825931

   => Energetics <=

    Nuclear Repulsion Energy =            385.1302993189747781
    One-Electron Energy =               -1185.4155621365118805
    Two-Electron Energy =                 486.7411342192776829
    DFT Exchange-Correlation Energy =       0.0000000000000000
    Empirical Dispersion Energy =           0.0000000000000000
    PCM Polarization Energy =               0.0000000000000000
    EFP Energy =                            0.0000000000000000
    Total Energy =                       -313.5441285982594763


  Saving occupied orbitals to File 180.

*** tstop() called on wr37 at Tue Sep 20 22:41:20 2016
Module time:
	user time   =     826.09 seconds =      13.77 minutes
	system time =      10.80 seconds =       0.18 minutes
	total time  =         78 seconds =       1.30 minutes
Total time:
	user time   =     826.09 seconds =      13.77 minutes
	system time =      10.80 seconds =       0.18 minutes
	total time  =         78 seconds =       1.30 minutes


Properties will be evaluated at   0.000000,   0.000000,   0.000000 Bohr

Properties computed using the SCF density matrix

  Nuclear Dipole Moment: (a.u.)
     X:    -0.0001      Y:     0.0000      Z:    -1.3129

  Electronic Dipole Moment: (a.u.)
     X:     0.0001      Y:    -0.0000      Z:     1.3476

  Dipole Moment: (a.u.)
     X:    -0.0000      Y:    -0.0000      Z:     0.0346     Total:     0.0346

  Dipole Moment: (Debye)
     X:    -0.0000      Y:    -0.0000      Z:     0.0881     Total:     0.0881


  //>>>>>>>>>>>>>>>>>>>>>>>>>>>>>>>>>>>//
  //               DFMP2               //
  //<<<<<<<<<<<<<<<<<<<<<<<<<<<<<<<<<<<//


*** tstart() called on wr37
*** at Tue Sep 20 22:41:21 2016


*** tstop() called on wr37 at Tue Sep 20 22:41:21 2016
Module time:
	user time   =       3.27 seconds =       0.05 minutes
	system time =       0.14 seconds =       0.00 minutes
	total time  =          0 seconds =       0.00 minutes
Total time:
	user time   =     829.55 seconds =      13.83 minutes
	system time =      10.95 seconds =       0.18 minutes
	total time  =         79 seconds =       1.32 minutes
	 --------------------------------------------------------
	                          DF-MP2                         
	      2nd-Order Density-Fitted Moller-Plesset Theory     
	              RMP2 Wavefunction,  12 Threads             
	                                                         
	        Rob Parrish, Justin Turney, Andy Simmonett,      
	           Ed Hohenstein, and C. David Sherrill          
	 --------------------------------------------------------

   => Auxiliary Basis Set <=

  Basis Set: 
    Number of shells: 476
    Number of basis function: 1676
    Number of Cartesian functions: 2078
    Spherical Harmonics?: true
    Max angular momentum: 4

	 --------------------------------------------------------
	                 NBF =   782, NAUX =  1676
	 --------------------------------------------------------
	   CLASS    FOCC     OCC    AOCC    AVIR     VIR    FVIR
	   PAIRS       8      33      25     749     749       0
	 --------------------------------------------------------

DGAS Warning! /src/lib/libfock/apps.cc:80 is not currently checking restricted

         ------------------------------------------------------------
                                     CPHF                           
                                  Rob Parrish                       
         ------------------------------------------------------------

  ==> Geometry <==

    Molecular point group: c1
    Full point group: C1

    Geometry (in Angstrom), charge = 0, multiplicity = 1:

       Center              X                  Y                   Z               Mass       
    ------------   -----------------  -----------------  -----------------  -----------------
           C         -0.583087471264    -3.608191926372    -0.831430876275    12.000000000000
           H         -1.493064902103    -3.012267010046    -0.888689797065     1.007825032070
           H         -0.878361056752    -4.655046790427    -0.764986835076     1.007825032070
           H         -0.036001008293    -3.473312472578    -1.766113862668     1.007825032070
           C          0.582961849635     3.608206643828    -0.831721730774    12.000000000000
           H          0.035779200083     3.473254475672    -1.766337847736     1.007825032070
           H          1.492973625039     3.012343891842    -0.889060193664     1.007825032070
           H          0.878171196393     4.655083967515    -0.765351409185     1.007825032070
           C          0.279698699772    -3.202326527962     0.358761485063    12.000000000000
           H          1.124357862881    -3.890019837595     0.440311437142     1.007825032070
           H         -0.296067022842    -3.307643462766     1.282439326501     1.007825032070
           C         -0.279661546645     3.202328716054     0.358584611871    12.000000000000
           H          0.296212931516     3.307676757417     1.282190790415     1.007825032070
           H         -1.124326531645     3.890002623767     0.440226102145     1.007825032070
           C          0.809289689091    -1.773481000121     0.261091616151    12.000000000000
           H          1.403009765652    -1.671083869311    -0.653268041968     1.007825032070
           H          1.490476354373    -1.584418086906     1.095767028141     1.007825032070
           C         -0.281099798395    -0.708257028475     0.270711352386    12.000000000000
           H         -0.912988103226    -0.847365533571     1.154456008037     1.007825032070
           H         -0.931719330438    -0.829318976727    -0.599331570359     1.007825032070
           C          0.281150729150     0.708249243517     0.270625480994    12.000000000000
           H          0.913109225757     0.847434360230     1.154307909604     1.007825032070
           H          0.931699772941     0.829233737775    -0.599479897122     1.007825032070
           C         -0.809241199942     1.773470294665     0.261001328476    12.000000000000
           H         -1.403010660920     1.671023080676    -0.653320485262     1.007825032070
           H         -1.490381714897     1.584442015775     1.095721238118     1.007825032070

  Nuclear repulsion =  385.130299318974778
  Reference energy  = -313.544128598259306

  ==> Basis Set <==

  Basis Set: AUG-CC-PVTZ
    Number of shells: 274
    Number of basis function: 782
    Number of Cartesian functions: 890
    Spherical Harmonics?: true
    Max angular momentum: 3

  ==> CGRSolver (by Rob Parrish) <==

   Number of roots    =         1
   Preconditioning    =    JACOBI
   Convergence cutoff =     1E-06
   Maximum iterations =       100

  ==> CPHFRHamiltonian (by Rob Parrish) <== 

  ==> DFJK: Density-Fitted J/K Matrices <==

    J tasked:                  Yes
    K tasked:                  Yes
    wK tasked:                  No
    OpenMP threads:             12
    Integrals threads:          12
    Memory (MB):             42915
    Algorithm:                Core
    Integral Cache:           NONE
    Schwarz Cutoff:          1E-12
    Fitting Condition:       1E-12

   => Auxiliary Basis Set <=

  Basis Set: 
    Number of shells: 492
    Number of basis function: 1660
    Number of Cartesian functions: 2038
    Spherical Harmonics?: true
    Max angular momentum: 4

  ==> CPHF Iterations <==

  => Iterations <=

             Iter  Converged  Remaining    Residual
  CGR           1          0          1   8.966E-02
  CGR           2          0          1   1.238E-02
  CGR           3          0          1   2.760E-03
  CGR           4          0          1   6.964E-04
  CGR           5          0          1   1.709E-04
  CGR           6          0          1   4.149E-05
  CGR           7          0          1   9.399E-06
  CGR           8          0          1   2.344E-06
  CGR           9          1          0   6.344E-07

    CGRSolver converged.

  ==> DFCorrGrad: Density-Fitted Correlated Gradients <==

    OpenMP threads:             12
    Integrals threads:          12
    Memory (MB):             42915
    Schwarz Cutoff:          0E+00
    Fitting Condition:       1E-12

   => Auxiliary Basis Set <=

  Basis Set: 
    Number of shells: 492
    Number of basis function: 1660
    Number of Cartesian functions: 2038
    Spherical Harmonics?: true
    Max angular momentum: 4

	-----------------------------------------------------------
	 ==================> DF-MP2 Energies <==================== 
	-----------------------------------------------------------
	 Reference Energy          =    -313.5441285982593058 [Eh]
	 Singles Energy            =      -0.0000000000000003 [Eh]
	 Same-Spin Energy          =      -0.3154116749282133 [Eh]
	 Opposite-Spin Energy      =      -1.1241447692051449 [Eh]
	 Correlation Energy        =      -1.4395564441333584 [Eh]
	 Total Energy              =    -314.9836850423926649 [Eh]
	-----------------------------------------------------------
	 ================> DF-SCS-MP2 Energies <================== 
	-----------------------------------------------------------
	 SCS Same-Spin Scale       =       0.3333333333333333 [-]
	 SCS Opposite-Spin Scale   =       1.2000000000000000 [-]
	 SCS Same-Spin Energy      =      -0.1051372249760711 [Eh]
	 SCS Opposite-Spin Energy  =      -1.3489737230461738 [Eh]
	 SCS Correlation Energy    =      -1.4541109480222452 [Eh]
	 SCS Total Energy          =    -314.9982395462815248 [Eh]
	-----------------------------------------------------------


  -Total Gradient:
     Atom            X                  Y                   Z
    ------   -----------------  -----------------  -----------------
       1        0.000000100421     0.000000606136     0.000000499328
       2       -0.000000773857     0.000000918214    -0.000000277755
       3       -0.000000228387    -0.000000528794     0.000000177535
       4        0.000000275153     0.000000004467    -0.000000430464
       5       -0.000000203870     0.000000500035    -0.000000104276
       6        0.000000020232    -0.000000063465    -0.000000276963
       7       -0.000000230325     0.000000606259     0.000000151914
       8       -0.000000111894     0.000000013781    -0.000000078855
       9        0.000000556968     0.000000566573    -0.000001448216
      10        0.000000842913    -0.000000511268     0.000000095481
      11       -0.000000342577     0.000000136319     0.000000627381
      12        0.000000969159     0.000000139806     0.000000731462
      13        0.000000120740     0.000000266723     0.000000168377
      14        0.000000261550    -0.000000135669    -0.000000066379
      15       -0.000000717658    -0.000000602548     0.000001112273
      16        0.000000359577    -0.000000171609    -0.000000506599
      17        0.000000559119     0.000000000790     0.000000674045
      18        0.000000310855     0.000000391538     0.000000307304
      19       -0.000000269343    -0.000000059812     0.000000266800
      20       -0.000000640297    -0.000000417351    -0.000000520375
      21       -0.000000583161    -0.000000492899    -0.000000140514
      22        0.000000275664    -0.000000127956     0.000000246819
      23       -0.000000266683    -0.000000244054     0.000000178709
      24       -0.000000017079    -0.000000618759    -0.000001039212
      25       -0.000000356454    -0.000000179089    -0.000000254925
      26        0.000000089234     0.000000002635    -0.000000092898


			-----------------------------------------
			 OPTKING 2.0: for geometry optimizations 
			  - R.A. King,  Bethel University        
			-----------------------------------------

	Internal coordinates to be generated automatically.
	Detected frag 1 with atoms:  1 2 3 4 5 6 7 8 9 10 11 12 13 14 15 16 17 18 19 20
	 21 22 23 24 25 26
	---Fragment 1 Bond Connectivity---
	 1 : 2 3 4 9
	 2 : 1
	 3 : 1
	 4 : 1
	 5 : 6 7 8 12
	 6 : 5
	 7 : 5
	 8 : 5
	 9 : 1 10 11 15
	 10 : 9
	 11 : 9
	 12 : 5 13 14 24
	 13 : 12
	 14 : 12
	 15 : 9 16 17 18
	 16 : 15
	 17 : 15
	 18 : 15 19 20 21
	 19 : 18
	 20 : 18
	 21 : 18 22 23 24
	 22 : 21
	 23 : 21
	 24 : 12 21 25 26
	 25 : 24
	 26 : 24

	---Fragment 1 Geometry and Gradient---
	 C          -1.1018756322       -6.8184945757       -1.5711766546
	 H          -2.8214837636       -5.6923596881       -1.6793803335
	 H          -1.6598618431       -8.7967635697       -1.4456156136
	 H          -0.0680320462       -6.5636093471       -3.3374715199
	 C           1.1016382417        6.8185223877       -1.5717262899
	 H           0.0676128894        6.5634997488       -3.3378947904
	 H           2.8213112749        5.6925049737       -1.6800802817
	 H           1.6595030590        8.7968338242       -1.4463045588
	 C           0.5285539423       -6.0515201259        0.6779609538
	 H           2.1247284362       -7.3510721445        0.8320680294
	 H          -0.5594855901       -6.2505402899        2.4234591091
	 C          -0.5284837331        6.0515242608        0.6776267119
	 H           0.5597613176        6.2506032076        2.4229894440
	 H          -2.1246692287        7.3510396151        0.8319067696
	 C           1.5293358746       -3.3513933921        0.4933916501
	 H           2.6513042188       -3.1578908581       -1.2344976907
	 H           2.8165921173       -2.9941162642        2.0706995886
	 C          -0.5312016350       -1.3384118155        0.5115703171
	 H          -1.7252974777       -1.6012887929        2.1816056877
	 H          -1.7606943672       -1.5671857428       -1.1325725308
	 C           0.5312978802        1.3383971041        0.5114080437
	 H           1.7255263661        1.6014188564        2.1813258222
	 H           1.7606574089        1.5670246645       -1.1328528277
	 C          -1.5292442433        3.3513731617        0.4932210311
	 H          -2.6513059107        3.1577759842       -1.2345967941
	 H          -2.8164132746        2.9941614833        2.0706130580
	             0.0000001004        0.0000006061        0.0000004993
	            -0.0000007739        0.0000009182       -0.0000002778
	            -0.0000002284       -0.0000005288        0.0000001775
	             0.0000002752        0.0000000045       -0.0000004305
	            -0.0000002039        0.0000005000       -0.0000001043
	             0.0000000202       -0.0000000635       -0.0000002770
	            -0.0000002303        0.0000006063        0.0000001519
	            -0.0000001119        0.0000000138       -0.0000000789
	             0.0000005570        0.0000005666       -0.0000014482
	             0.0000008429       -0.0000005113        0.0000000955
	            -0.0000003426        0.0000001363        0.0000006274
	             0.0000009692        0.0000001398        0.0000007315
	             0.0000001207        0.0000002667        0.0000001684
	             0.0000002616       -0.0000001357       -0.0000000664
	            -0.0000007177       -0.0000006025        0.0000011123
	             0.0000003596       -0.0000001716       -0.0000005066
	             0.0000005591        0.0000000008        0.0000006740
	             0.0000003109        0.0000003915        0.0000003073
	            -0.0000002693       -0.0000000598        0.0000002668
	            -0.0000006403       -0.0000004174       -0.0000005204
	            -0.0000005832       -0.0000004929       -0.0000001405
	             0.0000002757       -0.0000001280        0.0000002468
	            -0.0000002667       -0.0000002441        0.0000001787
	            -0.0000000171       -0.0000006188       -0.0000010392
	            -0.0000003565       -0.0000001791       -0.0000002549
	             0.0000000892        0.0000000026       -0.0000000929

	Previous optimization step data not found.  Starting new optimization.

	---Fragment 1 Intrafragment Coordinates---
	 - Coordinate -           - BOHR/RAD -       - ANG/DEG -
	 R(1,2)           =         2.058383	       1.089249
	 R(1,3)           =         2.059287	       1.089728
	 R(1,4)           =         2.062425	       1.091388
	 R(1,9)           =         2.881869	       1.525020
	 R(5,6)           =         2.062425	       1.091388
	 R(5,7)           =         2.058381	       1.089248
	 R(5,8)           =         2.059286	       1.089727
	 R(5,12)          =         2.881870	       1.525020
	 R(9,10)          =         2.064063	       1.092255
	 R(9,11)          =         2.066447	       1.093517
	 R(9,15)          =         2.885535	       1.526960
	 R(12,13)         =         2.066446	       1.093516
	 R(12,14)         =         2.064062	       1.092254
	 R(12,24)         =         2.885540	       1.526962
	 R(15,16)         =         2.069265	       1.095008
	 R(15,17)         =         2.067021	       1.093820
	 R(15,18)         =         2.880667	       1.524383
	 R(18,19)         =         2.069780	       1.095280
	 R(18,20)         =         2.065719	       1.093131
	 R(18,21)         =         2.879967	       1.524013
	 R(21,22)         =         2.069780	       1.095280
	 R(21,23)         =         2.065718	       1.093131
	 R(21,24)         =         2.880666	       1.524383
	 R(24,25)         =         2.069265	       1.095008
	 R(24,26)         =         2.067020	       1.093820
	 B(1,9,10)        =         1.905208	     109.160405
	 B(1,9,11)        =         1.913159	     109.615924
	 B(1,9,15)        =         1.977230	     113.286940
	 B(2,1,3)         =         1.878019	     107.602560
	 B(2,1,4)         =         1.881934	     107.826864
	 B(2,1,9)         =         1.947722	     111.596229
	 B(3,1,4)         =         1.882591	     107.864533
	 B(3,1,9)         =         1.940542	     111.184876
	 B(4,1,9)         =         1.930392	     110.603304
	 B(5,12,13)       =         1.913163	     109.616143
	 B(5,12,14)       =         1.905199	     109.159874
	 B(5,12,24)       =         1.977238	     113.287406
	 B(6,5,7)         =         1.881935	     107.826928
	 B(6,5,8)         =         1.882591	     107.864492
	 B(6,5,12)        =         1.930393	     110.603369
	 B(7,5,8)         =         1.878017	     107.602467
	 B(7,5,12)        =         1.947722	     111.596267
	 B(8,5,12)        =         1.940542	     111.184840
	 B(9,15,16)       =         1.906006	     109.206098
	 B(9,15,17)       =         1.905957	     109.203265
	 B(9,15,18)       =         1.988214	     113.916263
	 B(10,9,11)       =         1.858205	     106.467304
	 B(10,9,15)       =         1.902571	     109.009315
	 B(11,9,15)       =         1.903675	     109.072532
	 B(12,24,21)      =         1.988223	     113.916791
	 B(12,24,25)      =         1.906011	     109.206409
	 B(12,24,26)      =         1.905949	     109.202835
	 B(13,12,14)      =         1.858203	     106.467180
	 B(13,12,24)      =         1.903681	     109.072863
	 B(14,12,24)      =         1.902565	     109.008916
	 B(15,18,19)      =         1.906051	     109.208705
	 B(15,18,20)      =         1.921252	     110.079618
	 B(15,18,21)      =         1.966657	     112.681140
	 B(16,15,17)      =         1.858099	     106.461225
	 B(16,15,18)      =         1.904731	     109.133068
	 B(17,15,18)      =         1.896378	     108.654461
	 B(18,21,22)      =         1.908088	     109.325389
	 B(18,21,23)      =         1.899137	     108.812517
	 B(18,21,24)      =         1.966655	     112.681041
	 B(19,18,20)      =         1.859550	     106.544364
	 B(19,18,21)      =         1.908090	     109.325528
	 B(20,18,21)      =         1.899136	     108.812499
	 B(21,24,25)      =         1.904735	     109.133289
	 B(21,24,26)      =         1.896369	     108.653922
	 B(22,21,23)      =         1.859551	     106.544448
	 B(22,21,24)      =         1.906052	     109.208714
	 B(23,21,24)      =         1.921254	     110.079752
	 B(25,24,26)      =         1.858096	     106.461086
	 D(1,9,15,16)     =        -1.025232	     -58.741461
	 D(1,9,15,17)     =        -3.050603	    -174.786704
	 D(1,9,15,18)     =         1.109090	      63.546155
	 D(2,1,9,10)      =         3.038393	     174.087079
	 D(2,1,9,11)      =         1.009306	      57.828952
	 D(2,1,9,15)      =        -1.121337	     -64.247857
	 D(3,1,9,10)      =         0.941411	      53.938876
	 D(3,1,9,11)      =        -1.087676	     -62.319251
	 D(3,1,9,15)      =         3.064867	     175.603940
	 D(4,1,9,10)      =        -1.149739	     -65.875164
	 D(4,1,9,11)      =         3.104360	     177.866708
	 D(4,1,9,15)      =         0.973717	      55.789900
	 D(5,12,24,21)    =         1.109188	      63.551811
	 D(5,12,24,25)    =        -1.025149	     -58.736689
	 D(5,12,24,26)    =        -3.050516	    -174.781699
	 D(6,5,12,13)     =         3.104316	     177.864221
	 D(6,5,12,14)     =        -1.149788	     -65.877980
	 D(6,5,12,24)     =         0.973658	      55.786505
	 D(7,5,12,13)     =         1.009260	      57.826315
	 D(7,5,12,14)     =         3.038341	     174.084114
	 D(7,5,12,24)     =        -1.121399	     -64.251402
	 D(8,5,12,13)     =        -1.087720	     -62.321771
	 D(8,5,12,14)     =         0.941361	      53.936028
	 D(8,5,12,24)     =         3.064807	     175.600513
	 D(9,15,18,19)    =         0.947443	      54.284507
	 D(9,15,18,20)    =        -1.088349	     -62.357816
	 D(9,15,18,21)    =         3.071455	     175.981421
	 D(10,9,15,16)    =         1.099701	      63.008219
	 D(10,9,15,17)    =        -0.925671	     -53.037024
	 D(10,9,15,18)    =        -3.049163	    -174.704165
	 D(11,9,15,16)    =         3.122030	     178.879130
	 D(11,9,15,17)    =         1.096658	      62.833887
	 D(11,9,15,18)    =        -1.026834	     -58.833254
	 D(12,24,21,18)   =         3.071395	     175.977968
	 D(12,24,21,22)   =         0.947387	      54.281289
	 D(12,24,21,23)   =        -1.088409	     -62.361219
	 D(13,12,24,21)   =        -1.026750	     -58.828438
	 D(13,12,24,25)   =         3.122098	     178.883062
	 D(13,12,24,26)   =         1.096731	      62.838052
	 D(14,12,24,21)   =        -3.049076	    -174.699163
	 D(14,12,24,25)   =         1.099773	      63.012337
	 D(14,12,24,26)   =        -0.925595	     -53.032673
	 D(15,18,21,22)   =        -1.032421	     -59.153385
	 D(15,18,21,23)   =         0.992041	      56.839739
	 D(15,18,21,24)   =         3.127910	     179.216064
	 D(16,15,18,19)   =         3.082466	     176.612272
	 D(16,15,18,20)   =         1.046673	      59.969949
	 D(16,15,18,21)   =        -1.076708	     -61.690814
	 D(17,15,18,19)   =        -1.181343	     -67.685959
	 D(17,15,18,20)   =         3.066050	     175.671717
	 D(17,15,18,21)   =         0.942669	      54.010955
	 D(18,21,24,25)   =        -1.076752	     -61.693335
	 D(18,21,24,26)   =         0.942619	      54.008093
	 D(19,18,21,22)   =         1.090435	      62.477317
	 D(19,18,21,23)   =         3.114897	     178.470442
	 D(19,18,21,24)   =        -1.032419	     -59.153234
	 D(20,18,21,22)   =         3.114896	     178.470408
	 D(20,18,21,23)   =        -1.143827	     -65.536468
	 D(20,18,21,24)   =         0.992043	      56.839857
	 D(22,21,24,25)   =         3.082426	     176.609986
	 D(22,21,24,26)   =        -1.181389	     -67.688586
	 D(23,21,24,25)   =         1.046630	      59.967478
	 D(23,21,24,26)   =         3.066001	     175.668907

	Current energy   :      -314.9836850424

	Generating empirical Hessian (Schlegel '84) for each fragment.
	Taking RFO optimization step.
	Going to follow RFO solution 1.
	Using RFO vector 1.
	Norm of target step-size    0.00078
	Projected energy change by RFO approximation:        -0.0000000020

	Back-transformation to cartesian coordinates...
	Successfully converged to displaced geometry.

	--- Internal Coordinate Step in ANG or DEG, aJ/ANG or AJ/DEG ---
	 ---------------------------------------------------------------------------
	   Coordinate                Previous        Force       Change         New 
	   ----------                --------       ------       ------       ------
	    1 R(1,2)          =      1.089249    -0.000010    -0.000002     1.089248
	    2 R(1,3)          =      1.089728    -0.000005    -0.000001     1.089727
	    3 R(1,4)          =      1.091388    -0.000004    -0.000001     1.091387
	    4 R(1,9)          =      1.525020    -0.000001    -0.000000     1.525019
	    5 R(5,6)          =      1.091388    -0.000002    -0.000000     1.091388
	    6 R(5,7)          =      1.089248     0.000004     0.000001     1.089249
	    7 R(5,8)          =      1.089727     0.000000     0.000000     1.089727
	    8 R(5,12)         =      1.525020    -0.000002    -0.000000     1.525019
	    9 R(9,10)         =      1.092255    -0.000008    -0.000002     1.092254
	   10 R(9,11)         =      1.093517    -0.000006    -0.000001     1.093516
	   11 R(9,15)         =      1.526960     0.000011     0.000002     1.526962
	   12 R(12,13)        =      1.093516    -0.000002    -0.000000     1.093516
	   13 R(12,14)        =      1.092254     0.000002     0.000000     1.092255
	   14 R(12,24)        =      1.526962    -0.000013    -0.000003     1.526959
	   15 R(15,16)        =      1.095008    -0.000005    -0.000001     1.095007
	   16 R(15,17)        =      1.093820    -0.000007    -0.000001     1.093819
	   17 R(15,18)        =      1.524383    -0.000002    -0.000000     1.524383
	   18 R(18,19)        =      1.095280    -0.000003    -0.000001     1.095280
	   19 R(18,20)        =      1.093131    -0.000007    -0.000001     1.093130
	   20 R(18,21)        =      1.524013     0.000003     0.000001     1.524014
	   21 R(21,22)        =      1.095280    -0.000003    -0.000001     1.095280
	   22 R(21,23)        =      1.093131     0.000003     0.000001     1.093131
	   23 R(21,24)        =      1.524383    -0.000000    -0.000000     1.524383
	   24 R(24,25)        =      1.095008    -0.000004    -0.000001     1.095007
	   25 R(24,26)        =      1.093820     0.000001     0.000000     1.093820
	   26 B(1,9,10)       =    109.160405    -0.000000    -0.000498   109.159907
	   27 B(1,9,11)       =    109.615924    -0.000000     0.000184   109.616108
	   28 B(1,9,15)       =    113.286940     0.000000     0.000450   113.287390
	   29 B(2,1,3)        =    107.602560    -0.000000    -0.000093   107.602467
	   30 B(2,1,4)        =    107.826864     0.000000     0.000081   107.826945
	   31 B(2,1,9)        =    111.596229     0.000000     0.000010   111.596239
	   32 B(3,1,4)        =    107.864533    -0.000000    -0.000033   107.864501
	   33 B(3,1,9)        =    111.184876     0.000000     0.000003   111.184878
	   34 B(4,1,9)        =    110.603304     0.000000     0.000030   110.603334
	   35 B(5,12,13)      =    109.616143     0.000000    -0.000269   109.615874
	   36 B(5,12,14)      =    109.159874     0.000000     0.000573   109.160446
	   37 B(5,12,24)      =    113.287406    -0.000000    -0.000496   113.286910
	   38 B(6,5,7)        =    107.826928     0.000000    -0.000052   107.826875
	   39 B(6,5,8)        =    107.864492     0.000000     0.000050   107.864542
	   40 B(6,5,12)       =    110.603369    -0.000000    -0.000096   110.603274
	   41 B(7,5,8)        =    107.602467     0.000000     0.000095   107.602562
	   42 B(7,5,12)       =    111.596267    -0.000000    -0.000065   111.596202
	   43 B(8,5,12)       =    111.184840     0.000000     0.000072   111.184912
	   44 B(9,15,16)      =    109.206098    -0.000000     0.000377   109.206475
	   45 B(9,15,17)      =    109.203265    -0.000000    -0.000464   109.202800
	   46 B(9,15,18)      =    113.916263     0.000000     0.000550   113.916813
	   47 B(10,9,11)      =    106.467304     0.000000    -0.000132   106.467173
	   48 B(10,9,15)      =    109.009315    -0.000000    -0.000352   109.008964
	   49 B(11,9,15)      =    109.072532    -0.000000     0.000309   109.072841
	   50 B(12,24,21)     =    113.916791    -0.000000    -0.000536   113.916254
	   51 B(12,24,25)     =    109.206409     0.000000    -0.000278   109.206131
	   52 B(12,24,26)     =    109.202835     0.000000     0.000437   109.203272
	   53 B(13,12,14)     =    106.467180    -0.000000     0.000141   106.467321
	   54 B(13,12,24)     =    109.072863     0.000000    -0.000376   109.072487
	   55 B(14,12,24)     =    109.008916     0.000000     0.000470   109.009387
	   56 B(15,18,19)     =    109.208705     0.000000    -0.000061   109.208644
	   57 B(15,18,20)     =    110.079618     0.000000     0.000201   110.079819
	   58 B(15,18,21)     =    112.681140    -0.000000    -0.000141   112.680999
	   59 B(16,15,17)     =    106.461225     0.000000    -0.000115   106.461109
	   60 B(16,15,18)     =    109.133068    -0.000000     0.000175   109.133243
	   61 B(17,15,18)     =    108.654461    -0.000000    -0.000570   108.653891
	   62 B(18,21,22)     =    109.325389     0.000000     0.000083   109.325472
	   63 B(18,21,23)     =    108.812517    -0.000000     0.000020   108.812536
	   64 B(18,21,24)     =    112.681041     0.000000     0.000144   112.681185
	   65 B(19,18,20)     =    106.544364     0.000000     0.000119   106.544484
	   66 B(19,18,21)     =    109.325528    -0.000000    -0.000187   109.325340
	   67 B(20,18,21)     =    108.812499     0.000000     0.000081   108.812580
	   68 B(21,24,25)     =    109.133289     0.000000    -0.000267   109.133023
	   69 B(21,24,26)     =    108.653922     0.000000     0.000533   108.654455
	   70 B(22,21,23)     =    106.544448     0.000000    -0.000054   106.544394
	   71 B(22,21,24)     =    109.208714    -0.000000    -0.000117   109.208598
	   72 B(23,21,24)     =    110.079752    -0.000000    -0.000085   110.079667
	   73 B(25,24,26)     =    106.461086    -0.000000     0.000160   106.461246
	   74 D(1,9,15,16)    =    -58.741461     0.000000     0.007310   -58.734151
	   75 D(1,9,15,17)    =   -174.786704     0.000000     0.007497  -174.779206
	   76 D(1,9,15,18)    =     63.546155     0.000000     0.008198    63.554353
	   77 D(2,1,9,10)     =    174.087079    -0.000000    -0.004490   174.082589
	   78 D(2,1,9,11)     =     57.828952     0.000000    -0.004152    57.824800
	   79 D(2,1,9,15)     =    -64.247857    -0.000000    -0.004995   -64.252852
	   80 D(3,1,9,10)     =     53.938876    -0.000000    -0.004380    53.934496
	   81 D(3,1,9,11)     =    -62.319251     0.000000    -0.004042   -62.323293
	   82 D(3,1,9,15)     =    175.603940    -0.000000    -0.004886   175.599055
	   83 D(4,1,9,10)     =    -65.875164    -0.000000    -0.004361   -65.879525
	   84 D(4,1,9,11)     =    177.866708     0.000000    -0.004023   177.862685
	   85 D(4,1,9,15)     =     55.789900    -0.000000    -0.004866    55.785033
	   86 D(5,12,24,21)   =     63.551811    -0.000000    -0.009755    63.542055
	   87 D(5,12,24,25)   =    -58.736689    -0.000000    -0.008832   -58.745521
	   88 D(5,12,24,26)   =   -174.781699    -0.000000    -0.009112  -174.790811
	   89 D(6,5,12,13)    =    177.864221    -0.000000     0.004028   177.868249
	   90 D(6,5,12,14)    =    -65.877980     0.000000     0.004371   -65.873609
	   91 D(6,5,12,24)    =     55.786505     0.000000     0.005051    55.791556
	   92 D(7,5,12,13)    =     57.826315    -0.000000     0.004201    57.830516
	   93 D(7,5,12,14)    =    174.084114     0.000000     0.004544   174.088658
	   94 D(7,5,12,24)    =    -64.251402     0.000000     0.005225   -64.246177
	   95 D(8,5,12,13)    =    -62.321771    -0.000000     0.004074   -62.317696
	   96 D(8,5,12,14)    =     53.936028     0.000000     0.004418    53.940446
	   97 D(8,5,12,24)    =    175.600513     0.000000     0.005098   175.605611
	   98 D(9,15,18,19)   =     54.284507    -0.000000    -0.007038    54.277469
	   99 D(9,15,18,20)   =    -62.357816    -0.000000    -0.007262   -62.365078
	  100 D(9,15,18,21)   =    175.981421    -0.000000    -0.007413   175.974008
	  101 D(10,9,15,16)   =     63.008219    -0.000000     0.006723    63.014942
	  102 D(10,9,15,17)   =    -53.037024     0.000000     0.006910   -53.030114
	  103 D(10,9,15,18)   =   -174.704165     0.000000     0.007611  -174.696554
	  104 D(11,9,15,16)   =    178.879130    -0.000000     0.006542   178.885671
	  105 D(11,9,15,17)   =     62.833887    -0.000000     0.006729    62.840616
	  106 D(11,9,15,18)   =    -58.833254     0.000000     0.007430   -58.825824
	  107 D(12,24,21,18)  =    175.977968     0.000000     0.003186   175.981154
	  108 D(12,24,21,22)  =     54.281289     0.000000     0.003067    54.284356
	  109 D(12,24,21,23)  =    -62.361219     0.000000     0.003250   -62.357969
	  110 D(13,12,24,21)  =    -58.828438    -0.000000    -0.008797   -58.837235
	  111 D(13,12,24,25)  =    178.883062     0.000000    -0.007874   178.875188
	  112 D(13,12,24,26)  =     62.838052     0.000000    -0.008154    62.829898
	  113 D(14,12,24,21)  =   -174.699163    -0.000000    -0.009018  -174.708181
	  114 D(14,12,24,25)  =     63.012337     0.000000    -0.008094    63.004243
	  115 D(14,12,24,26)  =    -53.032673    -0.000000    -0.008375   -53.041047
	  116 D(15,18,21,22)  =    -59.153385     0.000000     0.000179   -59.153206
	  117 D(15,18,21,23)  =     56.839739     0.000000     0.000171    56.839910
	  118 D(15,18,21,24)  =    179.216064     0.000000     0.000173   179.216237
	  119 D(16,15,18,19)  =    176.612272     0.000000    -0.006040   176.606232
	  120 D(16,15,18,20)  =     59.969949     0.000000    -0.006264    59.963684
	  121 D(16,15,18,21)  =    -61.690814     0.000000    -0.006416   -61.697229
	  122 D(17,15,18,19)  =    -67.685959    -0.000000    -0.006394   -67.692353
	  123 D(17,15,18,20)  =    175.671717    -0.000000    -0.006618   175.665099
	  124 D(17,15,18,21)  =     54.010955    -0.000000    -0.006770    54.004185
	  125 D(18,21,24,25)  =    -61.693335    -0.000000     0.002258   -61.691078
	  126 D(18,21,24,26)  =     54.008093     0.000000     0.002595    54.010689
	  127 D(19,18,21,22)  =     62.477317    -0.000000    -0.000125    62.477192
	  128 D(19,18,21,23)  =    178.470442    -0.000000    -0.000133   178.470308
	  129 D(19,18,21,24)  =    -59.153234    -0.000000    -0.000131   -59.153365
	  130 D(20,18,21,22)  =    178.470408    -0.000000    -0.000041   178.470367
	  131 D(20,18,21,23)  =    -65.536468    -0.000000    -0.000049   -65.536517
	  132 D(20,18,21,24)  =     56.839857    -0.000000    -0.000047    56.839810
	  133 D(22,21,24,25)  =    176.609986    -0.000000     0.002139   176.612124
	  134 D(22,21,24,26)  =    -67.688586     0.000000     0.002476   -67.686109
	  135 D(23,21,24,25)  =     59.967478    -0.000000     0.002321    59.969799
	  136 D(23,21,24,26)  =    175.668907     0.000000     0.002659   175.671565
	 ---------------------------------------------------------------------------

  ==> Convergence Check <==

  Measures of convergence in internal coordinates in au.
  Criteria marked as inactive (o), active & met (*), and active & unmet ( ).
  --------------------------------------------------------------------------------------------- ~
   Step     Total Energy     Delta E     MAX Force     RMS Force      MAX Disp      RMS Disp    ~
  --------------------------------------------------------------------------------------------- ~
    Convergence Criteria             o    2.00e-06 *    1.00e-06 *    6.00e-06 *    4.00e-06 *  ~
  --------------------------------------------------------------------------------------------- ~
      1    -314.98368504   -3.15e+02 o    1.90e-06 *    5.05e-07 *    1.70e-04      6.68e-05    ~
  ---------------------------------------------------------------------------------------------

	Writing optimization data to binary file.
	Structure for next step:
	Cartesian Geometry (in Angstrom)
	    C    -0.5830560242  -3.6083068100  -0.8313913542
	    H    -1.4930916321  -3.0124760839  -0.8886725871
	    H    -0.8782268041  -4.6551854744  -0.7648800137
	    H    -0.0359963928  -3.4734313420  -1.7660897132
	    C     0.5830415806   3.6081431614  -0.8316564739
	    H     0.0359007461   3.4732262804  -1.7663017306
	    H     1.4930013013   3.0121934439  -0.8889328518
	    H     0.8783438418   4.6549942553  -0.7652851647
	    C     0.2797072000  -3.2022857063   0.3587643433
	    H     1.1243872891  -3.8899427176   0.4403833389
	    H    -0.2960552621  -3.3075329279   1.2824509015
	    C    -0.2796891393   3.2023618984   0.3586045692
	    H     0.2961210304   3.3077412295   1.2822468613
	    H    -1.1243427936   3.8900620995   0.4401476194
	    C     0.8092617916  -1.7734337528   0.2609541884
	    H     1.4028819936  -1.6710718179  -0.6534731330
	    H     1.4905354796  -1.5843192374   1.0955451335
	    C    -0.2811348734  -0.7082183652   0.2706502923
	    H    -0.9129891919  -0.8473629590   1.1544128425
	    H    -0.9317839554  -0.8292493249  -0.5993732242
	    C     0.2811090590   0.7082912023   0.2706023425
	    H     0.9130973868   0.8474450152   1.1542677142
	    H     0.9316279677   0.8293144141  -0.5995208144
	    C    -0.8092855873   1.7735100678   0.2610588061
	    H    -1.4031082215   1.6710689748  -0.6532283729
	    H    -1.4903762350   1.5844817627   1.0958196483
			--------------------------
			 OPTKING Finished Execution 
			--------------------------

    Structure for next step:
    Molecular point group: c1
    Full point group: C1

    Geometry (in Angstrom), charge = 0, multiplicity = 1:

    C           -0.583050540283    -3.608312904130    -0.831387833865
    H           -1.493086148126    -3.012482177986    -0.888669066770
    H           -0.878221320151    -4.655191568575    -0.764876493363
    H           -0.035990908869    -3.473437436095    -1.766086192953
    C            0.583047064553     3.608137067253    -0.831652953573
    H            0.035906230029     3.473220186223    -1.766298210316
    H            1.493006785292     3.012187349799    -0.888929331493
    H            0.878349325706     4.654988161128    -0.765281644379
    C            0.279712683999    -3.202291800420     0.358767863587
    H            1.124392773081    -3.889948811734     0.440386859204
    H           -0.296049778132    -3.307539022054     1.282454421766
    C           -0.279683655357     3.202355804274     0.358608089522
    H            0.296126514319     3.307735135417     1.282250381591
    H           -1.124337309606     3.890056005371     0.440151139668
    C            0.809267275587    -1.773439846930     0.260957708736
    H            1.402887477587    -1.671077912018    -0.653469612688
    H            1.490540963602    -1.584325331571     1.095548653833
    C           -0.281129389468    -0.708224459358     0.270653812547
    H           -0.912983707941    -0.847369053100     1.154416362807
    H           -0.931778471476    -0.829255419051    -0.599369703873
    C            0.281114542929     0.708285108130     0.270605862797
    H            0.913102870742     0.847438921036     1.154271234493
    H            0.931633451630     0.829308320022    -0.599517294109
    C           -0.809280103357     1.773503973663     0.261062326370
    H           -1.403102737500     1.671062880652    -0.653224852632
    H           -1.490370751078     1.584475668615     1.095823168571

gradient() will perform analytic gradient computation.

*** tstart() called on wr37
*** at Tue Sep 20 22:47:09 2016


         ---------------------------------------------------------
                                   SCF
            by Justin Turney, Rob Parrish, and Andy Simmonett
                              RHF Reference
                       12 Threads,  60000 MiB Core
         ---------------------------------------------------------

  ==> Geometry <==

    Molecular point group: c1
    Full point group: C1

    Geometry (in Angstrom), charge = 0, multiplicity = 1:

       Center              X                  Y                   Z               Mass       
    ------------   -----------------  -----------------  -----------------  -----------------
           C         -0.583050540283    -3.608312904130    -0.831387833865    12.000000000000
           H         -1.493086148126    -3.012482177986    -0.888669066770     1.007825032070
           H         -0.878221320151    -4.655191568575    -0.764876493363     1.007825032070
           H         -0.035990908869    -3.473437436095    -1.766086192953     1.007825032070
           C          0.583047064553     3.608137067253    -0.831652953573    12.000000000000
           H          0.035906230029     3.473220186223    -1.766298210316     1.007825032070
           H          1.493006785292     3.012187349799    -0.888929331493     1.007825032070
           H          0.878349325706     4.654988161128    -0.765281644379     1.007825032070
           C          0.279712683999    -3.202291800420     0.358767863587    12.000000000000
           H          1.124392773081    -3.889948811734     0.440386859204     1.007825032070
           H         -0.296049778132    -3.307539022054     1.282454421766     1.007825032070
           C         -0.279683655357     3.202355804274     0.358608089522    12.000000000000
           H          0.296126514319     3.307735135417     1.282250381591     1.007825032070
           H         -1.124337309606     3.890056005371     0.440151139668     1.007825032070
           C          0.809267275587    -1.773439846930     0.260957708736    12.000000000000
           H          1.402887477587    -1.671077912018    -0.653469612688     1.007825032070
           H          1.490540963602    -1.584325331571     1.095548653833     1.007825032070
           C         -0.281129389468    -0.708224459358     0.270653812547    12.000000000000
           H         -0.912983707941    -0.847369053100     1.154416362807     1.007825032070
           H         -0.931778471476    -0.829255419051    -0.599369703873     1.007825032070
           C          0.281114542929     0.708285108130     0.270605862797    12.000000000000
           H          0.913102870742     0.847438921036     1.154271234493     1.007825032070
           H          0.931633451630     0.829308320022    -0.599517294109     1.007825032070
           C         -0.809280103357     1.773503973663     0.261062326370    12.000000000000
           H         -1.403102737500     1.671062880652    -0.653224852632     1.007825032070
           H         -1.490370751078     1.584475668615     1.095823168571     1.007825032070

  Running in c1 symmetry.

  Rotational constants: A =      0.18563  B =      0.02004  C =      0.01991 [cm^-1]
  Rotational constants: A =   5564.96385  B =    600.91658  C =    596.83338 [MHz]
  Nuclear repulsion =  385.130331396227689

  Charge       = 0
  Multiplicity = 1
  Electrons    = 66
  Nalpha       = 33
  Nbeta        = 33

  ==> Algorithm <==

  SCF Algorithm Type is DF.
  DIIS enabled.
  MOM disabled.
  Fractional occupation disabled.
  Guess Type is READ.
  Energy threshold   = 1.00e-10
  Density threshold  = 1.00e-10
  Integral threshold = 0.00e+00

  ==> Primary Basis <==

  Basis Set: AUG-CC-PVTZ
    Number of shells: 274
    Number of basis function: 782
    Number of Cartesian functions: 890
    Spherical Harmonics?: true
    Max angular momentum: 3

  ==> Pre-Iterations <==

   -------------------------------------------------------
    Irrep   Nso     Nmo     Nalpha   Nbeta   Ndocc  Nsocc
   -------------------------------------------------------
     A        782     782       0       0       0       0
   -------------------------------------------------------
    Total     782     782      33      33      33       0
   -------------------------------------------------------

  ==> Integral Setup <==

  ==> DFJK: Density-Fitted J/K Matrices <==

    J tasked:                  Yes
    K tasked:                  Yes
    wK tasked:                  No
    OpenMP threads:             12
    Integrals threads:          12
    Memory (MB):             42915
    Algorithm:                Core
    Integral Cache:           NONE
    Schwarz Cutoff:          1E-12
    Fitting Condition:       1E-12

   => Auxiliary Basis Set <=

  Basis Set: 
    Number of shells: 492
    Number of basis function: 1660
    Number of Cartesian functions: 2038
    Spherical Harmonics?: true
    Max angular momentum: 4

  Minimum eigenvalue in the overlap matrix is 2.9267010070E-06.
  Using Symmetric Orthogonalization.
  SCF Guess: Reading in previously saved MOs, projecting if necessary.

  Using orbitals from previous SCF, no projection.
  Recomputing DOCC and SOCC from number of alpha and beta electrons from previous calculation.
              A 
    DOCC [    33 ]

  ==> Iterations <==

                           Total Energy        Delta E     RMS |[F,P]|

   @DF-RHF iter   0:  -313.54416622934775   -3.13544e+02   3.50702e-07 
   @DF-RHF iter   1:  -313.54412866202881    3.75673e-05   7.59600e-08 
   @DF-RHF iter   2:  -313.54412866503571   -3.00690e-09   3.15267e-08 DIIS
   @DF-RHF iter   3:  -313.54412866547034   -4.34625e-10   1.26505e-08 DIIS
   @DF-RHF iter   4:  -313.54412866556322   -9.28821e-11   1.33557e-09 DIIS
   @DF-RHF iter   5:  -313.54412866556436   -1.13687e-12   5.02325e-10 DIIS
   @DF-RHF iter   6:  -313.54412866556447   -1.13687e-13   1.02565e-10 DIIS
   @DF-RHF iter   7:  -313.54412866556447    0.00000e+00   2.17889e-11 DIIS

  ==> Post-Iterations <==

    Orbital Energies (a.u.)
    -----------------------

    Doubly Occupied:                                                      

       1A    -11.212722     2A    -11.212722     3A    -11.210321  
       4A    -11.210264     5A    -11.209487     6A    -11.208916  
       7A    -11.206437     8A    -11.206437     9A     -1.093400  
      10A     -1.062109    11A     -1.009276    12A     -0.945031  
      13A     -0.886518    14A     -0.828546    15A     -0.773572  
      16A     -0.771075    17A     -0.648166    18A     -0.621594  
      19A     -0.618846    20A     -0.592320    21A     -0.581394  
      22A     -0.563747    23A     -0.536070    24A     -0.527437  
      25A     -0.516313    26A     -0.496436    27A     -0.489712  
      28A     -0.477445    29A     -0.461074    30A     -0.459529  
      31A     -0.452844    32A     -0.448483    33A     -0.428403  

    Virtual:                                                              

      34A      0.030487    35A      0.031704    36A      0.034247  
      37A      0.035965    38A      0.044440    39A      0.046947  
      40A      0.048793    41A      0.055152    42A      0.056914  
      43A      0.061885    44A      0.067710    45A      0.070281  
      46A      0.073434    47A      0.077196    48A      0.087770  
      49A      0.094615    50A      0.098066    51A      0.111651  
      52A      0.114268    53A      0.115796    54A      0.117904  
      55A      0.122692    56A      0.124650    57A      0.131097  
      58A      0.132693    59A      0.134053    60A      0.141067  
      61A      0.142769    62A      0.143641    63A      0.153814  
      64A      0.156327    65A      0.160981    66A      0.163530  
      67A      0.165742    68A      0.167946    69A      0.169537  
      70A      0.170917    71A      0.173451    72A      0.186455  
      73A      0.188796    74A      0.189781    75A      0.193932  
      76A      0.209926    77A      0.225503    78A      0.225899  
      79A      0.230896    80A      0.236764    81A      0.244321  
      82A      0.245422    83A      0.253746    84A      0.256727  
      85A      0.260499    86A      0.272436    87A      0.281215  
      88A      0.282061    89A      0.286801    90A      0.290222  
      91A      0.296136    92A      0.304985    93A      0.313419  
      94A      0.314176    95A      0.316551    96A      0.317526  
      97A      0.322855    98A      0.332743    99A      0.333182  
     100A      0.335514   101A      0.335722   102A      0.340119  
     103A      0.344168   104A      0.350471   105A      0.351875  
     106A      0.361312   107A      0.361656   108A      0.364358  
     109A      0.364952   110A      0.364961   111A      0.369228  
     112A      0.380521   113A      0.381779   114A      0.384513  
     115A      0.387227   116A      0.392817   117A      0.396199  
     118A      0.400039   119A      0.403862   120A      0.405003  
     121A      0.411506   122A      0.419763   123A      0.420772  
     124A      0.429377   125A      0.431858   126A      0.434589  
     127A      0.434978   128A      0.443306   129A      0.445475  
     130A      0.448372   131A      0.450870   132A      0.454005  
     133A      0.465112   134A      0.465745   135A      0.467767  
     136A      0.468333   137A      0.475696   138A      0.476622  
     139A      0.483507   140A      0.484128   141A      0.486456  
     142A      0.489615   143A      0.495979   144A      0.496059  
     145A      0.500487   146A      0.501219   147A      0.507242  
     148A      0.508527   149A      0.516725   150A      0.519275  
     151A      0.521686   152A      0.529342   153A      0.532254  
     154A      0.537148   155A      0.540069   156A      0.541508  
     157A      0.545470   158A      0.549121   159A      0.559993  
     160A      0.566234   161A      0.566715   162A      0.572942  
     163A      0.576661   164A      0.582028   165A      0.585312  
     166A      0.585639   167A      0.589299   168A      0.597463  
     169A      0.602124   170A      0.609220   171A      0.612619  
     172A      0.616559   173A      0.620422   174A      0.626557  
     175A      0.628388   176A      0.635252   177A      0.636318  
     178A      0.646324   179A      0.656295   180A      0.662704  
     181A      0.668603   182A      0.676367   183A      0.680082  
     184A      0.684242   185A      0.685326   186A      0.691952  
     187A      0.697931   188A      0.709206   189A      0.710043  
     190A      0.722339   191A      0.722784   192A      0.733492  
     193A      0.735034   194A      0.740745   195A      0.747896  
     196A      0.757352   197A      0.769000   198A      0.775794  
     199A      0.784398   200A      0.792952   201A      0.794027  
     202A      0.819067   203A      0.826078   204A      0.829226  
     205A      0.831308   206A      0.838504   207A      0.841168  
     208A      0.846220   209A      0.852100   210A      0.855731  
     211A      0.860191   212A      0.860512   213A      0.873686  
     214A      0.876317   215A      0.885253   216A      0.890377  
     217A      0.894494   218A      0.895275   219A      0.897784  
     220A      0.903952   221A      0.912831   222A      0.914398  
     223A      0.916911   224A      0.920249   225A      0.925590  
     226A      0.930370   227A      0.933764   228A      0.936794  
     229A      0.942137   230A      0.946161   231A      0.953861  
     232A      0.962573   233A      0.968898   234A      0.978786  
     235A      0.983173   236A      0.983427   237A      0.990549  
     238A      0.990819   239A      0.997313   240A      1.004105  
     241A      1.004999   242A      1.007418   243A      1.013977  
     244A      1.016161   245A      1.028522   246A      1.032052  
     247A      1.033646   248A      1.044277   249A      1.054089  
     250A      1.055291   251A      1.061869   252A      1.066698  
     253A      1.066759   254A      1.069696   255A      1.080527  
     256A      1.086938   257A      1.097015   258A      1.099706  
     259A      1.102465   260A      1.103072   261A      1.105052  
     262A      1.109968   263A      1.114367   264A      1.125781  
     265A      1.133190   266A      1.142186   267A      1.144099  
     268A      1.147061   269A      1.150321   270A      1.156822  
     271A      1.158848   272A      1.167916   273A      1.177031  
     274A      1.194713   275A      1.199996   276A      1.200309  
     277A      1.202957   278A      1.205207   279A      1.209013  
     280A      1.219324   281A      1.221721   282A      1.225906  
     283A      1.229174   284A      1.232229   285A      1.235472  
     286A      1.240607   287A      1.242289   288A      1.246947  
     289A      1.247094   290A      1.253486   291A      1.255323  
     292A      1.261469   293A      1.279024   294A      1.282579  
     295A      1.284532   296A      1.290894   297A      1.293105  
     298A      1.306009   299A      1.312613   300A      1.322372  
[...]
	Denominators (dg)(dq) or (dq)(dq) are very small.
	 Skipping Hessian update for step 10.
	Denominators (dg)(dq) or (dq)(dq) are very small.
	 Skipping Hessian update for step 9.
	Denominators (dg)(dq) or (dq)(dq) are very small.
	 Skipping Hessian update for step 8.
	Denominators (dg)(dq) or (dq)(dq) are very small.
	 Skipping Hessian update for step 7.
	Denominators (dg)(dq) or (dq)(dq) are very small.
	 Skipping Hessian update for step 6.
	Denominators (dg)(dq) or (dq)(dq) are very small.
	 Skipping Hessian update for step 5.
	Denominators (dg)(dq) or (dq)(dq) are very small.
	 Skipping Hessian update for step 4.
	Denominators (dg)(dq) or (dq)(dq) are very small.
	 Skipping Hessian update for step 3.
	Denominators (dg)(dq) or (dq)(dq) are very small.
	 Skipping Hessian update for step 2.
	Steps to be used in Hessian update: 1
	Taking RFO optimization step.
	Going to follow RFO solution 1.
	Using RFO vector 1.
	Norm of target step-size    0.00002
	Projected energy change by RFO approximation:         0.0000000000

	Back-transformation to cartesian coordinates...
	Successfully converged to displaced geometry.

	--- Internal Coordinate Step in ANG or DEG, aJ/ANG or AJ/DEG ---
	 ---------------------------------------------------------------------------
	   Coordinate                Previous        Force       Change         New 
	   ----------                --------       ------       ------       ------
	    1 R(1,2)          =      1.089249    -0.000002    -0.000000     1.089249
	    2 R(1,3)          =      1.089728    -0.000002    -0.000000     1.089727
	    3 R(1,4)          =      1.091388    -0.000002    -0.000000     1.091388
	    4 R(1,9)          =      1.525020    -0.000000    -0.000000     1.525019
	    5 R(5,6)          =      1.091388    -0.000001     0.000000     1.091388
	    6 R(5,7)          =      1.089249    -0.000001     0.000000     1.089249
	    7 R(5,8)          =      1.089728    -0.000001     0.000000     1.089728
	    8 R(5,12)         =      1.525019     0.000000     0.000000     1.525020
	    9 R(9,10)         =      1.092255    -0.000002    -0.000000     1.092255
	   10 R(9,11)         =      1.093516    -0.000003    -0.000000     1.093516
	   11 R(9,15)         =      1.526961     0.000001     0.000000     1.526961
	   12 R(12,13)        =      1.093517    -0.000002     0.000000     1.093517
	   13 R(12,14)        =      1.092255    -0.000001     0.000000     1.092255
	   14 R(12,24)        =      1.526961    -0.000001    -0.000000     1.526961
	   15 R(15,16)        =      1.095008    -0.000003    -0.000000     1.095008
	   16 R(15,17)        =      1.093820    -0.000003    -0.000000     1.093820
	   17 R(15,18)        =      1.524383     0.000000     0.000000     1.524383
	   18 R(18,19)        =      1.095280    -0.000004    -0.000000     1.095280
	   19 R(18,20)        =      1.093131    -0.000004    -0.000000     1.093131
	   20 R(18,21)        =      1.524014    -0.000002    -0.000000     1.524013
	   21 R(21,22)        =      1.095281    -0.000005    -0.000000     1.095280
	   22 R(21,23)        =      1.093132    -0.000004    -0.000000     1.093131
	   23 R(21,24)        =      1.524383    -0.000001    -0.000000     1.524383
	   24 R(24,25)        =      1.095008    -0.000005    -0.000000     1.095008
	   25 R(24,26)        =      1.093820    -0.000004    -0.000000     1.093820
	   26 B(1,9,10)       =    109.160161    -0.000000    -0.000013   109.160148
	   27 B(1,9,11)       =    109.616011    -0.000000     0.000008   109.616018
	   28 B(1,9,15)       =    113.287135     0.000000     0.000011   113.287147
	   29 B(2,1,3)        =    107.602519    -0.000000    -0.000000   107.602519
	   30 B(2,1,4)        =    107.826897     0.000000     0.000003   107.826900
	   31 B(2,1,9)        =    111.596238    -0.000000    -0.000008   111.596230
	   32 B(3,1,4)        =    107.864516    -0.000000     0.000000   107.864517
	   33 B(3,1,9)        =    111.184876     0.000000     0.000001   111.184877
	   34 B(4,1,9)        =    110.603319    -0.000000     0.000004   110.603323
	   35 B(5,12,13)      =    109.616022     0.000000    -0.000012   109.616010
	   36 B(5,12,14)      =    109.160109     0.000000     0.000015   109.160123
	   37 B(5,12,24)      =    113.287201    -0.000000    -0.000005   113.287196
	   38 B(6,5,7)        =    107.826894     0.000000    -0.000004   107.826890
	   39 B(6,5,8)        =    107.864512     0.000000     0.000001   107.864513
	   40 B(6,5,12)       =    110.603340    -0.000000     0.000002   110.603341
	   41 B(7,5,8)        =    107.602502     0.000000     0.000004   107.602506
	   42 B(7,5,12)       =    111.596271    -0.000000    -0.000005   111.596267
	   43 B(8,5,12)       =    111.184844     0.000000     0.000001   111.184846
	   44 B(9,15,16)      =    109.206234     0.000000     0.000021   109.206254
	   45 B(9,15,17)      =    109.203074    -0.000000    -0.000009   109.203066
	   46 B(9,15,18)      =    113.916534     0.000000     0.000012   113.916546
	   47 B(10,9,11)      =    106.467249     0.000000    -0.000000   106.467249
	   48 B(10,9,15)      =    109.009155    -0.000000    -0.000006   109.009149
	   49 B(11,9,15)      =    109.072694    -0.000000    -0.000001   109.072692
	   50 B(12,24,21)     =    113.916492     0.000000    -0.000001   113.916491
	   51 B(12,24,25)     =    109.206251     0.000000     0.000013   109.206263
	   52 B(12,24,26)     =    109.203046     0.000000     0.000017   109.203063
	   53 B(13,12,14)     =    106.467235    -0.000000     0.000006   106.467240
	   54 B(13,12,24)     =    109.072711    -0.000000    -0.000021   109.072690
	   55 B(14,12,24)     =    109.009123     0.000000     0.000018   109.009141
	   56 B(15,18,19)     =    109.208682    -0.000000     0.000008   109.208690
	   57 B(15,18,20)     =    110.079716     0.000000     0.000005   110.079721
	   58 B(15,18,21)     =    112.680967     0.000000     0.000020   112.680987
	   59 B(16,15,17)     =    106.461170     0.000000    -0.000005   106.461165
	   60 B(16,15,18)     =    109.133135    -0.000000    -0.000002   109.133133
	   61 B(17,15,18)     =    108.654210    -0.000000    -0.000018   108.654192
	   62 B(18,21,22)     =    109.325417     0.000000    -0.000017   109.325401
	   63 B(18,21,23)     =    108.812471     0.000000     0.000029   108.812500
	   64 B(18,21,24)     =    112.681284    -0.000000    -0.000053   112.681232
	   65 B(19,18,20)     =    106.544415     0.000000     0.000012   106.544427
	   66 B(19,18,21)     =    109.325518    -0.000000    -0.000022   109.325496
	   67 B(20,18,21)     =    108.812569    -0.000000    -0.000025   108.812544
	   68 B(21,24,25)     =    109.133191    -0.000000    -0.000015   109.133176
	   69 B(21,24,26)     =    108.654234    -0.000000    -0.000013   108.654222
	   70 B(22,21,23)     =    106.544371    -0.000000     0.000021   106.544392
	   71 B(22,21,24)     =    109.208643     0.000000     0.000010   109.208653
	   72 B(23,21,24)     =    110.079658     0.000000     0.000013   110.079672
	   73 B(25,24,26)     =    106.461144     0.000000    -0.000001   106.461143
	   74 D(1,9,15,16)    =    -58.739344     0.000000     0.000100   -58.739244
	   75 D(1,9,15,17)    =   -174.784490    -0.000000     0.000099  -174.784391
	   76 D(1,9,15,18)    =     63.548648     0.000000     0.000121    63.548769
	   77 D(2,1,9,10)     =    174.085705    -0.000000    -0.000084   174.085621
	   78 D(2,1,9,11)     =     57.827734    -0.000000    -0.000081    57.827653
	   79 D(2,1,9,15)     =    -64.249481    -0.000000    -0.000093   -64.249573
	   80 D(3,1,9,10)     =     53.937548    -0.000000    -0.000079    53.937469
	   81 D(3,1,9,11)     =    -62.320423     0.000000    -0.000075   -62.320498
	   82 D(3,1,9,15)     =    175.602363    -0.000000    -0.000088   175.602275
	   83 D(4,1,9,10)     =    -65.876481    -0.000000    -0.000082   -65.876564
	   84 D(4,1,9,11)     =    177.865548     0.000000    -0.000079   177.865469
	   85 D(4,1,9,15)     =     55.788334    -0.000000    -0.000091    55.788242
	   86 D(5,12,24,21)   =     63.549045    -0.000000    -0.000265    63.548780
	   87 D(5,12,24,25)   =    -58.739002    -0.000000    -0.000255   -58.739257
	   88 D(5,12,24,26)   =   -174.784111    -0.000000    -0.000270  -174.784381
	   89 D(6,5,12,13)    =    177.865369    -0.000000     0.000156   177.865525
	   90 D(6,5,12,14)    =    -65.876702    -0.000000     0.000165   -65.876537
	   91 D(6,5,12,24)    =     55.788078     0.000000     0.000195    55.788273
	   92 D(7,5,12,13)    =     57.827521    -0.000000     0.000163    57.827684
	   93 D(7,5,12,14)    =    174.085451     0.000000     0.000171   174.085622
	   94 D(7,5,12,24)    =    -64.249769     0.000000     0.000202   -64.249567
	   95 D(8,5,12,13)    =    -62.320614    -0.000000     0.000160   -62.320454
	   96 D(8,5,12,14)    =     53.937315     0.000000     0.000168    53.937484
	   97 D(8,5,12,24)    =    175.602095     0.000000     0.000199   175.602294
	   98 D(9,15,18,19)   =     54.282762    -0.000000     0.000028    54.282790
	   99 D(9,15,18,20)   =    -62.359665    -0.000000     0.000005   -62.359659
	  100 D(9,15,18,21)   =    175.979532    -0.000000     0.000019   175.979552
	  101 D(10,9,15,16)   =     63.010040     0.000000     0.000087    63.010126
	  102 D(10,9,15,17)   =    -53.035107    -0.000000     0.000086   -53.035021
	  103 D(10,9,15,18)   =   -174.701968     0.000000     0.000108  -174.701861
	  104 D(11,9,15,16)   =    178.880885    -0.000000     0.000083   178.880968
	  105 D(11,9,15,17)   =     62.835739    -0.000000     0.000082    62.835821
	  106 D(11,9,15,18)   =    -58.831123     0.000000     0.000104   -58.831019
	  107 D(12,24,21,18)  =    175.979905    -0.000000    -0.000240   175.979666
	  108 D(12,24,21,22)  =     54.283079     0.000000    -0.000190    54.282888
	  109 D(12,24,21,23)  =    -62.359240    -0.000000    -0.000229   -62.359469
	  110 D(13,12,24,21)  =    -58.830798     0.000000    -0.000232   -58.831030
	  111 D(13,12,24,25)  =    178.881155     0.000000    -0.000221   178.880934
	  112 D(13,12,24,26)  =     62.836046    -0.000000    -0.000236    62.835810
	  113 D(14,12,24,21)  =   -174.701617     0.000000    -0.000237  -174.701854
	  114 D(14,12,24,25)  =     63.010335     0.000000    -0.000226    63.010109
	  115 D(14,12,24,26)  =    -53.034773    -0.000000    -0.000241   -53.035015
	  116 D(15,18,21,22)  =    -59.153202    -0.000000    -0.000040   -59.153242
	  117 D(15,18,21,23)  =     56.839820     0.000000    -0.000008    56.839812
	  118 D(15,18,21,24)  =    179.216155     0.000000    -0.000005   179.216150
	  119 D(16,15,18,19)  =    176.610940     0.000000     0.000061   176.611001
	  120 D(16,15,18,20)  =     59.968513    -0.000000     0.000039    59.968551
	  121 D(16,15,18,21)  =    -61.692290    -0.000000     0.000053   -61.692237
	  122 D(17,15,18,19)  =    -67.687458    -0.000000     0.000044   -67.687413
	  123 D(17,15,18,20)  =    175.670115    -0.000000     0.000022   175.670137
	  124 D(17,15,18,21)  =     54.009312    -0.000000     0.000036    54.009348
	  125 D(18,21,24,25)  =    -61.691883    -0.000000    -0.000235   -61.692118
	  126 D(18,21,24,26)  =     54.009732    -0.000000    -0.000251    54.009481
	  127 D(19,18,21,22)  =     62.477348    -0.000000    -0.000031    62.477317
	  128 D(19,18,21,23)  =    178.470370     0.000000     0.000001   178.470371
	  129 D(19,18,21,24)  =    -59.153294     0.000000     0.000004   -59.153291
	  130 D(20,18,21,22)  =    178.470532    -0.000000    -0.000042   178.470490
	  131 D(20,18,21,23)  =    -65.536446     0.000000    -0.000010   -65.536456
	  132 D(20,18,21,24)  =     56.839890     0.000000    -0.000008    56.839882
	  133 D(22,21,24,25)  =    176.611291     0.000000    -0.000186   176.611105
	  134 D(22,21,24,26)  =    -67.687094     0.000000    -0.000202   -67.687297
	  135 D(23,21,24,25)  =     59.968972    -0.000000    -0.000224    59.968748
	  136 D(23,21,24,26)  =    175.670587    -0.000000    -0.000240   175.670346
	 ---------------------------------------------------------------------------

  ==> Convergence Check <==

  Measures of convergence in internal coordinates in au.
  Criteria marked as inactive (o), active & met (*), and active & unmet ( ).
  ---------------------------------------------------------------------------------------------
   Step     Total Energy     Delta E     MAX Force     RMS Force      MAX Disp      RMS Disp   
  ---------------------------------------------------------------------------------------------
    Convergence Criteria             o    2.00e-06 *    1.00e-06 *    6.00e-06 *    4.00e-06 *
  ---------------------------------------------------------------------------------------------
     23    -314.98368505   -2.38e-09 o    5.73e-07 *    1.39e-07 *    4.71e-06 *    1.80e-06 *  ~
  ---------------------------------------------------------------------------------------------


  **** Optimization is complete! (in 23 steps) ****

  ==> Optimization Summary <==

  Measures of convergence in internal coordinates in au.
  --------------------------------------------------------------------------------------------------------------- ~
   Step         Total Energy             Delta E       MAX Force       RMS Force        MAX Disp        RMS Disp  ~
  --------------------------------------------------------------------------------------------------------------- ~
      1    -314.983685042393   -314.983685042393      0.00000190      0.00000050      0.00017026      0.00006682  ~
      2    -314.983685043898     -0.000000001505      0.00000279      0.00000073      0.00010961      0.00004553  ~
      3    -314.983685044130     -0.000000000233      0.00000230      0.00000060      0.00008499      0.00002752  ~
      4    -314.983685044012      0.000000000118      0.00000242      0.00000069      0.00003914      0.00001720  ~
      5    -314.983685040649      0.000000003364      0.00000312      0.00000084      0.00008451      0.00002522  ~
      6    -314.983685043811     -0.000000003162      0.00000052      0.00000011      0.00002910      0.00000995  ~
      7    -314.983685044235     -0.000000000424      0.00000209      0.00000054      0.00004289      0.00001706  ~
      8    -314.983685044444     -0.000000000210      0.00000112      0.00000022      0.00005093      0.00001709  ~
      9    -314.983685043028      0.000000001416      0.00000124      0.00000034      0.00003024      0.00001218  ~
     10    -314.983685046508     -0.000000003480      0.00000110      0.00000029      0.00002034      0.00000875  ~
     11    -314.983685041058      0.000000005450      0.00000061      0.00000016      0.00001160      0.00000519  ~
     12    -314.983685044547     -0.000000003489      0.00000160      0.00000039      0.00004407      0.00001316  ~
     13    -314.983685041693      0.000000002853      0.00000152      0.00000044      0.00003703      0.00001248  ~
     14    -314.983685044501     -0.000000002807      0.00000078      0.00000013      0.00001868      0.00000619  ~
     15    -314.983685041221      0.000000003280      0.00000106      0.00000020      0.00001768      0.00000634  ~
     16    -314.983685044365     -0.000000003144      0.00000100      0.00000026      0.00001567      0.00000452  ~
     17    -314.983685045953     -0.000000001588      0.00000180      0.00000043      0.00001291      0.00000428  ~
     18    -314.983685049361     -0.000000003408      0.00000124      0.00000025      0.00001830      0.00000686  ~
     19    -314.983685042362      0.000000006999      0.00000179      0.00000043      0.00001679      0.00000645  ~
     20    -314.983685046729     -0.000000004367      0.00000211      0.00000054      0.00003167      0.00000933  ~
     21    -314.983685045941      0.000000000788      0.00000212      0.00000056      0.00002225      0.00000734  ~
     22    -314.983685045613      0.000000000328      0.00000111      0.00000031      0.00001500      0.00000427  ~
     23    -314.983685047996     -0.000000002384      0.00000057      0.00000014      0.00000471      0.00000180  ~
  --------------------------------------------------------------------------------------------------------------- ~

	Writing optimization data to binary file.
	Final energy is   -314.9836850479964
	Final (previous) structure:
	Cartesian Geometry (in Angstrom)
	    C    -0.5830694200  -3.6082247318  -0.8314304900
	    H    -1.4930677187  -3.0123331165  -0.8886938582
	    H    -0.8783063136  -4.6550890186  -0.7649746537
	    H    -0.0359895483  -3.4733365633  -1.7661159099
	    C     0.5829799940   3.6081719077  -0.8317209802
	    H     0.0357926767   3.4732268382  -1.7663354726
	    H     1.4929711450   3.0122757156  -0.8890521441
	    H     0.8782260011   4.6550399681  -0.7653636587
	    C     0.2797047072  -3.2023164063   0.3587559512
	    H     1.1243731574  -3.8899956117   0.4403222754
	    H    -0.2960610101  -3.3076230566   1.2824347630
	    C    -0.2796580393   3.2023390777   0.3585897841
	    H     0.2962149502   3.3076989030   1.2821957729
	    H    -1.1243134171   3.8900278069   0.4402120792
	    C     0.8092799075  -1.7734659023   0.2610558555
	    H     1.4029738627  -1.6710705583  -0.6533207246
	    H     1.4904886442  -1.5843915922   1.0957102154
	    C    -0.2811136637  -0.7082466700   0.2707031273
	    H    -0.9129902190  -0.8473696491   1.1544541845
	    H    -0.9317434270  -0.8292973297  -0.5993335347
	    C     0.2811355777   0.7082607260   0.2706321800
	    H     0.9131064626   0.8474329445   1.1543084053
	    H     0.9316743732   0.8292585219  -0.5994801820
	    C    -0.8092531194   1.7734854590   0.2610378058
	    H    -1.4030494129   1.6710362783  -0.6532667376
	    H    -1.4903709812   1.5844683224   1.0957794878
	Saving final (previous) structure.
			--------------------------
			 OPTKING Finished Execution 
			--------------------------

    Final optimized geometry and variables:
    Molecular point group: c1
    Full point group: C1

    Geometry (in Angstrom), charge = 0, multiplicity = 1:

    C           -0.583069420008    -3.608224731823    -0.831430489960
    H           -1.493067718652    -3.012333116453    -0.888693858199
    H           -0.878306313585    -4.655089018561    -0.764974653710
    H           -0.035989548306    -3.473336563313    -1.766115909887
    C            0.582979994038     3.608171907685    -0.831720980194
    H            0.035792676748     3.473226838173    -1.766335472560
    H            1.492971145028     3.012275715647    -0.889052144068
    H            0.878226001106     4.655039968097    -0.765363658716
    C            0.279704707238    -3.202316406289     0.358755951166
    H            1.124373157368    -3.889995611694     0.440322275449
    H           -0.296061010140    -3.307623056634     1.282434762992
    C           -0.279658039314     3.202339077679     0.358589784078
    H            0.296214950227     3.307698902958     1.282195772893
    H           -1.124313417146     3.890027806875     0.440212079245
    C            0.809279907476    -1.773465902316     0.261055855487
    H            1.402973862656    -1.671070558261    -0.653320724570
    H            1.490488644175    -1.584391592190     1.095710215438
    C           -0.281113663686    -0.708246670014     0.270703127291
    H           -0.912990218979    -0.847369649127     1.154454184480
    H           -0.931743427048    -0.829297329727    -0.599333534682
    C            0.281135577726     0.708260726030     0.270632179995
    H            0.913106462626     0.847432944528     1.154308405268
    H            0.931674373164     0.829258521937    -0.599480181951
    C           -0.809253119415     1.773485458999     0.261037805794
    H           -1.403049412921     1.671036278254    -0.653266737611
    H           -1.490370981173     1.584468322427     1.095779487811

	Cleaning optimization helper files.

*** Psi4 exiting successfully. Buy a developer a beer!
