    -----------------------------------------------------------------------
          Psi4: An Open-Source Ab Initio Electronic Structure Package
                              Psi4 1.0.0 Driver

                          Git: Rev {master} 6a9a71b dirty

    J. M. Turney, A. C. Simmonett, R. M. Parrish, E. G. Hohenstein,
    F. A. Evangelista, J. T. Fermann, B. J. Mintz, L. A. Burns, J. J. Wilke,
    M. L. Abrams, N. J. Russ, M. L. Leininger, C. L. Janssen, E. T. Seidl,
    W. D. Allen, H. F. Schaefer, R. A. King, E. F. Valeev, C. D. Sherrill,
    and T. D. Crawford, WIREs Comput. Mol. Sci. 2, 556-565 (2012)
    (doi: 10.1002/wcms.93)

                         Additional Contributions by
    A. E. DePrince, U. Bozkaya, A. Yu. Sokolov, D. G. A. Smith, R. Di Remigio,
    R. M. Richard, J. F. Gonthier, H. R. McAlexander, M. Saitow, and
    B. P. Pritchard
    -----------------------------------------------------------------------


    Psi4 started on: Tue Sep 20 16:43:05 2016

    Process ID:  44818
    PSI4DATADIR: /usr/local/hpc5/psi4conda/share/psi4
    Memory level set to 256.000 MB

  ==> Input File <==

--------------------------------------------------------------------------
memory 30 Gb

molecule molecule_12_psi {
0 1
symmetry c1
    C            3.432353266954     1.161129483403    -0.311904000688
    H            4.363555879972     1.384037120457     0.203921507379
    H            2.885385681494     2.094031288607    -0.436167191652
    H            3.679173410507     0.786813422039    -1.303829078890
    C           -3.130209447104     1.495585006170     0.028379897993
    H           -2.689607987813     2.120514654053    -0.746686678345
    H           -3.430920265280     2.141944635487     0.849729269185
    H           -4.026449834191     1.037201677122    -0.385825246402
    C            2.597842671375     0.148609989417     0.449699596015
    H            2.374915541152     0.529942281455     1.447734777503
    H            3.168621208096    -0.770793848490     0.589527256245
    C           -2.144893195059     0.434173636781     0.481224554042
    H           -1.273682777854     0.916337637806     0.924894928633
    H           -2.593175341701    -0.179164164817     1.265723433553
    C            1.294932504894    -0.179722484002    -0.253953067188
    H            1.509752257188    -0.583839836231    -1.247226649348
    H            0.737531470579     0.745864550113    -0.410849163248
    C            0.444924310895    -1.171698891006     0.517473622364
    H            0.170729678402    -0.735331498663     1.479397624631
    H            1.048477938513    -2.052560552762     0.744912102244
    C           -0.807543249551    -1.611045166106    -0.226324120974
    H           -0.511693172240    -2.185155891693    -1.106597016998
    H           -1.380697322898    -2.288233958370     0.410138912111
    C           -1.707298961432    -0.464006150041    -0.660782813227
    H           -1.200262604871     0.139355779370    -1.415864015870
    H           -2.594801943763    -0.874689058175    -1.146480039974
}

set globals {
  reference rhf
  g_convergence gau_verytight
  basis aug-cc-pvtz
  freeze_core true
  scf_type df
  mp_type df
}
optimize('mp2')
--------------------------------------------------------------------------
/usr/local/hpc5/psi4conda/lib/python2.7/site-packages/v2rdm_casscf/v2rdm_casscf.so loaded.

  Memory set to  30.000 GiB by Python script.
gradient() will perform analytic gradient computation.

*** tstart() called on wr38
*** at Tue Sep 20 16:43:06 2016


         ---------------------------------------------------------
                                   SCF
            by Justin Turney, Rob Parrish, and Andy Simmonett
                              RHF Reference
                       12 Threads,  30000 MiB Core
         ---------------------------------------------------------

  ==> Geometry <==

    Molecular point group: c1
    Full point group: C1

    Geometry (in Angstrom), charge = 0, multiplicity = 1:

       Center              X                  Y                   Z               Mass       
    ------------   -----------------  -----------------  -----------------  -----------------
           C          3.432353266954     1.161129483403    -0.311904000688    12.000000000000
           H          4.363555879972     1.384037120457     0.203921507379     1.007825032070
           H          2.885385681494     2.094031288607    -0.436167191652     1.007825032070
           H          3.679173410507     0.786813422039    -1.303829078890     1.007825032070
           C         -3.130209447104     1.495585006170     0.028379897993    12.000000000000
           H         -2.689607987813     2.120514654053    -0.746686678345     1.007825032070
           H         -3.430920265280     2.141944635487     0.849729269185     1.007825032070
           H         -4.026449834191     1.037201677122    -0.385825246402     1.007825032070
           C          2.597842671375     0.148609989417     0.449699596015    12.000000000000
           H          2.374915541152     0.529942281455     1.447734777503     1.007825032070
           H          3.168621208096    -0.770793848490     0.589527256245     1.007825032070
           C         -2.144893195059     0.434173636781     0.481224554042    12.000000000000
           H         -1.273682777854     0.916337637806     0.924894928633     1.007825032070
           H         -2.593175341701    -0.179164164817     1.265723433553     1.007825032070
           C          1.294932504894    -0.179722484002    -0.253953067188    12.000000000000
           H          1.509752257188    -0.583839836231    -1.247226649348     1.007825032070
           H          0.737531470579     0.745864550113    -0.410849163248     1.007825032070
           C          0.444924310895    -1.171698891006     0.517473622364    12.000000000000
           H          0.170729678402    -0.735331498663     1.479397624631     1.007825032070
           H          1.048477938513    -2.052560552762     0.744912102244     1.007825032070
           C         -0.807543249551    -1.611045166106    -0.226324120974    12.000000000000
           H         -0.511693172240    -2.185155891693    -1.106597016998     1.007825032070
           H         -1.380697322898    -2.288233958370     0.410138912111     1.007825032070
           C         -1.707298961432    -0.464006150041    -0.660782813227    12.000000000000
           H         -1.200262604871     0.139355779370    -1.415864015870     1.007825032070
           H         -2.594801943763    -0.874689058175    -1.146480039974     1.007825032070

  Running in c1 symmetry.

  Rotational constants: A =      0.10187  B =      0.02765  C =      0.02383 [cm^-1]
  Rotational constants: A =   3054.03007  B =    829.05514  C =    714.34005 [MHz]
  Nuclear repulsion =  394.895329247104883

  Charge       = 0
  Multiplicity = 1
  Electrons    = 66
  Nalpha       = 33
  Nbeta        = 33

  ==> Algorithm <==

  SCF Algorithm Type is DF.
  DIIS enabled.
  MOM disabled.
  Fractional occupation disabled.
  Guess Type is SAD.
  Energy threshold   = 1.00e-10
  Density threshold  = 1.00e-10
  Integral threshold = 0.00e+00

  ==> Primary Basis <==

  Basis Set: AUG-CC-PVTZ
    Number of shells: 274
    Number of basis function: 782
    Number of Cartesian functions: 890
    Spherical Harmonics?: true
    Max angular momentum: 3

  ==> Pre-Iterations <==

   -------------------------------------------------------
    Irrep   Nso     Nmo     Nalpha   Nbeta   Ndocc  Nsocc
   -------------------------------------------------------
     A        782     782       0       0       0       0
   -------------------------------------------------------
    Total     782     782      33      33      33       0
   -------------------------------------------------------

  ==> Integral Setup <==

  ==> DFJK: Density-Fitted J/K Matrices <==

    J tasked:                  Yes
    K tasked:                  Yes
    wK tasked:                  No
    OpenMP threads:             12
    Integrals threads:          12
    Memory (MB):             21457
    Algorithm:                Core
    Integral Cache:           NONE
    Schwarz Cutoff:          1E-12
    Fitting Condition:       1E-12

   => Auxiliary Basis Set <=

  Basis Set: 
    Number of shells: 492
    Number of basis function: 1660
    Number of Cartesian functions: 2038
    Spherical Harmonics?: true
    Max angular momentum: 4

  Minimum eigenvalue in the overlap matrix is 2.2487357955E-06.
  Using Symmetric Orthogonalization.
  SCF Guess: Superposition of Atomic Densities via on-the-fly atomic UHF.

  ==> Iterations <==

                           Total Energy        Delta E     RMS |[F,P]|

   @DF-RHF iter   0:  -317.05553302436283   -3.17056e+02   7.07836e-03 
   @DF-RHF iter   1:  -313.28859759372119    3.76694e+00   7.39659e-04 
   @DF-RHF iter   2:  -313.51124607567306   -2.22648e-01   2.62267e-04 DIIS
   @DF-RHF iter   3:  -313.53804562603875   -2.67996e-02   1.00826e-04 DIIS
   @DF-RHF iter   4:  -313.54300107697850   -4.95545e-03   1.80313e-05 DIIS
   @DF-RHF iter   5:  -313.54320660086819   -2.05524e-04   5.16950e-06 DIIS
   @DF-RHF iter   6:  -313.54322150876476   -1.49079e-05   1.44674e-06 DIIS
   @DF-RHF iter   7:  -313.54322288111166   -1.37235e-06   3.04533e-07 DIIS
   @DF-RHF iter   8:  -313.54322294637132   -6.52597e-08   8.78139e-08 DIIS
   @DF-RHF iter   9:  -313.54322295107659   -4.70527e-09   2.43109e-08 DIIS
   @DF-RHF iter  10:  -313.54322295142663   -3.50042e-10   6.72115e-09 DIIS
   @DF-RHF iter  11:  -313.54322295145721   -3.05818e-11   1.50319e-09 DIIS
   @DF-RHF iter  12:  -313.54322295145948   -2.27374e-12   3.86112e-10 DIIS
   @DF-RHF iter  13:  -313.54322295145903    4.54747e-13   1.10008e-10 DIIS
   @DF-RHF iter  14:  -313.54322295145892    1.13687e-13   2.90075e-11 DIIS

  ==> Post-Iterations <==

    Orbital Energies (a.u.)
    -----------------------

    Doubly Occupied:                                                      

       1A    -11.210750     2A    -11.210335     3A    -11.208815  
       4A    -11.208063     5A    -11.207408     6A    -11.207223  
       7A    -11.205830     8A    -11.205802     9A     -1.099040  
      10A     -1.062584    11A     -1.013284    12A     -0.949172  
      13A     -0.883348    14A     -0.825219    15A     -0.796517  
      16A     -0.755722    17A     -0.651699    18A     -0.638703  
      19A     -0.601808    20A     -0.595353    21A     -0.578642  
      22A     -0.562506    23A     -0.544215    24A     -0.540098  
      25A     -0.507797    26A     -0.500196    27A     -0.492410  
      28A     -0.475847    29A     -0.466764    30A     -0.462343  
      31A     -0.443332    32A     -0.442982    33A     -0.436291  

    Virtual:                                                              

      34A      0.028959    35A      0.032979    36A      0.033550  
      37A      0.034291    38A      0.046604    39A      0.048268  
      40A      0.050145    41A      0.053070    42A      0.056891  
      43A      0.066430    44A      0.068269    45A      0.069936  
      46A      0.072779    47A      0.077820    48A      0.086690  
      49A      0.090190    50A      0.093582    51A      0.099625  
      52A      0.112273    53A      0.115224    54A      0.119341  
      55A      0.121843    56A      0.127597    57A      0.130140  
      58A      0.135955    59A      0.140524    60A      0.142109  
      61A      0.145266    62A      0.147840    63A      0.150537  
      64A      0.154632    65A      0.155923    66A      0.162498  
      67A      0.167664    68A      0.168251    69A      0.174225  
      70A      0.174866    71A      0.180714    72A      0.184041  
      73A      0.190428    74A      0.192034    75A      0.196915  
      76A      0.204160    77A      0.216554    78A      0.222156  
      79A      0.232036    80A      0.236533    81A      0.243070  
      82A      0.248233    83A      0.251787    84A      0.255511  
      85A      0.262168    86A      0.264604    87A      0.272075  
      88A      0.278132    89A      0.283461    90A      0.292014  
      91A      0.296363    92A      0.302390    93A      0.305959  
      94A      0.310727    95A      0.316879    96A      0.320107  
      97A      0.323402    98A      0.323602    99A      0.325863  
     100A      0.335403   101A      0.338845   102A      0.343516  
     103A      0.346509   104A      0.352370   105A      0.356092  
     106A      0.360735   107A      0.364897   108A      0.370595  
     109A      0.372920   110A      0.374979   111A      0.378396  
     112A      0.380959   113A      0.385764   114A      0.388346  
     115A      0.390594   116A      0.392857   117A      0.396739  
     118A      0.398608   119A      0.401532   120A      0.412334  
     121A      0.414829   122A      0.420780   123A      0.422355  
     124A      0.427090   125A      0.430136   126A      0.434408  
     127A      0.437487   128A      0.444731   129A      0.448212  
     130A      0.453505   131A      0.455267   132A      0.459483  
     133A      0.460198   134A      0.464742   135A      0.467191  
     136A      0.470741   137A      0.477605   138A      0.481063  
     139A      0.484132   140A      0.484357   141A      0.491596  
     142A      0.492640   143A      0.496383   144A      0.501142  
     145A      0.502795   146A      0.509475   147A      0.512700  
     148A      0.520507   149A      0.521186   150A      0.528225  
     151A      0.531272   152A      0.533506   153A      0.534131  
     154A      0.537008   155A      0.541455   156A      0.543663  
     157A      0.551747   158A      0.558221   159A      0.561783  
     160A      0.567198   161A      0.570865   162A      0.573392  
     163A      0.579200   164A      0.582574   165A      0.586681  
     166A      0.595011   167A      0.602705   168A      0.604459  
     169A      0.608817   170A      0.617167   171A      0.618743  
     172A      0.622786   173A      0.627110   174A      0.631592  
     175A      0.636465   176A      0.640201   177A      0.648171  
     178A      0.652322   179A      0.661247   180A      0.666134  
     181A      0.670732   182A      0.675443   183A      0.677193  
     184A      0.685183   185A      0.690812   186A      0.697565  
     187A      0.704585   188A      0.708992   189A      0.716614  
     190A      0.723055   191A      0.724156   192A      0.737558  
     193A      0.740324   194A      0.743472   195A      0.749626  
     196A      0.755717   197A      0.767174   198A      0.770630  
     199A      0.774200   200A      0.783657   201A      0.795497  
     202A      0.802278   203A      0.818862   204A      0.826895  
     205A      0.832572   206A      0.838046   207A      0.839779  
     208A      0.847645   209A      0.855268   210A      0.859074  
     211A      0.864856   212A      0.865605   213A      0.874591  
     214A      0.878507   215A      0.885948   216A      0.892616  
     217A      0.900894   218A      0.906535   219A      0.908004  
     220A      0.912744   221A      0.917642   222A      0.923517  
     223A      0.925904   224A      0.926771   225A      0.932613  
     226A      0.938587   227A      0.943226   228A      0.948358  
     229A      0.949958   230A      0.962138   231A      0.964899  
     232A      0.966208   233A      0.970254   234A      0.973402  
     235A      0.980240   236A      0.984111   237A      0.993292  
     238A      0.997134   239A      1.002526   240A      1.005746  
     241A      1.016179   242A      1.018818   243A      1.019417  
     244A      1.026870   245A      1.033473   246A      1.035284  
     247A      1.043170   248A      1.046778   249A      1.051349  
     250A      1.060541   251A      1.071316   252A      1.073613  
     253A      1.077399   254A      1.083040   255A      1.086448  
     256A      1.093180   257A      1.096337   258A      1.101976  
     259A      1.108017   260A      1.113868   261A      1.118276  
     262A      1.128095   263A      1.130908   264A      1.141636  
     265A      1.144369   266A      1.149955   267A      1.153508  
     268A      1.157152   269A      1.158827   270A      1.163539  
     271A      1.172783   272A      1.177899   273A      1.181138  
     274A      1.183036   275A      1.190691   276A      1.196257  
     277A      1.203775   278A      1.205587   279A      1.212972  
     280A      1.213803   281A      1.218083   282A      1.225878  
     283A      1.226505   284A      1.236162   285A      1.240982  
     286A      1.248496   287A      1.257969   288A      1.262762  
     289A      1.264700   290A      1.269750   291A      1.273446  
     292A      1.280383   293A      1.288551   294A      1.295044  
     295A      1.298563   296A      1.306128   297A      1.310189  
     298A      1.319025   299A      1.324753   300A      1.326709  
     301A      1.333789   302A      1.337999   303A      1.345835  
     304A      1.350765   305A      1.361417   306A      1.367244  
     307A      1.373567   308A      1.376606   309A      1.381749  
     310A      1.393241   311A      1.398508   312A      1.410198  
     313A      1.416967   314A      1.428220   315A      1.435888  
     316A      1.443480   317A      1.450716   318A      1.451371  
     319A      1.459113   320A      1.464866   321A      1.469539  
     322A      1.475032   323A      1.478582   324A      1.501111  
     325A      1.512031   326A      1.515968   327A      1.523918  
     328A      1.527995   329A      1.535752   330A      1.546088  
     331A      1.552380   332A      1.559930   333A      1.564545  
     334A      1.576496   335A      1.585555   336A      1.592529  
     337A      1.595102   338A      1.605856   339A      1.610103  
     340A      1.618836   341A      1.628148   342A      1.634148  
     343A      1.643203   344A      1.644434   345A      1.646918  
     346A      1.654886   347A      1.659348   348A      1.671755  
     349A      1.679467   350A      1.682378   351A      1.690225  
     352A      1.692947   353A      1.696139   354A      1.699173  
     355A      1.707319   356A      1.713219   357A      1.718206  
     358A      1.722885   359A      1.729910   360A      1.742227  
     361A      1.744581   362A      1.755818   363A      1.758805  
     364A      1.760511   365A      1.777893   366A      1.782486  
     367A      1.786765   368A      1.788378   369A      1.792788  
     370A      1.801620   371A      1.806834   372A      1.812677  
     373A      1.816004   374A      1.822684   375A      1.830188  
     376A      1.832488   377A      1.838708   378A      1.843092  
     379A      1.849348   380A      1.851437   381A      1.858947  
     382A      1.865937   383A      1.875033   384A      1.883848  
     385A      1.888976   386A      1.898843   387A      1.902884  
     388A      1.916176   389A      1.919389   390A      1.927401  
     391A      1.930170   392A      1.940807   393A      1.944978  
     394A      1.950911   395A      1.956956   396A      1.968620  
     397A      1.980699   398A      1.983345   399A      1.989296  
     400A      1.994744   401A      2.002275   402A      2.010565  
     403A      2.015675   404A      2.022845   405A      2.027846  
     406A      2.044670   407A      2.046024   408A      2.048832  
     409A      2.053699   410A      2.066760   411A      2.073009  
     412A      2.076806   413A      2.086141   414A      2.102298  
     415A      2.106721   416A      2.110314   417A      2.117782  
     418A      2.119335   419A      2.125901   420A      2.142943  
     421A      2.149224   422A      2.152009   423A      2.160248  
     424A      2.173476   425A      2.187788   426A      2.194986  
     427A      2.200947   428A      2.211001   429A      2.214586  
     430A      2.232104   431A      2.236579   432A      2.249243  
     433A      2.252483   434A      2.266367   435A      2.274275  
     436A      2.279460   437A      2.292824   438A      2.293517  
     439A      2.300694   440A      2.311607   441A      2.324471  
     442A      2.329784   443A      2.342777   444A      2.351719  
     445A      2.356989   446A      2.365862   447A      2.372577  
     448A      2.381177   449A      2.392910   450A      2.396690  
     451A      2.403501   452A      2.413823   453A      2.418297  
     454A      2.427720   455A      2.438201   456A      2.447084  
     457A      2.457369   458A      2.474506   459A      2.481575  
     460A      2.493801   461A      2.504780   462A      2.511083  
     463A      2.524583   464A      2.539648   465A      2.551710  
     466A      2.563447   467A      2.578074   468A      2.582735  
     469A      2.592857   470A      2.614039   471A      2.624549  
     472A      2.626569   473A      2.652107   474A      2.656624  
     475A      2.697245   476A      2.716029   477A      2.726847  
     478A      2.741947   479A      2.763665   480A      2.771069  
     481A      2.786515   482A      2.796168   483A      2.859821  
     484A      2.917570   485A      2.934048   486A      2.959252  
     487A      3.003554   488A      3.021207   489A      3.057685  
     490A      3.101613   491A      3.158359   492A      3.231141  
     493A      3.265174   494A      3.297696   495A      3.329895  
     496A      3.414808   497A      3.431704   498A      3.451579  
     499A      3.465321   500A      3.477727   501A      3.492215  
     502A      3.502860   503A      3.524808   504A      3.527109  
     505A      3.531391   506A      3.543952   507A      3.564927  
     508A      3.569566   509A      3.576551   510A      3.596123  
     511A      3.605883   512A      3.608623   513A      3.625382  
     514A      3.627685   515A      3.644241   516A      3.655073  
     517A      3.662258   518A      3.667238   519A      3.671638  
     520A      3.698792   521A      3.702905   522A      3.703928  
     523A      3.717818   524A      3.726372   525A      3.734624  
     526A      3.738288   527A      3.748257   528A      3.771163  
     529A      3.775783   530A      3.782172   531A      3.789505  
     532A      3.801732   533A      3.804159   534A      3.810877  
     535A      3.817640   536A      3.829244   537A      3.833880  
     538A      3.847117   539A      3.854801   540A      3.858974  
     541A      3.878333   542A      3.883297   543A      3.892125  
     544A      3.900756   545A      3.902496   546A      3.916479  
     547A      3.925069   548A      3.931541   549A      3.946255  
     550A      3.956041   551A      3.959759   552A      3.972510  
     553A      3.977466   554A      3.981428   555A      3.990070  
     556A      3.996995   557A      4.000455   558A      4.007311  
     559A      4.010079   560A      4.016789   561A      4.019104  
     562A      4.035904   563A      4.042009   564A      4.050977  
     565A      4.060122   566A      4.063302   567A      4.065363  
     568A      4.074264   569A      4.080868   570A      4.095653  
     571A      4.099297   572A      4.100773   573A      4.115713  
     574A      4.137402   575A      4.142921   576A      4.148997  
     577A      4.152606   578A      4.170648   579A      4.177216  
     580A      4.181037   581A      4.199558   582A      4.205069  
     583A      4.219687   584A      4.226838   585A      4.231497  
     586A      4.240446   587A      4.253037   588A      4.263880  
     589A      4.271973   590A      4.274341   591A      4.285126  
     592A      4.291276   593A      4.296795   594A      4.314980  
     595A      4.327453   596A      4.337860   597A      4.344869  
     598A      4.358280   599A      4.370645   600A      4.373460  
     601A      4.386705   602A      4.401124   603A      4.404879  
     604A      4.416149   605A      4.424698   606A      4.442303  
     607A      4.454400   608A      4.469143   609A      4.480653  
     610A      4.493529   611A      4.495652   612A      4.518983  
     613A      4.530343   614A      4.542824   615A      4.556368  
     616A      4.581443   617A      4.589971   618A      4.594359  
     619A      4.618476   620A      4.634121   621A      4.644116  
     622A      4.662597   623A      4.670418   624A      4.676280  
     625A      4.685483   626A      4.697402   627A      4.708981  
     628A      4.722629   629A      4.732586   630A      4.736829  
     631A      4.750226   632A      4.770588   633A      4.773998  
     634A      4.784422   635A      4.786004   636A      4.793079  
     637A      4.808169   638A      4.824879   639A      4.826915  
     640A      4.835706   641A      4.854735   642A      4.858723  
     643A      4.877193   644A      4.880985   645A      4.885814  
     646A      4.890001   647A      4.903734   648A      4.908759  
     649A      4.921883   650A      4.922247   651A      4.928714  
     652A      4.950643   653A      4.983651   654A      4.995651  
     655A      5.002286   656A      5.014995   657A      5.027266  
     658A      5.055139   659A      5.061244   660A      5.076820  
     661A      5.086642   662A      5.090569   663A      5.104790  
     664A      5.124799   665A      5.133001   666A      5.149588  
     667A      5.175706   668A      5.184195   669A      5.188366  
     670A      5.203008   671A      5.224581   672A      5.232030  
     673A      5.237489   674A      5.248564   675A      5.258440  
     676A      5.269957   677A      5.276219   678A      5.284403  
     679A      5.297930   680A      5.303023   681A      5.313305  
     682A      5.323906   683A      5.334298   684A      5.360173  
     685A      5.362681   686A      5.372478   687A      5.382854  
     688A      5.400879   689A      5.406939   690A      5.422420  
     691A      5.429064   692A      5.437791   693A      5.443899  
     694A      5.448434   695A      5.461344   696A      5.466495  
     697A      5.475668   698A      5.490832   699A      5.495166  
     700A      5.513513   701A      5.523197   702A      5.536322  
     703A      5.543057   704A      5.563736   705A      5.565582  
     706A      5.597952   707A      5.601635   708A      5.617060  
     709A      5.630583   710A      5.656535   711A      5.665496  
     712A      5.669074   713A      5.675433   714A      5.693610  
     715A      5.704080   716A      5.722263   717A      5.731586  
     718A      5.749974   719A      5.758778   720A      5.764678  
     721A      5.778497   722A      5.798878   723A      5.809707  
     724A      5.831449   725A      5.860610   726A      5.863765  
     727A      5.873751   728A      5.886099   729A      5.915105  
     730A      5.931550   731A      5.938823   732A      5.957462  
     733A      5.973577   734A      6.013851   735A      6.029395  
     736A      6.040332   737A      6.053571   738A      6.080514  
     739A      6.101648   740A      6.146245   741A      6.157755  
     742A      6.178225   743A      6.185608   744A      6.222966  
     745A      6.228568   746A      6.242926   747A      6.250585  
     748A      6.263654   749A      6.284424   750A      6.307656  
     751A      6.314664   752A      6.319858   753A      6.337155  
     754A      6.369186   755A      6.387286   756A      6.406142  
     757A      6.444128   758A      6.447173   759A      6.565061  
     760A      6.614819   761A      6.673265   762A      6.706657  
     763A      6.741942   764A      6.781512   765A      6.785982  
     766A      6.819593   767A      6.873410   768A      6.882770  
     769A      6.901828   770A      6.967206   771A      7.006084  
     772A      7.054281   773A      7.105698   774A      7.153401  
     775A     18.052915   776A     18.290677   777A     18.412709  
     778A     18.573821   779A     18.697143   780A     18.812138  
     781A     19.559642   782A     19.914645  

    Final Occupation by Irrep:
              A 
    DOCC [    33 ]

  Energy converged.

  @DF-RHF Final Energy:  -313.54322295145892

   => Energetics <=

    Nuclear Repulsion Energy =            394.8953292471048826
    One-Electron Energy =               -1204.8969058353063701
    Two-Electron Energy =                 496.4583536367429133
    DFT Exchange-Correlation Energy =       0.0000000000000000
    Empirical Dispersion Energy =           0.0000000000000000
    PCM Polarization Energy =               0.0000000000000000
    EFP Energy =                            0.0000000000000000
    Total Energy =                       -313.5432229514585742


  Saving occupied orbitals to File 180.

*** tstop() called on wr38 at Tue Sep 20 16:44:31 2016
Module time:
	user time   =     920.93 seconds =      15.35 minutes
	system time =      12.47 seconds =       0.21 minutes
	total time  =         85 seconds =       1.42 minutes
Total time:
	user time   =     920.93 seconds =      15.35 minutes
	system time =      12.47 seconds =       0.21 minutes
	total time  =         85 seconds =       1.42 minutes


Properties will be evaluated at   0.000000,   0.000000,   0.000000 Bohr

Properties computed using the SCF density matrix

  Nuclear Dipole Moment: (a.u.)
     X:     0.2220      Y:     2.0871      Z:    -0.2658

  Electronic Dipole Moment: (a.u.)
     X:    -0.2154      Y:    -2.1206      Z:     0.2917

  Dipole Moment: (a.u.)
     X:     0.0066      Y:    -0.0336      Z:     0.0259     Total:     0.0429

  Dipole Moment: (Debye)
     X:     0.0169      Y:    -0.0853      Z:     0.0658     Total:     0.1090


  //>>>>>>>>>>>>>>>>>>>>>>>>>>>>>>>>>>>//
  //               DFMP2               //
  //<<<<<<<<<<<<<<<<<<<<<<<<<<<<<<<<<<<//


*** tstart() called on wr38
*** at Tue Sep 20 16:44:32 2016


*** tstop() called on wr38 at Tue Sep 20 16:44:32 2016
Module time:
	user time   =       4.33 seconds =       0.07 minutes
	system time =       0.08 seconds =       0.00 minutes
	total time  =          0 seconds =       0.00 minutes
Total time:
	user time   =     925.61 seconds =      15.43 minutes
	system time =      12.56 seconds =       0.21 minutes
	total time  =         86 seconds =       1.43 minutes
	 --------------------------------------------------------
	                          DF-MP2                         
	      2nd-Order Density-Fitted Moller-Plesset Theory     
	              RMP2 Wavefunction,  12 Threads             
	                                                         
	        Rob Parrish, Justin Turney, Andy Simmonett,      
	           Ed Hohenstein, and C. David Sherrill          
	 --------------------------------------------------------

   => Auxiliary Basis Set <=

  Basis Set: 
    Number of shells: 476
    Number of basis function: 1676
    Number of Cartesian functions: 2078
    Spherical Harmonics?: true
    Max angular momentum: 4

	 --------------------------------------------------------
	                 NBF =   782, NAUX =  1676
	 --------------------------------------------------------
	   CLASS    FOCC     OCC    AOCC    AVIR     VIR    FVIR
	   PAIRS       8      33      25     749     749       0
	 --------------------------------------------------------

DGAS Warning! /src/lib/libfock/apps.cc:80 is not currently checking restricted

         ------------------------------------------------------------
                                     CPHF                           
                                  Rob Parrish                       
         ------------------------------------------------------------

  ==> Geometry <==

    Molecular point group: c1
    Full point group: C1

    Geometry (in Angstrom), charge = 0, multiplicity = 1:

       Center              X                  Y                   Z               Mass       
    ------------   -----------------  -----------------  -----------------  -----------------
           C          3.432353266954     1.161129483403    -0.311904000688    12.000000000000
           H          4.363555879972     1.384037120457     0.203921507379     1.007825032070
           H          2.885385681494     2.094031288607    -0.436167191652     1.007825032070
           H          3.679173410507     0.786813422039    -1.303829078890     1.007825032070
           C         -3.130209447104     1.495585006170     0.028379897993    12.000000000000
           H         -2.689607987813     2.120514654053    -0.746686678345     1.007825032070
           H         -3.430920265280     2.141944635487     0.849729269185     1.007825032070
           H         -4.026449834191     1.037201677122    -0.385825246402     1.007825032070
           C          2.597842671375     0.148609989417     0.449699596015    12.000000000000
           H          2.374915541152     0.529942281455     1.447734777503     1.007825032070
           H          3.168621208096    -0.770793848490     0.589527256245     1.007825032070
           C         -2.144893195059     0.434173636781     0.481224554042    12.000000000000
           H         -1.273682777854     0.916337637806     0.924894928633     1.007825032070
           H         -2.593175341701    -0.179164164817     1.265723433553     1.007825032070
           C          1.294932504894    -0.179722484002    -0.253953067188    12.000000000000
           H          1.509752257188    -0.583839836231    -1.247226649348     1.007825032070
           H          0.737531470579     0.745864550113    -0.410849163248     1.007825032070
           C          0.444924310895    -1.171698891006     0.517473622364    12.000000000000
           H          0.170729678402    -0.735331498663     1.479397624631     1.007825032070
           H          1.048477938513    -2.052560552762     0.744912102244     1.007825032070
           C         -0.807543249551    -1.611045166106    -0.226324120974    12.000000000000
           H         -0.511693172240    -2.185155891693    -1.106597016998     1.007825032070
           H         -1.380697322898    -2.288233958370     0.410138912111     1.007825032070
           C         -1.707298961432    -0.464006150041    -0.660782813227    12.000000000000
           H         -1.200262604871     0.139355779370    -1.415864015870     1.007825032070
           H         -2.594801943763    -0.874689058175    -1.146480039974     1.007825032070

  Nuclear repulsion =  394.895329247104883
  Reference energy  = -313.543222951458915

  ==> Basis Set <==

  Basis Set: AUG-CC-PVTZ
    Number of shells: 274
    Number of basis function: 782
    Number of Cartesian functions: 890
    Spherical Harmonics?: true
    Max angular momentum: 3

  ==> CGRSolver (by Rob Parrish) <==

   Number of roots    =         1
   Preconditioning    =    JACOBI
   Convergence cutoff =     1E-06
   Maximum iterations =       100

  ==> CPHFRHamiltonian (by Rob Parrish) <== 

  ==> DFJK: Density-Fitted J/K Matrices <==

    J tasked:                  Yes
    K tasked:                  Yes
    wK tasked:                  No
    OpenMP threads:             12
    Integrals threads:          12
    Memory (MB):             21457
    Algorithm:                Core
    Integral Cache:           NONE
    Schwarz Cutoff:          1E-12
    Fitting Condition:       1E-12

   => Auxiliary Basis Set <=

  Basis Set: 
    Number of shells: 492
    Number of basis function: 1660
    Number of Cartesian functions: 2038
    Spherical Harmonics?: true
    Max angular momentum: 4

  ==> CPHF Iterations <==

  => Iterations <=

             Iter  Converged  Remaining    Residual
  CGR           1          0          1   8.996E-02
  CGR           2          0          1   1.289E-02
  CGR           3          0          1   3.778E-03
  CGR           4          0          1   8.544E-04
  CGR           5          0          1   1.888E-04
  CGR           6          0          1   4.807E-05
  CGR           7          0          1   1.319E-05
  CGR           8          0          1   3.391E-06
  CGR           9          1          0   8.538E-07

    CGRSolver converged.

  ==> DFCorrGrad: Density-Fitted Correlated Gradients <==

    OpenMP threads:             12
    Integrals threads:          12
    Memory (MB):             21457
    Schwarz Cutoff:          0E+00
    Fitting Condition:       1E-12

   => Auxiliary Basis Set <=

  Basis Set: 
    Number of shells: 492
    Number of basis function: 1660
    Number of Cartesian functions: 2038
    Spherical Harmonics?: true
    Max angular momentum: 4

	-----------------------------------------------------------
	 ==================> DF-MP2 Energies <==================== 
	-----------------------------------------------------------
	 Reference Energy          =    -313.5432229514589153 [Eh]
	 Singles Energy            =      -0.0000000000000000 [Eh]
	 Same-Spin Energy          =      -0.3164675581844859 [Eh]
	 Opposite-Spin Energy      =      -1.1245472491438848 [Eh]
	 Correlation Energy        =      -1.4410148073283708 [Eh]
	 Total Energy              =    -314.9842377587872875 [Eh]
	-----------------------------------------------------------
	 ================> DF-SCS-MP2 Energies <================== 
	-----------------------------------------------------------
	 SCS Same-Spin Scale       =       0.3333333333333333 [-]
	 SCS Opposite-Spin Scale   =       1.2000000000000000 [-]
	 SCS Same-Spin Energy      =      -0.1054891860614953 [Eh]
	 SCS Opposite-Spin Energy  =      -1.3494566989726617 [Eh]
	 SCS Correlation Energy    =      -1.4549458850341570 [Eh]
	 SCS Total Energy          =    -314.9981688364930505 [Eh]
	-----------------------------------------------------------


  -Total Gradient:
     Atom            X                  Y                   Z
    ------   -----------------  -----------------  -----------------
       1       -0.000920343172    -0.001004265013     0.000769812141
       2       -0.001264319923    -0.000449279774    -0.000505480767
       3        0.000521535938    -0.001412242026     0.000301290895
       4       -0.000499501673     0.000266963200     0.001421633156
       5        0.001041296993    -0.001056456513     0.000461963771
       6       -0.000366515322    -0.001033913143     0.001057112131
       7        0.000573382511    -0.000971193635    -0.000932090050
       8        0.001334454887     0.000325421429     0.000574793642
       9       -0.000711588765     0.000943608879    -0.001862361097
      10        0.000055058536    -0.000355823910    -0.001451141601
      11       -0.000841918305     0.001109472666    -0.000506381108
      12       -0.000257632398     0.000311354042    -0.001959918974
      13       -0.001123401681    -0.000610372185    -0.000963628384
      14        0.000526497695     0.000566061633    -0.001203349565
      15        0.000419465350    -0.000523695027     0.001867759458
      16       -0.000367776249     0.000236164590     0.001345879392
      17        0.000724862650    -0.001225418507     0.000563305538
      18       -0.000520936764     0.000719023157    -0.001959020053
      19        0.000102588184    -0.000466950938    -0.001461588844
      20       -0.000733882800     0.001130767381    -0.000441070636
      21        0.000429344048     0.002184367233     0.000400870519
      22       -0.000165848792     0.000930204315     0.001040949569
      23        0.000652835281     0.001075512629    -0.000593709434
      24        0.000669017769    -0.000234705913     0.002062566387
      25       -0.000384010975    -0.000898879680     0.001197875735
      26        0.001107336974     0.000444275110     0.000773928180


			-----------------------------------------
			 OPTKING 2.0: for geometry optimizations 
			  - R.A. King,  Bethel University        
			-----------------------------------------

	Internal coordinates to be generated automatically.
	Detected frag 1 with atoms:  1 2 3 4 5 6 7 8 9 10 11 12 13 14 15 16 17 18 19 20
	 21 22 23 24 25 26
	---Fragment 1 Bond Connectivity---
	 1 : 2 3 4 9
	 2 : 1
	 3 : 1
	 4 : 1
	 5 : 6 7 8 12
	 6 : 5
	 7 : 5
	 8 : 5
	 9 : 1 10 11 15
	 10 : 9
	 11 : 9
	 12 : 5 13 14 24
	 13 : 12
	 14 : 12
	 15 : 9 16 17 18
	 16 : 15
	 17 : 15
	 18 : 15 19 20 21
	 19 : 18
	 20 : 18
	 21 : 18 22 23 24
	 22 : 21
	 23 : 21
	 24 : 12 21 25 26
	 25 : 24
	 26 : 24

	---Fragment 1 Geometry and Gradient---
	 C           6.4862076659        2.1942167285       -0.5894131411
	 H           8.2459255787        2.6154511154        0.3853558016
	 H           5.4525887258        3.9571456492       -0.8242365404
	 H           6.9526301413        1.4868618853       -2.4638798832
	 C          -5.9152385936        2.8262460701        0.0536302349
	 H          -5.0826225018        4.0071919569       -1.4110333291
	 H          -6.4834996851        4.0476887529        1.6057556059
	 H          -7.6088874744        1.9600271143       -0.7291040509
	 C           4.9092111852        0.2808321806        0.8498090785
	 H           4.4879399615        1.0014457782        2.7358222425
	 H           5.9878263022       -1.4565892786        1.1140450622
	 C          -4.0532607230        0.8204692676        0.9093826156
	 H          -2.4069116303        1.7316271807        1.7477981168
	 H          -4.9003912104       -0.3385712043        2.3918706494
	 C           2.4470677948       -0.3396262747       -0.4799017476
	 H           2.8530182946       -1.1032973959       -2.3569167929
	 H           1.3937324938        1.4094797319       -0.7763924005
	 C           0.8407850975       -2.2141900142        0.9778834273
	 H           0.3226323349       -1.3895751494        2.7956563522
	 H           1.9813361602       -3.8787773159        1.4076798663
	 C          -1.5260355821       -3.0444341516       -0.4276906059
	 H          -0.9669599596       -4.1293461930       -2.0911653016
	 H          -2.6091398127       -4.3241355093        0.7750502203
	 C          -3.2263274641       -0.8768445476       -1.2486985503
	 H          -2.2681676108        0.2633442580       -2.6755952314
	 H          -4.9034650428       -1.6529227714       -2.1665332924
	            -0.0009203432       -0.0010042650        0.0007698121
	            -0.0012643199       -0.0004492798       -0.0005054808
	             0.0005215359       -0.0014122420        0.0003012909
	            -0.0004995017        0.0002669632        0.0014216332
	             0.0010412970       -0.0010564565        0.0004619638
	            -0.0003665153       -0.0010339131        0.0010571121
	             0.0005733825       -0.0009711936       -0.0009320900
	             0.0013344549        0.0003254214        0.0005747936
	            -0.0007115888        0.0009436089       -0.0018623611
	             0.0000550585       -0.0003558239       -0.0014511416
	            -0.0008419183        0.0011094727       -0.0005063811
	            -0.0002576324        0.0003113540       -0.0019599190
	            -0.0011234017       -0.0006103722       -0.0009636284
	             0.0005264977        0.0005660616       -0.0012033496
	             0.0004194654       -0.0005236950        0.0018677595
	            -0.0003677762        0.0002361646        0.0013458794
	             0.0007248627       -0.0012254185        0.0005633055
	            -0.0005209368        0.0007190232       -0.0019590201
	             0.0001025882       -0.0004669509       -0.0014615888
	            -0.0007338828        0.0011307674       -0.0004410706
	             0.0004293440        0.0021843672        0.0004008705
	            -0.0001658488        0.0009302043        0.0010409496
	             0.0006528353        0.0010755126       -0.0005937094
	             0.0006690178       -0.0002347059        0.0020625664
	            -0.0003840110       -0.0008988797        0.0011978757
	             0.0011073370        0.0004442751        0.0007739282

	Previous optimization step data not found.  Starting new optimization.

	---Fragment 1 Intrafragment Coordinates---
	 - Coordinate -           - BOHR/RAD -       - ANG/DEG -
	 R(1,2)           =         2.055291	       1.087613
	 R(1,3)           =         2.057044	       1.088541
	 R(1,4)           =         2.057067	       1.088553
	 R(1,9)           =         2.866935	       1.517117
	 R(5,6)           =         2.057455	       1.088758
	 R(5,7)           =         2.055222	       1.087576
	 R(5,8)           =         2.057050	       1.088544
	 R(5,12)          =         2.867475	       1.517403
	 R(9,10)          =         2.062474	       1.091414
	 R(9,11)          =         2.062005	       1.091166
	 R(9,15)          =         2.866226	       1.516741
	 R(12,13)         =         2.060004	       1.090107
	 R(12,14)         =         2.063680	       1.092052
	 R(12,24)         =         2.867404	       1.517365
	 R(15,16)         =         2.066682	       1.093641
	 R(15,17)         =         2.063200	       1.091798
	 R(15,18)         =         2.866927	       1.517112
	 R(18,19)         =         2.062225	       1.091282
	 R(18,20)         =         2.063112	       1.091752
	 R(18,21)         =         2.875202	       1.521491
	 R(21,22)         =         2.063189	       1.091792
	 R(21,23)         =         2.063331	       1.091868
	 R(21,24)         =         2.874629	       1.521188
	 R(24,25)         =         2.062555	       1.091457
	 R(24,26)         =         2.063373	       1.091890
	 B(1,9,10)        =         1.915828	     109.768838
	 B(1,9,11)        =         1.916584	     109.812181
	 B(1,9,15)        =         1.965024	     112.587568
	 B(2,1,3)         =         1.884633	     107.981490
	 B(2,1,4)         =         1.884428	     107.969765
	 B(2,1,9)         =         1.949433	     111.694272
	 B(3,1,4)         =         1.880325	     107.734708
	 B(3,1,9)         =         1.931449	     110.663903
	 B(4,1,9)         =         1.931222	     110.650866
	 B(5,12,13)       =         1.908185	     109.330944
	 B(5,12,14)       =         1.918452	     109.919230
	 B(5,12,24)       =         1.957037	     112.129981
	 B(6,5,7)         =         1.884294	     107.962114
	 B(6,5,8)         =         1.879700	     107.698850
	 B(6,5,12)        =         1.929615	     110.558812
	 B(7,5,8)         =         1.885969	     108.058072
	 B(7,5,12)        =         1.949673	     111.708041
	 B(8,5,12)        =         1.932249	     110.709720
	 B(9,15,16)       =         1.909860	     109.426900
	 B(9,15,17)       =         1.898331	     108.766356
	 B(9,15,18)       =         1.968103	     112.763988
	 B(10,9,11)       =         1.858819	     106.502488
	 B(10,9,15)       =         1.901180	     108.929607
	 B(11,9,15)       =         1.903286	     109.050258
	 B(12,24,21)      =         1.984461	     113.701227
	 B(12,24,25)      =         1.904371	     109.112398
	 B(12,24,26)      =         1.899710	     108.845389
	 B(13,12,14)      =         1.858873	     106.505591
	 B(13,12,24)      =         1.915218	     109.733934
	 B(14,12,24)      =         1.903495	     109.062231
	 B(15,18,19)      =         1.904483	     109.118829
	 B(15,18,20)      =         1.900480	     108.889496
	 B(15,18,21)      =         1.983890	     113.668508
	 B(16,15,17)      =         1.857746	     106.441024
	 B(16,15,18)      =         1.907376	     109.284623
	 B(17,15,18)      =         1.919145	     109.958897
	 B(18,21,22)      =         1.899620	     108.840204
	 B(18,21,23)      =         1.903123	     109.040923
	 B(18,21,24)      =         1.991916	     114.128387
	 B(19,18,20)      =         1.852403	     106.134870
	 B(19,18,21)      =         1.917230	     109.849190
	 B(20,18,21)      =         1.900689	     108.901457
	 B(21,24,25)      =         1.917339	     109.855459
	 B(21,24,26)      =         1.900959	     108.916948
	 B(22,21,23)      =         1.860941	     106.624093
	 B(22,21,24)      =         1.903407	     109.057196
	 B(23,21,24)      =         1.900392	     108.884467
	 B(25,24,26)      =         1.852280	     106.127811
	 D(1,9,15,16)     =         1.034209	      59.255816
	 D(1,9,15,17)     =        -0.988623	     -56.643904
	 D(1,9,15,18)     =        -3.122201	    -178.888922
	 D(2,1,9,10)      =         1.022932	      58.609693
	 D(2,1,9,11)      =        -1.014986	     -58.154408
	 D(2,1,9,15)      =        -3.139234	    -179.864850
	 D(3,1,9,10)      =        -1.077395	     -61.730197
	 D(3,1,9,11)      =        -3.115313	    -178.494298
	 D(3,1,9,15)      =         1.043624	      59.795260
	 D(4,1,9,10)      =         3.122845	     178.925837
	 D(4,1,9,11)      =         1.084927	      62.161736
	 D(4,1,9,15)      =        -1.039321	     -59.548706
	 D(5,12,24,21)    =        -3.059333	    -175.286882
	 D(5,12,24,25)    =         1.077028	      61.709166
	 D(5,12,24,26)    =        -0.937055	     -53.689292
	 D(6,5,12,13)     =         1.096126	      62.803393
	 D(6,5,12,14)     =         3.130738	     179.378059
	 D(6,5,12,24)     =        -1.032024	     -59.130646
	 D(7,5,12,13)     =        -1.002685	     -57.449619
	 D(7,5,12,14)     =         1.031927	      59.125046
	 D(7,5,12,24)     =        -3.130835	    -179.383659
	 D(8,5,12,13)     =        -3.105415	    -177.927197
	 D(8,5,12,14)     =        -1.070804	     -61.352531
	 D(8,5,12,24)     =         1.049619	      60.138764
	 D(9,15,18,19)    =         1.085529	      62.196219
	 D(9,15,18,20)    =        -0.929182	     -53.238216
	 D(9,15,18,21)    =        -3.051289	    -174.825981
	 D(10,9,15,16)    =        -3.119649	    -178.742735
	 D(10,9,15,17)    =         1.140704	      65.357546
	 D(10,9,15,18)    =        -0.992874	     -56.887472
	 D(11,9,15,16)    =        -1.097568	     -62.886008
	 D(11,9,15,17)    =        -3.120400	    -178.785727
	 D(11,9,15,18)    =         1.029208	      58.969255
	 D(12,24,21,18)   =        -0.979573	     -56.125416
	 D(12,24,21,22)   =        -3.107900	    -178.069580
	 D(12,24,21,23)   =         1.151041	      65.949808
	 D(13,12,24,21)   =         1.099723	      63.009485
	 D(13,12,24,25)   =        -1.047101	     -59.994466
	 D(13,12,24,26)   =        -3.061184	    -175.392925
	 D(14,12,24,21)   =        -0.930351	     -53.305158
	 D(14,12,24,25)   =        -3.077174	    -176.309110
	 D(14,12,24,26)   =         1.191928	      68.292432
	 D(15,18,21,22)   =         1.158170	      66.358227
	 D(15,18,21,23)   =        -3.101353	    -177.694444
	 D(15,18,21,24)   =        -0.972238	     -55.705144
	 D(16,15,18,19)   =        -3.069479	    -175.868207
	 D(16,15,18,20)   =         1.198995	      68.697358
	 D(16,15,18,21)   =        -0.923112	     -52.890407
	 D(17,15,18,19)   =        -1.036302	     -59.375715
	 D(17,15,18,20)   =        -3.051013	    -174.810150
	 D(17,15,18,21)   =         1.110066	      63.602085
	 D(18,21,24,25)   =         1.160131	      66.470595
	 D(18,21,24,26)   =        -3.101157	    -177.683189
	 D(19,18,21,22)   =        -2.985653	    -171.065295
	 D(19,18,21,23)   =        -0.961990	     -55.117966
	 D(19,18,21,24)   =         1.167125	      66.871334
	 D(20,18,21,22)   =        -0.963821	     -55.222879
	 D(20,18,21,23)   =         1.059842	      60.724450
	 D(20,18,21,24)   =        -3.094229	    -177.286250
	 D(22,21,24,25)   =        -0.968196	     -55.473570
	 D(22,21,24,26)   =         1.053701	      60.372646
	 D(23,21,24,25)   =        -2.992440	    -171.454181
	 D(23,21,24,26)   =        -0.970542	     -55.607966
	 R(12,15)         =         6.747607	       3.570680

	Current energy   :      -314.9842377588

	Generating empirical Hessian (Schlegel '84) for each fragment.
	Taking RFO optimization step.
	Going to follow RFO solution 1.
	Using RFO vector 1.
	Norm of target step-size    0.08665
	Projected energy change by RFO approximation:        -0.0008562220

	Back-transformation to cartesian coordinates...
	Could not converge backtransformation.
	Using first guess instead.

	--- Internal Coordinate Step in ANG or DEG, aJ/ANG or AJ/DEG ---
	 ---------------------------------------------------------------------------
	   Coordinate                Previous        Force       Change         New 
	   ----------                --------       ------       ------       ------
	    1 R(1,2)          =      1.087613     0.011652     0.002158     1.089771
	    2 R(1,3)          =      1.088541     0.012414     0.002379     1.090920
	    3 R(1,4)          =      1.088553     0.012362     0.002349     1.090902
	    4 R(1,9)          =      1.517117     0.032309     0.006801     1.523918
	    5 R(5,6)          =      1.088758     0.012311     0.002298     1.091056
	    6 R(5,7)          =      1.087576     0.011861     0.002189     1.089765
	    7 R(5,8)          =      1.088544     0.011983     0.002240     1.090784
	    8 R(5,12)         =      1.517403     0.032441     0.006801     1.524204
	    9 R(9,10)         =      1.091414     0.012050     0.002298     1.093713
	   10 R(9,11)         =      1.091166     0.011865     0.002306     1.093472
	   11 R(9,15)         =      1.516741     0.034523     0.007248     1.523989
	   12 R(12,13)        =      1.090107     0.012852     0.002412     1.092519
	   13 R(12,14)        =      1.092052     0.011522     0.002156     1.094209
	   14 R(12,24)        =      1.517365     0.027958     0.006698     1.524063
	   15 R(15,16)        =      1.093641     0.011385     0.002171     1.095812
	   16 R(15,17)        =      1.091798     0.012275     0.002348     1.094146
	   17 R(15,18)        =      1.517112     0.027923     0.006678     1.523790
	   18 R(18,19)        =      1.091282     0.012365     0.002291     1.093574
	   19 R(18,20)        =      1.091752     0.011616     0.002158     1.093910
	   20 R(18,21)        =      1.521491     0.029648     0.007302     1.528793
	   21 R(21,22)        =      1.091792     0.011315     0.002102     1.093894
	   22 R(21,23)        =      1.091868     0.011170     0.002086     1.093954
	   23 R(21,24)        =      1.521188     0.029463     0.007265     1.528453
	   24 R(24,25)        =      1.091457     0.012391     0.002315     1.093772
	   25 R(24,26)        =      1.091890     0.011628     0.002159     1.094049
	   26 B(1,9,10)       =    109.768838    -0.000000    -0.010732   109.758106
	   27 B(1,9,11)       =    109.812181    -0.000001    -0.012796   109.799385
	   28 B(1,9,15)       =    112.587568    -0.000007     0.013368   112.600937
	   29 B(2,1,3)        =    107.981490    -0.000021    -0.108853   107.872637
	   30 B(2,1,4)        =    107.969765    -0.000021    -0.099167   107.870598
	   31 B(2,1,9)        =    111.694272     0.000014     0.056520   111.750792
	   32 B(3,1,4)        =    107.734708    -0.000022    -0.092987   107.641721
	   33 B(3,1,9)        =    110.663903     0.000023     0.110078   110.773982
	   34 B(4,1,9)        =    110.650866     0.000024     0.118760   110.769626
	   35 B(5,12,13)      =    109.330944     0.000001     0.007527   109.338471
	   36 B(5,12,14)      =    109.919230    -0.000005    -0.058909   109.860320
	   37 B(5,12,24)      =    112.129981    -0.000006     0.016829   112.146809
	   38 B(6,5,7)        =    107.962114    -0.000022    -0.105767   107.856347
	   39 B(6,5,8)        =    107.698850    -0.000022    -0.086490   107.612359
	   40 B(6,5,12)       =    110.558812     0.000023     0.114493   110.673305
	   41 B(7,5,8)        =    108.058072    -0.000024    -0.124323   107.933749
	   42 B(7,5,12)       =    111.708041     0.000016     0.065610   111.773651
	   43 B(8,5,12)       =    110.709720     0.000025     0.120267   110.829987
	   44 B(9,15,16)      =    109.426900    -0.000013    -0.092987   109.333913
	   45 B(9,15,17)      =    108.766356    -0.000000     0.033799   108.800155
	   46 B(9,15,18)      =    112.763988     0.000011     0.077972   112.841960
	   47 B(10,9,11)      =    106.502488    -0.000013    -0.179581   106.322907
	   48 B(10,9,15)      =    108.929607     0.000010     0.081270   109.010877
	   49 B(11,9,15)      =    109.050258     0.000011     0.098564   109.148822
	   50 B(12,24,21)     =    113.701227    -0.000046     0.095644   113.796871
	   51 B(12,24,25)     =    109.112398    -0.000008    -0.024011   109.088387
	   52 B(12,24,26)     =    108.845389     0.000032    -0.028044   108.817345
	   53 B(13,12,14)     =    106.505591    -0.000013    -0.167387   106.338203
	   54 B(13,12,24)     =    109.733934     0.000010     0.108470   109.842404
	   55 B(14,12,24)     =    109.062231     0.000012     0.084141   109.146372
	   56 B(15,18,19)     =    109.118829    -0.000005     0.001771   109.120600
	   57 B(15,18,20)     =    108.889496     0.000033    -0.026591   108.862905
	   58 B(15,18,21)     =    113.668508    -0.000048     0.087169   113.755676
	   59 B(16,15,17)     =    106.441024    -0.000010    -0.174678   106.266346
	   60 B(16,15,18)     =    109.284623     0.000008     0.065088   109.349711
	   61 B(17,15,18)     =    109.958897     0.000002     0.074442   110.033339
	   62 B(18,21,22)     =    108.840204     0.000054     0.043146   108.883350
	   63 B(18,21,23)     =    109.040923     0.000013     0.000830   109.041754
	   64 B(18,21,24)     =    114.128387    -0.000098     0.137496   114.265883
	   65 B(19,18,20)     =    106.134870    -0.000016    -0.146776   105.988094
	   66 B(19,18,21)     =    109.849190     0.000026     0.095083   109.944273
	   67 B(20,18,21)     =    108.901457     0.000013    -0.028683   108.872774
	   68 B(21,24,25)     =    109.855459     0.000027     0.102563   109.958022
	   69 B(21,24,26)     =    108.916948     0.000014    -0.007068   108.909880
	   70 B(22,21,23)     =    106.624093    -0.000027    -0.200191   106.423902
	   71 B(22,21,24)     =    109.057196     0.000010    -0.015094   109.042102
	   72 B(23,21,24)     =    108.884467     0.000051     0.009351   108.893818
	   73 B(25,24,26)     =    106.127811    -0.000017    -0.158645   105.969166
	   74 D(1,9,15,16)    =     59.255816    -0.000002    -0.329353    58.926462
	   75 D(1,9,15,17)    =    -56.643904     0.000002    -0.088774   -56.732678
	   76 D(1,9,15,18)    =   -178.888922    -0.000000    -0.259858  -179.148779
	   77 D(2,1,9,10)     =     58.609693    -0.000002    -0.135369    58.474324
	   78 D(2,1,9,11)     =    -58.154408     0.000002     0.096023   -58.058385
	   79 D(2,1,9,15)     =   -179.864850    -0.000000    -0.030094  -179.894944
	   80 D(3,1,9,10)     =    -61.730197    -0.000002    -0.110384   -61.840582
	   81 D(3,1,9,11)     =   -178.494298     0.000002     0.121007  -178.373291
	   82 D(3,1,9,15)     =     59.795260     0.000000    -0.005109    59.790150
	   83 D(4,1,9,10)     =    178.925837    -0.000002    -0.142175   178.783663
	   84 D(4,1,9,11)     =     62.161736     0.000002     0.089217    62.250953
	   85 D(4,1,9,15)     =    -59.548706    -0.000000    -0.036900   -59.585605
	   86 D(5,12,24,21)   =   -175.286882    -0.000001    -0.391993  -175.678875
	   87 D(5,12,24,25)   =     61.709166    -0.000000    -0.574011    61.135155
	   88 D(5,12,24,26)   =    -53.689292     0.000001    -0.357226   -54.046519
	   89 D(6,5,12,13)    =     62.803393     0.000002     0.020319    62.823713
	   90 D(6,5,12,14)    =    179.378059    -0.000002    -0.211141   179.166918
	   91 D(6,5,12,24)    =    -59.130646    -0.000001    -0.133901   -59.264547
	   92 D(7,5,12,13)    =    -57.449619     0.000002     0.032529   -57.417090
	   93 D(7,5,12,14)    =     59.125046    -0.000002    -0.198931    58.926115
	   94 D(7,5,12,24)    =   -179.383659    -0.000000    -0.121691  -179.505350
	   95 D(8,5,12,13)    =   -177.927197     0.000002     0.063752  -177.863445
	   96 D(8,5,12,14)    =    -61.352531    -0.000002    -0.167708   -61.520240
	   97 D(8,5,12,24)    =     60.138764     0.000000    -0.090469    60.048295
	   98 D(9,15,18,19)   =     62.196219     0.000000    -0.667661    61.528559
	   99 D(9,15,18,20)   =    -53.238216     0.000001    -0.479554   -53.717770
	  100 D(9,15,18,21)   =   -174.825981    -0.000001    -0.482009  -175.307990
	  101 D(10,9,15,16)   =   -178.742735    -0.000002    -0.276730  -179.019465
	  102 D(10,9,15,17)   =     65.357546     0.000002    -0.036151    65.321395
	  103 D(10,9,15,18)   =    -56.887472     0.000000    -0.207235   -57.094707
	  104 D(11,9,15,16)   =    -62.886008    -0.000003    -0.391948   -63.277956
	  105 D(11,9,15,17)   =   -178.785727     0.000001    -0.151369  -178.937096
	  106 D(11,9,15,18)   =     58.969255    -0.000001    -0.322452    58.646802
	  107 D(12,24,21,18)  =    -56.125416     0.000008    -0.109289   -56.234705
	  108 D(12,24,21,22)  =   -178.069580     0.000006    -0.248500  -178.318080
	  109 D(12,24,21,23)  =     65.949808     0.000005    -0.006894    65.942914
	  110 D(13,12,24,21)  =     63.009485    -0.000002    -0.488983    62.520502
	  111 D(13,12,24,25)  =    -59.994466    -0.000001    -0.671001   -60.665467
	  112 D(13,12,24,26)  =   -175.392925     0.000000    -0.454216  -175.847141
	  113 D(14,12,24,21)  =    -53.305158    -0.000002    -0.396908   -53.702066
	  114 D(14,12,24,25)  =   -176.309110    -0.000001    -0.578926  -176.888035
	  115 D(14,12,24,26)  =     68.292432     0.000001    -0.362141    67.930291
	  116 D(15,18,21,22)  =     66.358227     0.000005    -0.308382    66.049844
	  117 D(15,18,21,23)  =   -177.694444     0.000006    -0.522634  -178.217078
	  118 D(15,18,21,24)  =    -55.705144     0.000008    -0.415253   -56.120397
	  119 D(16,15,18,19)  =   -175.868207    -0.000000    -0.687378  -176.555585
	  120 D(16,15,18,20)  =     68.697358     0.000001    -0.499271    68.198087
	  121 D(16,15,18,21)  =    -52.890407    -0.000001    -0.501726   -53.392134
	  122 D(17,15,18,19)  =    -59.375715    -0.000002    -0.818046   -60.193761
	  123 D(17,15,18,20)  =   -174.810150    -0.000001    -0.629940  -175.440089
	  124 D(17,15,18,21)  =     63.602085    -0.000003    -0.632395    62.969690
	  125 D(18,21,24,25)  =     66.470595     0.000003     0.004903    66.475498
	  126 D(18,21,24,26)  =   -177.683189     0.000004    -0.132494  -177.815684
	  127 D(19,18,21,22)  =   -171.065295    -0.000000    -0.172437  -171.237732
	  128 D(19,18,21,23)  =    -55.117966     0.000001    -0.386688   -55.504654
	  129 D(19,18,21,24)  =     66.871334     0.000003    -0.279307    66.592027
	  130 D(20,18,21,22)  =    -55.222879     0.000000    -0.312011   -55.534891
	  131 D(20,18,21,23)  =     60.724450     0.000001    -0.526263    60.198187
	  132 D(20,18,21,24)  =   -177.286250     0.000003    -0.418882  -177.705132
	  133 D(22,21,24,25)  =    -55.473570     0.000001    -0.134308   -55.607878
	  134 D(22,21,24,26)  =     60.372646     0.000001    -0.271705    60.100941
	  135 D(23,21,24,25)  =   -171.454181     0.000000     0.107298  -171.346884
	  136 D(23,21,24,26)  =    -55.607966     0.000001    -0.030099   -55.638065
	  137 R(12,15)        =      3.570680     0.012300     0.031082     3.601762
	 ---------------------------------------------------------------------------

  ==> Convergence Check <==

  Measures of convergence in internal coordinates in au.
  Criteria marked as inactive (o), active & met (*), and active & unmet ( ).
  --------------------------------------------------------------------------------------------- ~
   Step     Total Energy     Delta E     MAX Force     RMS Force      MAX Disp      RMS Disp    ~
  --------------------------------------------------------------------------------------------- ~
    Convergence Criteria             o    2.00e-06 *    1.00e-06 *    6.00e-06 *    4.00e-06 *  ~
  --------------------------------------------------------------------------------------------- ~
      1    -314.98423776   -3.15e+02 o    4.19e-03      1.03e-03      5.87e-02      7.41e-03    ~
  ---------------------------------------------------------------------------------------------

	Writing optimization data to binary file.
	Structure for next step:
	Cartesian Geometry (in Angstrom)
	    C     3.4549741718   1.1621988800  -0.3155710451
	    H     4.3845124043   1.3916623688   0.2049162782
	    H     2.9097211020   2.0967653905  -0.4548190889
	    H     3.7108072086   0.7782456562  -1.3041039123
	    C    -3.1493181480   1.5019355312   0.0326157233
	    H    -2.7044709108   2.1338699287  -0.7375621119
	    H    -3.4559165745   2.1454554951   0.8569142196
	    H    -4.0462783979   1.0478122398  -0.3905194685
	    C     2.6109240735   0.1535058730   0.4541322633
	    H     2.3823719252   0.5455276334   1.4492655484
	    H     3.1824858411  -0.7656192559   0.6097176126
	    C    -2.1630316550   0.4323662084   0.4869916046
	    H    -1.2924910987   0.9121602017   0.9403722697
	    H    -2.6170108740  -0.1837913515   1.2690052379
	    C     1.3065421945  -0.1834977041  -0.2582996643
	    H     1.5300431924  -0.5933051991  -1.2497178265
	    H     0.7481403663   0.7419997636  -0.4279977027
	    C     0.4486270013  -1.1761495654   0.5166582545
	    H     0.1766241501  -0.7380666428   1.4810239092
	    H     1.0507203954  -2.0600954727   0.7463581542
	    C    -0.8107716631  -1.6160468518  -0.2300770652
	    H    -0.5162247520  -2.1892663132  -1.1139698207
	    H    -1.3821643169  -2.2991037153   0.4052805969
	    C    -1.7191813631  -0.4652095487  -0.6619744921
	    H    -1.2158636773   0.1441722714  -1.4180579411
	    H    -2.6068108792  -0.8782261593  -1.1503131339
			--------------------------
			 OPTKING Finished Execution 
			--------------------------

    Structure for next step:
    Molecular point group: c1
    Full point group: C1

    Geometry (in Angstrom), charge = 0, multiplicity = 1:

    C            3.455103535407     1.162576640666    -0.315634789471
    H            4.384641767913     1.392040129511     0.204852533792
    H            2.909850465614     2.097143151192    -0.454882833269
    H            3.710936572174     0.778623416876    -1.304167656645
    C           -3.149188784437     1.502313291888     0.032551978878
    H           -2.704341547218     2.134247689364    -0.737625856269
    H           -3.455787210971     2.145833255850     0.856850475222
    H           -4.046149034292     1.048190000556    -0.390583212902
    C            2.611053437035     0.153883633684     0.454068518919
    H            2.382501288807     0.545905394117     1.449201803982
    H            3.182615204715    -0.765241495230     0.609653868250
    C           -2.162902291428     0.432743969088     0.486927860197
    H           -1.292361735106     0.912537962390     0.940308525310
    H           -2.616881510458    -0.183413590765     1.268941493476
    C            1.306671558066    -0.183119943383    -0.258363408645
    H            1.530172555986    -0.592927438366    -1.249781570920
    H            0.748269729913     0.742377524317    -0.428061447127
    C            0.448756364910    -1.175771804690     0.516594510142
    H            0.176753513724    -0.737688882103     1.480960164780
    H            1.050849758940    -2.059717712027     0.746294409846
    C           -0.810642299571    -1.615669091109    -0.230140809553
    H           -0.516095388389    -2.188888552474    -1.114033565072
    H           -1.382034953298    -2.298725954596     0.405216852519
    C           -1.719051999480    -0.464831787958    -0.662038236508
    H           -1.215734313684     0.144550032114    -1.418121685478
    H           -2.606681515661    -0.877848398556    -1.150376878272

gradient() will perform analytic gradient computation.

*** tstart() called on wr38
*** at Tue Sep 20 16:51:35 2016


         ---------------------------------------------------------
                                   SCF
            by Justin Turney, Rob Parrish, and Andy Simmonett
                              RHF Reference
                       12 Threads,  30000 MiB Core
         ---------------------------------------------------------

  ==> Geometry <==

    Molecular point group: c1
    Full point group: C1

    Geometry (in Angstrom), charge = 0, multiplicity = 1:

       Center              X                  Y                   Z               Mass       
    ------------   -----------------  -----------------  -----------------  -----------------
           C          3.455103535407     1.162576640666    -0.315634789471    12.000000000000
           H          4.384641767913     1.392040129511     0.204852533792     1.007825032070
           H          2.909850465614     2.097143151192    -0.454882833269     1.007825032070
           H          3.710936572174     0.778623416876    -1.304167656645     1.007825032070
           C         -3.149188784437     1.502313291888     0.032551978878    12.000000000000
           H         -2.704341547218     2.134247689364    -0.737625856269     1.007825032070
           H         -3.455787210971     2.145833255850     0.856850475222     1.007825032070
           H         -4.046149034292     1.048190000556    -0.390583212902     1.007825032070
           C          2.611053437035     0.153883633684     0.454068518919    12.000000000000
           H          2.382501288807     0.545905394117     1.449201803982     1.007825032070
           H          3.182615204715    -0.765241495230     0.609653868250     1.007825032070
           C         -2.162902291428     0.432743969088     0.486927860197    12.000000000000
           H         -1.292361735106     0.912537962390     0.940308525310     1.007825032070
           H         -2.616881510458    -0.183413590765     1.268941493476     1.007825032070
           C          1.306671558066    -0.183119943383    -0.258363408645    12.000000000000
           H          1.530172555986    -0.592927438366    -1.249781570920     1.007825032070
           H          0.748269729913     0.742377524317    -0.428061447127     1.007825032070
           C          0.448756364910    -1.175771804690     0.516594510142    12.000000000000
           H          0.176753513724    -0.737688882103     1.480960164780     1.007825032070
           H          1.050849758940    -2.059717712027     0.746294409846     1.007825032070
           C         -0.810642299571    -1.615669091109    -0.230140809553    12.000000000000
           H         -0.516095388389    -2.188888552474    -1.114033565072     1.007825032070
           H         -1.382034953298    -2.298725954596     0.405216852519     1.007825032070
           C         -1.719051999480    -0.464831787958    -0.662038236508    12.000000000000
           H         -1.215734313684     0.144550032114    -1.418121685478     1.007825032070
           H         -2.606681515661    -0.877848398556    -1.150376878272     1.007825032070

  Running in c1 symmetry.

  Rotational constants: A =      0.10115  B =      0.02730  C =      0.02355 [cm^-1]
  Rotational constants: A =   3032.27346  B =    818.53792  C =    706.03088 [MHz]
  Nuclear repulsion =  393.053059681494346

  Charge       = 0
  Multiplicity = 1
  Electrons    = 66
  Nalpha       = 33
  Nbeta        = 33

  ==> Algorithm <==

  SCF Algorithm Type is DF.
  DIIS enabled.
  MOM disabled.
  Fractional occupation disabled.
  Guess Type is READ.
  Energy threshold   = 1.00e-10
  Density threshold  = 1.00e-10
  Integral threshold = 0.00e+00

  ==> Primary Basis <==

  Basis Set: AUG-CC-PVTZ
    Number of shells: 274
    Number of basis function: 782
    Number of Cartesian functions: 890
    Spherical Harmonics?: true
    Max angular momentum: 3

  ==> Pre-Iterations <==

   -------------------------------------------------------
    Irrep   Nso     Nmo     Nalpha   Nbeta   Ndocc  Nsocc
   -------------------------------------------------------
     A        782     782       0       0       0       0
   -------------------------------------------------------
    Total     782     782      33      33      33       0
   -------------------------------------------------------

  ==> Integral Setup <==

  ==> DFJK: Density-Fitted J/K Matrices <==

    J tasked:                  Yes
    K tasked:                  Yes
    wK tasked:                  No
    OpenMP threads:             12
    Integrals threads:          12
    Memory (MB):             21457
    Algorithm:                Core
    Integral Cache:           NONE
    Schwarz Cutoff:          1E-12
    Fitting Condition:       1E-12

   => Auxiliary Basis Set <=

  Basis Set: 
    Number of shells: 492
    Number of basis function: 1660
    Number of Cartesian functions: 2038
    Spherical Harmonics?: true
    Max angular momentum: 4

  Minimum eigenvalue in the overlap matrix is 2.3921617738E-06.
  Using Symmetric Orthogonalization.
  SCF Guess: Reading in previously saved MOs, projecting if necessary.

  Using orbitals from previous SCF, no projection.
  Recomputing DOCC and SOCC from number of alpha and beta electrons from previous calculation.
              A 
    DOCC [    33 ]

  ==> Iterations <==

                           Total Energy        Delta E     RMS |[F,P]|

   @DF-RHF iter   0:  -313.49657673882223   -3.13497e+02   5.79192e-05 
   @DF-RHF iter   1:  -313.54341954862196   -4.68428e-02   1.60329e-05 
   @DF-RHF iter   2:  -313.54350968822223   -9.01396e-05   8.30941e-06 DIIS
   @DF-RHF iter   3:  -313.54353164796839   -2.19597e-05   1.44743e-06 DIIS
   @DF-RHF iter   4:  -313.54353336777729   -1.71981e-06   3.55741e-07 DIIS
   @DF-RHF iter   5:  -313.54353344330264   -7.55253e-08   1.09280e-07 DIIS
   @DF-RHF iter   6:  -313.54353345008928   -6.78665e-09   1.96672e-08 DIIS
   @DF-RHF iter   7:  -313.54353345034701   -2.57728e-10   5.36575e-09 DIIS
   @DF-RHF iter   8:  -313.54353345036031   -1.33014e-11   1.38247e-09 DIIS
   @DF-RHF iter   9:  -313.54353345036225   -1.93268e-12   3.08511e-10 DIIS
   @DF-RHF iter  10:  -313.54353345036225    0.00000e+00   8.61445e-11 DIIS

  ==> Post-Iterations <==

    Orbital Energies (a.u.)
    -----------------------

    Doubly Occupied:                                                      

       1A    -11.212846     2A    -11.212364     3A    -11.211014  
       4A    -11.210143     5A    -11.209569     6A    -11.209396  
       7A    -11.207441     8A    -11.207364     9A     -1.095215  
      10A     -1.059529    11A     -1.010792    12A     -0.947510  
      13A     -0.882315    14A     -0.824682    15A     -0.795909  
      16A     -0.755645    17A     -0.649130    18A     -0.636148  
      19A     -0.599951    20A     -0.593329    21A     -0.577012  
      22A     -0.561141    23A     -0.543377    24A     -0.538897  
      25A     -0.507233    26A     -0.499505    27A     -0.492100  
      28A     -0.475412    29A     -0.466685    30A     -0.462105  
      31A     -0.443268    32A     -0.442718    33A     -0.435875  

    Virtual:                                                              

      34A      0.029007    35A      0.033005    36A      0.033582  
      37A      0.034327    38A      0.046573    39A      0.048240  
      40A      0.050075    41A      0.053030    42A      0.056919  
      43A      0.066370    44A      0.068232    45A      0.069809  
      46A      0.072718    47A      0.077861    48A      0.086458  
      49A      0.090274    50A      0.093436    51A      0.099575  
      52A      0.112372    53A      0.115374    54A      0.119425  
      55A      0.121715    56A      0.127587    57A      0.130185  
      58A      0.135900    59A      0.140463    60A      0.142049  
      61A      0.145344    62A      0.147687    63A      0.150479  
      64A      0.154462    65A      0.155792    66A      0.162364  
      67A      0.167663    68A      0.168159    69A      0.173945  
      70A      0.174671    71A      0.180547    72A      0.183845  
      73A      0.190419    74A      0.191841    75A      0.196739  
      76A      0.204089    77A      0.216348    78A      0.221849  
      79A      0.231694    80A      0.235711    81A      0.242571  
      82A      0.247855    83A      0.251530    84A      0.254967  
      85A      0.261938    86A      0.264270    87A      0.271722  
      88A      0.277516    89A      0.282960    90A      0.291739  
      91A      0.295930    92A      0.301715    93A      0.305058  
      94A      0.309996    95A      0.316741    96A      0.319538  
      97A      0.322596    98A      0.322741    99A      0.325291  
     100A      0.335110   101A      0.338580   102A      0.343084  
     103A      0.346225   104A      0.351781   105A      0.355605  
     106A      0.360184   107A      0.364227   108A      0.369847  
     109A      0.372113   110A      0.374370   111A      0.378303  
     112A      0.380348   113A      0.385202   114A      0.387836  
     115A      0.389858   116A      0.392085   117A      0.396789  
     118A      0.397870   119A      0.400767   120A      0.411755  
     121A      0.413742   122A      0.419630   123A      0.421282  
     124A      0.425699   125A      0.429063   126A      0.433607  
     127A      0.436178   128A      0.443313   129A      0.447397  
     130A      0.452056   131A      0.453837   132A      0.457868  
     133A      0.458951   134A      0.463363   135A      0.466137  
     136A      0.469701   137A      0.476218   138A      0.479997  
     139A      0.482709   140A      0.482801   141A      0.490024  
     142A      0.491133   143A      0.495206   144A      0.499798  
     145A      0.501749   146A      0.508297   147A      0.511450  
     148A      0.518886   149A      0.520281   150A      0.527009  
     151A      0.529687   152A      0.532396   153A      0.533556  
     154A      0.536117   155A      0.540242   156A      0.542457  
     157A      0.550179   158A      0.557479   159A      0.560408  
     160A      0.565992   161A      0.569650   162A      0.572209  
     163A      0.577284   164A      0.580956   165A      0.585142  
     166A      0.594158   167A      0.600845   168A      0.603414  
     169A      0.607563   170A      0.615713   171A      0.617183  
     172A      0.621094   173A      0.625069   174A      0.630156  
     175A      0.635012   176A      0.639306   177A      0.646790  
     178A      0.651301   179A      0.660041   180A      0.664379  
     181A      0.668873   182A      0.673278   183A      0.675434  
     184A      0.683873   185A      0.688759   186A      0.695774  
     187A      0.703126   188A      0.707561   189A      0.715002  
     190A      0.721605   191A      0.722583   192A      0.734509  
     193A      0.738809   194A      0.742452   195A      0.747621  
     196A      0.754033   197A      0.765001   198A      0.769171  
     199A      0.772948   200A      0.782735   201A      0.794268  
     202A      0.801351   203A      0.817081   204A      0.825608  
     205A      0.830901   206A      0.836711   207A      0.839869  
     208A      0.846853   209A      0.854217   210A      0.858754  
     211A      0.864404   212A      0.864908   213A      0.873187  
     214A      0.876037   215A      0.883630   216A      0.891740  
     217A      0.898827   218A      0.904904   219A      0.905618  
     220A      0.911399   221A      0.916325   222A      0.921824  
     223A      0.923420   224A      0.925321   225A      0.932044  
     226A      0.937836   227A      0.941704   228A      0.946640  
     229A      0.947723   230A      0.959341   231A      0.963754  
     232A      0.964680   233A      0.969287   234A      0.972585  
     235A      0.978090   236A      0.982534   237A      0.990710  
     238A      0.995452   239A      1.001200   240A      1.003970  
     241A      1.013924   242A      1.017239   243A      1.018039  
     244A      1.025463   245A      1.031312   246A      1.033542  
     247A      1.041232   248A      1.045019   249A      1.049497  
     250A      1.058544   251A      1.069490   252A      1.071946  
     253A      1.074305   254A      1.080740   255A      1.083776  
     256A      1.090802   257A      1.095085   258A      1.099629  
     259A      1.106290   260A      1.110453   261A      1.116037  
     262A      1.125470   263A      1.128486   264A      1.139578  
     265A      1.142202   266A      1.147547   267A      1.150959  
     268A      1.155702   269A      1.156530   270A      1.162144  
     271A      1.170743   272A      1.174815   273A      1.177924  
     274A      1.181906   275A      1.188099   276A      1.192673  
[...]
	 D(16,15,18,19)   =        -3.085605	    -176.792144
	 D(16,15,18,20)   =         1.183975	      67.836764
	 D(16,15,18,21)   =        -0.935400	     -53.594479
	 D(17,15,18,19)   =        -1.052279	     -60.291124
	 D(17,15,18,20)   =        -3.065884	    -175.662216
	 D(17,15,18,21)   =         1.097926	      62.906541
	 D(18,21,24,25)   =         1.144416	      65.570218
	 D(18,21,24,26)   =        -3.117793	    -178.636407
	 D(19,18,21,22)   =        -3.004491	    -172.144626
	 D(19,18,21,23)   =        -0.983966	     -56.377099
	 D(19,18,21,24)   =         1.146640	      65.697609
	 D(20,18,21,22)   =        -0.983581	     -56.355012
	 D(20,18,21,23)   =         1.036944	      59.412515
	 D(20,18,21,24)   =        -3.115636	    -178.512777
	 D(22,21,24,25)   =        -0.985853	     -56.485241
	 D(22,21,24,26)   =         1.035122	      59.308134
	 D(23,21,24,25)   =        -3.006472	    -172.258140
	 D(23,21,24,26)   =        -0.985496	     -56.464765
	 R(12,15)         =         6.871382	       3.636179

	Current energy   :      -314.9845146360

	Energy change for the previous step:
		Projected    :        -0.0000000000
		Actual       :        -0.0000000015

	Performing BFGS update.
	Previous computed or guess Hessian on step 1.
	Denominators (dg)(dq) or (dq)(dq) are very small.
	 Skipping Hessian update for step 12.
	Denominators (dg)(dq) or (dq)(dq) are very small.
	 Skipping Hessian update for step 11.
	Denominators (dg)(dq) or (dq)(dq) are very small.
	 Skipping Hessian update for step 10.
	Denominators (dg)(dq) or (dq)(dq) are very small.
	 Skipping Hessian update for step 9.
	Denominators (dg)(dq) or (dq)(dq) are very small.
	 Skipping Hessian update for step 8.
	Denominators (dg)(dq) or (dq)(dq) are very small.
	 Skipping Hessian update for step 7.
	Denominators (dg)(dq) or (dq)(dq) are very small.
	 Skipping Hessian update for step 6.
	Steps to be used in Hessian update: 5 4
	Taking RFO optimization step.
	Going to follow RFO solution 1.
	Using RFO vector 1.
	Norm of target step-size    0.00002
	Projected energy change by RFO approximation:         0.0000000000

	Back-transformation to cartesian coordinates...
	Successfully converged to displaced geometry.

	--- Internal Coordinate Step in ANG or DEG, aJ/ANG or AJ/DEG ---
	 ---------------------------------------------------------------------------
	   Coordinate                Previous        Force       Change         New 
	   ----------                --------       ------       ------       ------
	    1 R(1,2)          =      1.089735     0.000000     0.000000     1.089735
	    2 R(1,3)          =      1.090739    -0.000000    -0.000000     1.090739
	    3 R(1,4)          =      1.090726    -0.000000    -0.000000     1.090726
	    4 R(1,9)          =      1.523620     0.000000     0.000000     1.523620
	    5 R(5,6)          =      1.090907     0.000000     0.000000     1.090907
	    6 R(5,7)          =      1.089740     0.000000     0.000000     1.089740
	    7 R(5,8)          =      1.090681     0.000000     0.000000     1.090681
	    8 R(5,12)         =      1.523901     0.000000     0.000000     1.523901
	    9 R(9,10)         =      1.093445    -0.000001    -0.000000     1.093445
	   10 R(9,11)         =      1.093204    -0.000001    -0.000000     1.093203
	   11 R(9,15)         =      1.523624    -0.000000    -0.000000     1.523624
	   12 R(12,13)        =      1.092475    -0.000000    -0.000000     1.092475
	   13 R(12,14)        =      1.093952    -0.000000    -0.000000     1.093952
	   14 R(12,24)        =      1.523990    -0.000002    -0.000000     1.523990
	   15 R(15,16)        =      1.095520    -0.000001    -0.000000     1.095520
	   16 R(15,17)        =      1.094041    -0.000001    -0.000000     1.094040
	   17 R(15,18)        =      1.523661    -0.000003    -0.000001     1.523661
	   18 R(18,19)        =      1.093436    -0.000002    -0.000000     1.093435
	   19 R(18,20)        =      1.093827    -0.000001    -0.000000     1.093827
	   20 R(18,21)        =      1.528405    -0.000000    -0.000000     1.528405
	   21 R(21,22)        =      1.093821    -0.000001    -0.000000     1.093821
	   22 R(21,23)        =      1.093867    -0.000001    -0.000000     1.093867
	   23 R(21,24)        =      1.528112    -0.000000    -0.000000     1.528112
	   24 R(24,25)        =      1.093618    -0.000002    -0.000000     1.093618
	   25 R(24,26)        =      1.093962    -0.000000    -0.000000     1.093962
	   26 B(1,9,10)       =    109.749076    -0.000000    -0.000007   109.749068
	   27 B(1,9,11)       =    109.795559    -0.000000    -0.000008   109.795550
	   28 B(1,9,15)       =    112.480392    -0.000000    -0.000002   112.480390
	   29 B(2,1,3)        =    107.913284    -0.000000    -0.000008   107.913276
	   30 B(2,1,4)        =    107.913883    -0.000000    -0.000011   107.913872
	   31 B(2,1,9)        =    111.697447     0.000000     0.000027   111.697473
	   32 B(3,1,4)        =    107.695265    -0.000000    -0.000008   107.695257
	   33 B(3,1,9)        =    110.735182     0.000000     0.000000   110.735182
	   34 B(4,1,9)        =    110.731969     0.000000    -0.000001   110.731968
	   35 B(5,12,13)      =    109.349947     0.000000     0.000011   109.349957
	   36 B(5,12,14)      =    109.865578     0.000000     0.000001   109.865579
	   37 B(5,12,24)      =    112.033368    -0.000000    -0.000032   112.033335
	   38 B(6,5,7)        =    107.900326     0.000000     0.000001   107.900327
	   39 B(6,5,8)        =    107.669693    -0.000000    -0.000004   107.669688
	   40 B(6,5,12)       =    110.651683    -0.000000    -0.000003   110.651680
	   41 B(7,5,8)        =    107.969445    -0.000000    -0.000005   107.969440
	   42 B(7,5,12)       =    111.714619    -0.000000    -0.000007   111.714612
	   43 B(8,5,12)       =    110.781428     0.000000     0.000018   110.781446
	   44 B(9,15,16)      =    109.336609     0.000000    -0.000012   109.336597
	   45 B(9,15,17)      =    108.807412     0.000000     0.000022   108.807434
	   46 B(9,15,18)      =    112.740773    -0.000000    -0.000003   112.740770
	   47 B(10,9,11)      =    106.433605    -0.000000    -0.000012   106.433592
	   48 B(10,9,15)      =    109.044532     0.000000     0.000010   109.044542
	   49 B(11,9,15)      =    109.151314     0.000000     0.000020   109.151334
	   50 B(12,24,21)     =    113.800332     0.000000     0.000025   113.800357
	   51 B(12,24,25)     =    109.100531    -0.000000    -0.000027   109.100504
	   52 B(12,24,26)     =    108.772270    -0.000000    -0.000004   108.772266
	   53 B(13,12,14)     =    106.458258    -0.000000    -0.000004   106.458254
	   54 B(13,12,24)     =    109.809282     0.000000     0.000029   109.809311
	   55 B(14,12,24)     =    109.168339     0.000000    -0.000003   109.168336
	   56 B(15,18,19)     =    109.142591    -0.000000    -0.000025   109.142566
	   57 B(15,18,20)     =    108.833084     0.000000     0.000015   108.833099
	   58 B(15,18,21)     =    113.739176     0.000000     0.000017   113.739193
	   59 B(16,15,17)     =    106.390649    -0.000000    -0.000013   106.390636
	   60 B(16,15,18)     =    109.362997    -0.000000    -0.000026   109.362972
	   61 B(17,15,18)     =    110.000548     0.000000     0.000030   110.000578
	   62 B(18,21,22)     =    108.815525     0.000000     0.000012   108.815537
	   63 B(18,21,23)     =    109.006106    -0.000000    -0.000028   109.006078
	   64 B(18,21,24)     =    114.395398     0.000000     0.000011   114.395409
	   65 B(19,18,20)     =    106.096681     0.000000    -0.000000   106.096681
	   66 B(19,18,21)     =    109.966797    -0.000000    -0.000009   109.966789
	   67 B(20,18,21)     =    108.774237    -0.000000     0.000001   108.774238
	   68 B(21,24,25)     =    109.993235     0.000000     0.000013   109.993247
	   69 B(21,24,26)     =    108.807926    -0.000000     0.000005   108.807932
	   70 B(22,21,23)     =    106.500386     0.000000     0.000007   106.500393
	   71 B(22,21,24)     =    109.002919    -0.000000    -0.000031   109.002889
	   72 B(23,21,24)     =    108.828521     0.000000     0.000028   108.828549
	   73 B(25,24,26)     =    106.071654     0.000000    -0.000014   106.071640
	   74 D(1,9,15,16)    =     58.795861    -0.000000    -0.000265    58.795596
	   75 D(1,9,15,17)    =    -57.017025    -0.000000    -0.000256   -57.017281
	   76 D(1,9,15,18)    =   -179.328771    -0.000000    -0.000308  -179.329079
	   77 D(2,1,9,10)     =     58.476874    -0.000000    -0.000032    58.476842
	   78 D(2,1,9,11)     =    -58.182478     0.000000    -0.000007   -58.182485
	   79 D(2,1,9,15)     =   -179.937431    -0.000000    -0.000026  -179.937457
	   80 D(3,1,9,10)     =    -61.827266    -0.000000    -0.000040   -61.827306
	   81 D(3,1,9,11)     =   -178.486618     0.000000    -0.000015  -178.486633
	   82 D(3,1,9,15)     =     59.758428    -0.000000    -0.000034    59.758395
	   83 D(4,1,9,10)     =    178.779583    -0.000000    -0.000029   178.779554
	   84 D(4,1,9,11)     =     62.120231     0.000000    -0.000005    62.120226
	   85 D(4,1,9,15)     =    -59.634723    -0.000000    -0.000023   -59.634746
	   86 D(5,12,24,21)   =   -175.652929     0.000000    -0.000037  -175.652966
	   87 D(5,12,24,25)   =     61.103766    -0.000000    -0.000050    61.103715
	   88 D(5,12,24,26)   =    -54.181709     0.000000    -0.000017   -54.181726
	   89 D(6,5,12,13)    =     62.640829    -0.000000    -0.000101    62.640728
	   90 D(6,5,12,14)    =    179.138590     0.000000    -0.000100   179.138490
	   91 D(6,5,12,24)    =    -59.337619    -0.000000    -0.000124   -59.337744
	   92 D(7,5,12,13)    =    -57.601487     0.000000    -0.000096   -57.601583
	   93 D(7,5,12,14)    =     58.896273     0.000000    -0.000095    58.896179
	   94 D(7,5,12,24)    =   -179.579936    -0.000000    -0.000119  -179.580055
	   95 D(8,5,12,13)    =   -178.020054    -0.000000    -0.000097  -178.020151
	   96 D(8,5,12,14)    =    -61.522293     0.000000    -0.000096   -61.522389
	   97 D(8,5,12,24)    =     60.001497    -0.000000    -0.000120    60.001377
	   98 D(9,15,18,19)   =     61.347394     0.000000    -0.000002    61.347392
	   99 D(9,15,18,20)   =    -54.023698     0.000000     0.000004   -54.023695
	  100 D(9,15,18,21)   =   -175.454941     0.000000    -0.000020  -175.454961
	  101 D(10,9,15,16)   =   -179.218133    -0.000000    -0.000269  -179.218402
	  102 D(10,9,15,17)   =     64.968981    -0.000000    -0.000259    64.968722
	  103 D(10,9,15,18)   =    -57.342765    -0.000000    -0.000311   -57.343076
	  104 D(11,9,15,16)   =    -63.324540     0.000000    -0.000267   -63.324807
	  105 D(11,9,15,17)   =   -179.137426     0.000000    -0.000258  -179.137684
	  106 D(11,9,15,18)   =     58.550828    -0.000000    -0.000310    58.550518
	  107 D(12,24,21,18)  =    -57.185014     0.000000     0.000048   -57.184965
	  108 D(12,24,21,22)  =   -179.240472    -0.000000     0.000048  -179.240424
	  109 D(12,24,21,23)  =     64.986628     0.000000     0.000041    64.986670
	  110 D(13,12,24,21)  =     62.631643     0.000000    -0.000049    62.631594
	  111 D(13,12,24,25)  =    -60.611662    -0.000000    -0.000063   -60.611725
	  112 D(13,12,24,26)  =   -175.897137     0.000000    -0.000029  -175.897166
	  113 D(14,12,24,21)  =    -53.729356    -0.000000    -0.000059   -53.729414
	  114 D(14,12,24,25)  =   -176.972661    -0.000000    -0.000072  -176.972733
	  115 D(14,12,24,26)  =     67.741865     0.000000    -0.000039    67.741826
	  116 D(15,18,21,22)  =     65.108996     0.000000     0.000042    65.109038
	  117 D(15,18,21,23)  =   -179.123477    -0.000000     0.000041  -179.123436
	  118 D(15,18,21,24)  =    -57.048768     0.000000     0.000065   -57.048703
	  119 D(16,15,18,19)  =   -176.792144    -0.000000    -0.000036  -176.792181
	  120 D(16,15,18,20)  =     67.836764     0.000000    -0.000031    67.836733
	  121 D(16,15,18,21)  =    -53.594479    -0.000000    -0.000054   -53.594534
	  122 D(17,15,18,19)  =    -60.291124    -0.000000    -0.000050   -60.291174
	  123 D(17,15,18,20)  =   -175.662216    -0.000000    -0.000044  -175.662261
	  124 D(17,15,18,21)  =     62.906541    -0.000000    -0.000067    62.906473
	  125 D(18,21,24,25)  =     65.570218     0.000000     0.000041    65.570259
	  126 D(18,21,24,26)  =   -178.636407     0.000000     0.000034  -178.636373
	  127 D(19,18,21,22)  =   -172.144626    -0.000000     0.000015  -172.144611
	  128 D(19,18,21,23)  =    -56.377099    -0.000000     0.000015   -56.377085
	  129 D(19,18,21,24)  =     65.697609     0.000000     0.000038    65.697648
	  130 D(20,18,21,22)  =    -56.355012    -0.000000     0.000010   -56.355001
	  131 D(20,18,21,23)  =     59.412515    -0.000000     0.000010    59.412525
	  132 D(20,18,21,24)  =   -178.512777     0.000000     0.000034  -178.512743
	  133 D(22,21,24,25)  =    -56.485241    -0.000000     0.000041   -56.485200
	  134 D(22,21,24,26)  =     59.308134    -0.000000     0.000034    59.308168
	  135 D(23,21,24,25)  =   -172.258140    -0.000000     0.000034  -172.258106
	  136 D(23,21,24,26)  =    -56.464765    -0.000000     0.000027   -56.464738
	  137 R(12,15)        =      3.636179    -0.000000    -0.000002     3.636177
	 ---------------------------------------------------------------------------

  ==> Convergence Check <==

  Measures of convergence in internal coordinates in au.
  Criteria marked as inactive (o), active & met (*), and active & unmet ( ).
  ---------------------------------------------------------------------------------------------
   Step     Total Energy     Delta E     MAX Force     RMS Force      MAX Disp      RMS Disp   
  ---------------------------------------------------------------------------------------------
    Convergence Criteria             o    2.00e-06 *    1.00e-06 *    6.00e-06 *    4.00e-06 *
  ---------------------------------------------------------------------------------------------
     13    -314.98451464   -1.47e-09 o    3.47e-07 *    5.97e-08 *    5.44e-06 *    1.44e-06 *  ~
  ---------------------------------------------------------------------------------------------


  **** Optimization is complete! (in 13 steps) ****

  ==> Optimization Summary <==

  Measures of convergence in internal coordinates in au.
  --------------------------------------------------------------------------------------------------------------- ~
   Step         Total Energy             Delta E       MAX Force       RMS Force        MAX Disp        RMS Disp  ~
  --------------------------------------------------------------------------------------------------------------- ~
      1    -314.984237758787   -314.984237758787      0.00419032      0.00102583      0.05873669      0.00740525  ~
      2    -314.984496805946     -0.000259047158      0.00037128      0.00011412      0.03307663      0.00516100  ~
      3    -314.984509916331     -0.000013110385      0.00031471      0.00007287      0.02380472      0.00266462  ~
      4    -314.984514146649     -0.000004230318      0.00009839      0.00002677      0.00667418      0.00105168  ~
      5    -314.984514558388     -0.000000411738      0.00004225      0.00001077      0.00181039      0.00053485  ~
      6    -314.984514603377     -0.000000044990      0.00002409      0.00000672      0.00065648      0.00021397  ~
      7    -314.984514633654     -0.000000030277      0.00000409      0.00000113      0.00009536      0.00002230  ~
      8    -314.984514634110     -0.000000000455      0.00000112      0.00000024      0.00003040      0.00000562  ~
      9    -314.984514632584      0.000000001526      0.00000146      0.00000029      0.00005302      0.00000696  ~
     10    -314.984514634827     -0.000000002243      0.00000198      0.00000042      0.00004436      0.00001188  ~
     11    -314.984514633966      0.000000000861      0.00000154      0.00000032      0.00003309      0.00000860  ~
     12    -314.984514634537     -0.000000000571      0.00000160      0.00000036      0.00004068      0.00000794  ~
     13    -314.984514636008     -0.000000001471      0.00000035      0.00000006      0.00000544      0.00000144  ~
  --------------------------------------------------------------------------------------------------------------- ~

	Writing optimization data to binary file.
	Final energy is   -314.9845146360080
	Final (previous) structure:
	Cartesian Geometry (in Angstrom)
	    C     3.4752989666   1.1432357289  -0.3276001719
	    H     4.4030540530   1.3733637406   0.1956911991
	    H     2.9366398207   2.0789145432  -0.4827210246
	    H     3.7339059268   0.7429858139  -1.3087245981
	    C    -3.1729743180   1.4937976397   0.0421766615
	    H    -2.7231692755   2.1383149775  -0.7143620222
	    H    -3.4953165229   2.1241979533   0.8705628550
	    H    -4.0600915609   1.0363873892  -0.3975765600
	    C     2.6203645914   0.1513580685   0.4512990150
	    H     2.3888516280   0.5590705406   1.4391224762
	    H     3.1840595070  -0.7697599909   0.6212506902
	    C    -2.1837955769   0.4274669850   0.4968604274
	    H    -1.3219165223   0.9090917998   0.9645184835
	    H    -2.6423702832  -0.2013900669   1.2656120434
	    C     1.3185116569  -0.1843713895  -0.2655651975
	    H     1.5453072570  -0.6064098900  -1.2507610460
	    H     0.7662963063   0.7425866090  -0.4464847851
	    C     0.4513284100  -1.1635069952   0.5159915418
	    H     0.1797138171  -0.7150133352   1.4755124206
	    H     1.0460669416  -2.0503256370   0.7532583016
	    C    -0.8083478199  -1.6013476603  -0.2306891389
	    H    -0.5132355965  -2.1704162312  -1.1169816833
	    H    -1.3780537879  -2.2869713495   0.4032666455
	    C    -1.7202334119  -0.4520626983  -0.6581652160
	    H    -1.2139078883   0.1704780155  -1.4011844433
	    H    -2.5995130165  -0.8672178129  -1.1594292106
	Saving final (previous) structure.
			--------------------------
			 OPTKING Finished Execution 
			--------------------------

    Final optimized geometry and variables:
    Molecular point group: c1
    Full point group: C1

    Geometry (in Angstrom), charge = 0, multiplicity = 1:

    C            3.475298966606     1.143235728851    -0.327600171912
    H            4.403054052991     1.373363740567     0.195691199094
    H            2.936639820697     2.078914543165    -0.482721024641
    H            3.733905926766     0.742985813892    -1.308724598092
    C           -3.172974318016     1.493797639658     0.042176661531
    H           -2.723169275495     2.138314977508    -0.714362022164
    H           -3.495316522922     2.124197953267     0.870562855017
    H           -4.060091560866     1.036387389177    -0.397576560044
    C            2.620364591413     0.151358068462     0.451299015032
    H            2.388851628034     0.559070540591     1.439122476204
    H            3.184059506982    -0.769759990906     0.621250690163
    C           -2.183795576890     0.427466985002     0.496860427449
    H           -1.321916522263     0.909091799764     0.964518483460
    H           -2.642370283217    -0.201390066860     1.265612043423
    C            1.318511656861    -0.184371389457    -0.265565197493
    H            1.545307257007    -0.606409889970    -1.250761046010
    H            0.766296306338     0.742586608991    -0.446484785103
    C            0.451328410048    -1.163506995234     0.515991541847
    H            0.179713817122    -0.715013335196     1.475512420565
    H            1.046066941642    -2.050325637044     0.753258301583
    C           -0.808347819874    -1.601347660316    -0.230689138883
    H           -0.513235596482    -2.170416231229    -1.116981683346
    H           -1.378053787895    -2.286971349544     0.403266645450
    C           -1.720233411938    -0.452062698292    -0.658165215955
    H           -1.213907888315     0.170478015481    -1.401184443260
    H           -2.599513016507    -0.867217812867    -1.159429210641

	Cleaning optimization helper files.

*** Psi4 exiting successfully. Buy a developer a beer!
