    -----------------------------------------------------------------------
          Psi4: An Open-Source Ab Initio Electronic Structure Package
                              Psi4 1.0.0 Driver

                          Git: Rev {master} 6a9a71b dirty

    J. M. Turney, A. C. Simmonett, R. M. Parrish, E. G. Hohenstein,
    F. A. Evangelista, J. T. Fermann, B. J. Mintz, L. A. Burns, J. J. Wilke,
    M. L. Abrams, N. J. Russ, M. L. Leininger, C. L. Janssen, E. T. Seidl,
    W. D. Allen, H. F. Schaefer, R. A. King, E. F. Valeev, C. D. Sherrill,
    and T. D. Crawford, WIREs Comput. Mol. Sci. 2, 556-565 (2012)
    (doi: 10.1002/wcms.93)

                         Additional Contributions by
    A. E. DePrince, U. Bozkaya, A. Yu. Sokolov, D. G. A. Smith, R. Di Remigio,
    R. M. Richard, J. F. Gonthier, H. R. McAlexander, M. Saitow, and
    B. P. Pritchard
    -----------------------------------------------------------------------


    Psi4 started on: Tue Sep 20 22:40:02 2016

    Process ID:  31691
    PSI4DATADIR: /usr/local/hpc5/psi4conda/share/psi4
    Memory level set to 256.000 MB

  ==> Input File <==

--------------------------------------------------------------------------
memory 60 Gb

molecule molecule_40_psi {
0 1
C            2.395410310571     1.711471119335    -0.042992148341
H            2.823326130868     2.403375941757    -0.768818346518
H            2.811210796952     1.955454917275     0.935549436104
H            1.322737672613     1.891792519086     0.001112075504
C           -3.105256588541     1.016721085764     0.577906860534
H           -3.950141100820     1.668936260124     0.358192226669
H           -2.253533492788     1.651192395170     0.820388008991
H           -3.353069582791     0.435858281063     1.468058498198
C            2.713253272096     0.262686746640    -0.404211617995
H            3.798527480389     0.148444018925    -0.435193033784
H            2.355992129886     0.042772002486    -1.414594614539
C           -2.800445491288     0.094329006563    -0.597643455792
H           -3.708799481689    -0.444330334147    -0.876569210160
H           -2.514649125138     0.691665718113    -1.467915319528
C            2.121360382977    -0.762218288049     0.573466589832
H            2.040434494427    -0.306904192874     1.565709541858
H            2.809668955438    -1.603747427438     0.678485979778
C            0.759859658077    -1.318032623112     0.157686811744
H            0.437513706926    -2.057013024600     0.897675968763
H            0.873196851090    -1.858744962895    -0.787606660611
C           -0.341887786232    -0.276704310930    -0.002146647167
H           -0.402815768515     0.322907783970     0.910156937025
H           -0.090087089853     0.410306607927    -0.815557752399
C           -1.694051273880    -0.915092240270    -0.300849040286
H           -1.582121559970    -1.588474806679    -1.155699768127
H           -1.991806006674    -1.538825731085     0.548404372115
}

set globals {
  reference rhf
  g_convergence gau_verytight
  basis aug-cc-pvtz
  freeze_core true
  scf_type df
  mp_type df
}
optimize('mp2')
--------------------------------------------------------------------------
/usr/local/hpc5/psi4conda/lib/python2.7/site-packages/v2rdm_casscf/v2rdm_casscf.so loaded.

  Memory set to  60.000 GiB by Python script.
gradient() will perform analytic gradient computation.

*** tstart() called on wr29
*** at Tue Sep 20 22:40:03 2016


         ---------------------------------------------------------
                                   SCF
            by Justin Turney, Rob Parrish, and Andy Simmonett
                              RHF Reference
                       12 Threads,  60000 MiB Core
         ---------------------------------------------------------

  ==> Geometry <==

    Molecular point group: c1
    Full point group: C1

    Geometry (in Angstrom), charge = 0, multiplicity = 1:

       Center              X                  Y                   Z               Mass       
    ------------   -----------------  -----------------  -----------------  -----------------
           C          2.395410310571     1.711471119335    -0.042992148341    12.000000000000
           H          2.823326130868     2.403375941757    -0.768818346518     1.007825032070
           H          2.811210796952     1.955454917275     0.935549436104     1.007825032070
           H          1.322737672613     1.891792519086     0.001112075504     1.007825032070
           C         -3.105256588541     1.016721085764     0.577906860534    12.000000000000
           H         -3.950141100820     1.668936260124     0.358192226669     1.007825032070
           H         -2.253533492788     1.651192395170     0.820388008991     1.007825032070
           H         -3.353069582791     0.435858281063     1.468058498198     1.007825032070
           C          2.713253272096     0.262686746640    -0.404211617995    12.000000000000
           H          3.798527480389     0.148444018925    -0.435193033784     1.007825032070
           H          2.355992129886     0.042772002486    -1.414594614539     1.007825032070
           C         -2.800445491288     0.094329006563    -0.597643455792    12.000000000000
           H         -3.708799481689    -0.444330334147    -0.876569210160     1.007825032070
           H         -2.514649125138     0.691665718113    -1.467915319528     1.007825032070
           C          2.121360382977    -0.762218288049     0.573466589832    12.000000000000
           H          2.040434494427    -0.306904192874     1.565709541858     1.007825032070
           H          2.809668955438    -1.603747427438     0.678485979778     1.007825032070
           C          0.759859658077    -1.318032623112     0.157686811744    12.000000000000
           H          0.437513706926    -2.057013024600     0.897675968763     1.007825032070
           H          0.873196851090    -1.858744962895    -0.787606660611     1.007825032070
           C         -0.341887786232    -0.276704310930    -0.002146647167    12.000000000000
           H         -0.402815768515     0.322907783970     0.910156937025     1.007825032070
           H         -0.090087089853     0.410306607927    -0.815557752399     1.007825032070
           C         -1.694051273880    -0.915092240270    -0.300849040286    12.000000000000
           H         -1.582121559970    -1.588474806679    -1.155699768127     1.007825032070
           H         -1.991806006674    -1.538825731085     0.548404372115     1.007825032070

  Running in c1 symmetry.

  Rotational constants: A =      0.10859  B =      0.02778  C =      0.02420 [cm^-1]
  Rotational constants: A =   3255.48122  B =    832.94880  C =    725.47835 [MHz]
  Nuclear repulsion =  394.513140189443448

  Charge       = 0
  Multiplicity = 1
  Electrons    = 66
  Nalpha       = 33
  Nbeta        = 33

  ==> Algorithm <==

  SCF Algorithm Type is DF.
  DIIS enabled.
  MOM disabled.
  Fractional occupation disabled.
  Guess Type is SAD.
  Energy threshold   = 1.00e-10
  Density threshold  = 1.00e-10
  Integral threshold = 0.00e+00

  ==> Primary Basis <==

  Basis Set: AUG-CC-PVTZ
    Number of shells: 274
    Number of basis function: 782
    Number of Cartesian functions: 890
    Spherical Harmonics?: true
    Max angular momentum: 3

  ==> Pre-Iterations <==

   -------------------------------------------------------
    Irrep   Nso     Nmo     Nalpha   Nbeta   Ndocc  Nsocc
   -------------------------------------------------------
     A        782     782       0       0       0       0
   -------------------------------------------------------
    Total     782     782      33      33      33       0
   -------------------------------------------------------

  ==> Integral Setup <==

  ==> DFJK: Density-Fitted J/K Matrices <==

    J tasked:                  Yes
    K tasked:                  Yes
    wK tasked:                  No
    OpenMP threads:             12
    Integrals threads:          12
    Memory (MB):             42915
    Algorithm:                Core
    Integral Cache:           NONE
    Schwarz Cutoff:          1E-12
    Fitting Condition:       1E-12

   => Auxiliary Basis Set <=

  Basis Set: 
    Number of shells: 492
    Number of basis function: 1660
    Number of Cartesian functions: 2038
    Spherical Harmonics?: true
    Max angular momentum: 4

  Minimum eigenvalue in the overlap matrix is 2.2352530398E-06.
  Using Symmetric Orthogonalization.
  SCF Guess: Superposition of Atomic Densities via on-the-fly atomic UHF.

  ==> Iterations <==

                           Total Energy        Delta E     RMS |[F,P]|

   @DF-RHF iter   0:  -316.98698278895438   -3.16987e+02   7.01419e-03 
   @DF-RHF iter   1:  -313.28428361396823    3.70270e+00   7.50986e-04 
   @DF-RHF iter   2:  -313.50162966268567   -2.17346e-01   2.96923e-04 DIIS
   @DF-RHF iter   3:  -313.53336829129285   -3.17386e-02   1.03435e-04 DIIS
   @DF-RHF iter   4:  -313.53881133821233   -5.44305e-03   1.55187e-05 DIIS
   @DF-RHF iter   5:  -313.53897843611333   -1.67098e-04   4.39294e-06 DIIS
   @DF-RHF iter   6:  -313.53898912414456   -1.06880e-05   1.36390e-06 DIIS
   @DF-RHF iter   7:  -313.53899017924289   -1.05510e-06   2.53632e-07 DIIS
   @DF-RHF iter   8:  -313.53899022859753   -4.93546e-08   6.44292e-08 DIIS
   @DF-RHF iter   9:  -313.53899023145584   -2.85831e-09   2.18052e-08 DIIS
   @DF-RHF iter  10:  -313.53899023173972   -2.83876e-10   6.38058e-09 DIIS
   @DF-RHF iter  11:  -313.53899023176655   -2.68301e-11   1.51624e-09 DIIS
   @DF-RHF iter  12:  -313.53899023176700   -4.54747e-13   4.18528e-10 DIIS
   @DF-RHF iter  13:  -313.53899023176837   -1.36424e-12   1.15293e-10 DIIS
   @DF-RHF iter  14:  -313.53899023176825    1.13687e-13   2.94445e-11 DIIS

  ==> Post-Iterations <==

    Orbital Energies (a.u.)
    -----------------------

    Doubly Occupied:                                                      

       1A    -11.213002     2A    -11.212801     3A    -11.210913  
       4A    -11.210430     5A    -11.210267     6A    -11.209104  
       7A    -11.206817     8A    -11.205905     9A     -1.093781  
      10A     -1.060083    11A     -1.006940    12A     -0.948914  
      13A     -0.886300    14A     -0.828011    15A     -0.778090  
      16A     -0.768349    17A     -0.642987    18A     -0.626413  
      19A     -0.614116    20A     -0.595672    21A     -0.581343  
      22A     -0.558985    23A     -0.539475    24A     -0.533515  
      25A     -0.511454    26A     -0.503669    27A     -0.488424  
      28A     -0.473957    29A     -0.464166    30A     -0.462104  
      31A     -0.451127    32A     -0.440331    33A     -0.429071  

    Virtual:                                                              

      34A      0.029064    35A      0.031986    36A      0.034422  
      37A      0.035349    38A      0.046354    39A      0.047778  
      40A      0.049968    41A      0.054161    42A      0.055035  
      43A      0.067471    44A      0.068257    45A      0.070758  
      46A      0.073416    47A      0.076245    48A      0.084133  
      49A      0.095027    50A      0.099146    51A      0.101770  
      52A      0.111745    53A      0.113645    54A      0.118197  
      55A      0.122412    56A      0.127109    57A      0.133102  
      58A      0.134885    59A      0.136844    60A      0.141869  
      61A      0.144754    62A      0.148276    63A      0.151310  
      64A      0.154778    65A      0.161044    66A      0.162052  
      67A      0.165022    68A      0.169915    69A      0.171258  
      70A      0.174717    71A      0.175257    72A      0.182731  
      73A      0.192164    74A      0.194036    75A      0.198435  
      76A      0.199823    77A      0.213850    78A      0.217160  
      79A      0.221736    80A      0.228046    81A      0.236972  
      82A      0.246782    83A      0.251854    84A      0.256511  
      85A      0.266775    86A      0.269602    87A      0.274879  
      88A      0.285615    89A      0.295177    90A      0.296856  
      91A      0.299007    92A      0.305716    93A      0.307835  
      94A      0.312489    95A      0.313462    96A      0.322994  
      97A      0.327094    98A      0.329975    99A      0.333679  
     100A      0.337147   101A      0.342152   102A      0.346106  
     103A      0.347421   104A      0.353072   105A      0.357301  
     106A      0.359479   107A      0.363926   108A      0.367618  
     109A      0.370475   110A      0.373342   111A      0.374912  
     112A      0.378365   113A      0.382232   114A      0.388649  
     115A      0.392266   116A      0.393910   117A      0.394682  
     118A      0.399767   119A      0.400258   120A      0.407142  
     121A      0.414746   122A      0.416758   123A      0.424619  
     124A      0.430015   125A      0.432887   126A      0.433720  
     127A      0.439050   128A      0.444568   129A      0.448886  
     130A      0.454433   131A      0.455024   132A      0.458483  
     133A      0.461933   134A      0.462871   135A      0.468131  
     136A      0.472958   137A      0.474061   138A      0.478128  
     139A      0.483778   140A      0.485128   141A      0.489424  
     142A      0.495948   143A      0.500071   144A      0.501217  
     145A      0.506718   146A      0.510276   147A      0.512963  
     148A      0.518490   149A      0.524226   150A      0.528882  
     151A      0.531138   152A      0.534057   153A      0.541223  
     154A      0.543749   155A      0.546165   156A      0.551939  
     157A      0.553790   158A      0.560678   159A      0.565932  
     160A      0.571747   161A      0.577346   162A      0.578865  
     163A      0.584627   164A      0.586571   165A      0.589629  
     166A      0.601861   167A      0.607486   168A      0.609327  
     169A      0.611906   170A      0.617078   171A      0.619277  
     172A      0.631807   173A      0.636147   174A      0.636193  
     175A      0.646338   176A      0.647976   177A      0.649065  
     178A      0.652528   179A      0.659130   180A      0.663812  
     181A      0.665803   182A      0.674015   183A      0.676371  
     184A      0.685075   185A      0.690692   186A      0.695379  
     187A      0.701414   188A      0.704416   189A      0.713854  
     190A      0.715043   191A      0.721334   192A      0.734848  
     193A      0.741218   194A      0.742005   195A      0.748782  
     196A      0.754083   197A      0.764083   198A      0.769042  
     199A      0.777398   200A      0.781483   201A      0.793021  
     202A      0.808541   203A      0.818040   204A      0.825841  
     205A      0.833753   206A      0.839662   207A      0.844559  
     208A      0.848337   209A      0.858847   210A      0.860161  
     211A      0.863282   212A      0.869913   213A      0.878127  
     214A      0.883900   215A      0.886758   216A      0.891335  
     217A      0.892678   218A      0.897948   219A      0.901482  
     220A      0.913636   221A      0.916376   222A      0.918080  
     223A      0.925599   224A      0.931042   225A      0.936035  
     226A      0.941725   227A      0.945323   228A      0.950076  
     229A      0.955847   230A      0.957358   231A      0.963789  
     232A      0.971160   233A      0.975621   234A      0.978307  
     235A      0.985093   236A      0.989294   237A      0.991669  
     238A      1.002640   239A      1.004778   240A      1.009832  
     241A      1.017555   242A      1.023133   243A      1.025948  
     244A      1.031426   245A      1.033232   246A      1.041479  
     247A      1.045909   248A      1.049465   249A      1.060646  
     250A      1.061847   251A      1.070427   252A      1.078598  
     253A      1.081415   254A      1.083135   255A      1.091683  
     256A      1.101887   257A      1.104220   258A      1.108558  
     259A      1.114022   260A      1.115899   261A      1.121478  
     262A      1.127623   263A      1.129103   264A      1.135158  
     265A      1.139471   266A      1.145968   267A      1.155147  
     268A      1.158757   269A      1.163927   270A      1.170136  
     271A      1.176270   272A      1.180494   273A      1.187021  
     274A      1.190047   275A      1.200310   276A      1.204373  
     277A      1.207578   278A      1.212066   279A      1.222315  
     280A      1.223799   281A      1.228787   282A      1.232140  
     283A      1.236229   284A      1.242990   285A      1.249118  
     286A      1.255900   287A      1.259943   288A      1.265099  
     289A      1.273268   290A      1.275365   291A      1.283381  
     292A      1.288378   293A      1.297961   294A      1.298832  
     295A      1.302366   296A      1.310847   297A      1.321123  
     298A      1.325505   299A      1.334726   300A      1.338979  
     301A      1.340860   302A      1.346897   303A      1.349558  
     304A      1.364239   305A      1.365760   306A      1.371131  
     307A      1.374999   308A      1.386230   309A      1.393132  
     310A      1.395986   311A      1.406596   312A      1.408066  
     313A      1.414152   314A      1.418530   315A      1.425651  
     316A      1.432773   317A      1.438247   318A      1.446702  
     319A      1.457853   320A      1.459895   321A      1.476573  
     322A      1.482512   323A      1.485865   324A      1.493321  
     325A      1.508405   326A      1.513671   327A      1.521063  
     328A      1.536085   329A      1.544243   330A      1.552676  
     331A      1.555223   332A      1.561824   333A      1.571964  
     334A      1.575446   335A      1.586258   336A      1.587434  
     337A      1.596156   338A      1.607338   339A      1.613355  
     340A      1.624224   341A      1.629771   342A      1.631962  
     343A      1.637359   344A      1.638755   345A      1.651641  
     346A      1.660365   347A      1.670697   348A      1.678600  
     349A      1.683101   350A      1.687280   351A      1.695470  
     352A      1.700342   353A      1.703380   354A      1.708498  
     355A      1.714006   356A      1.720273   357A      1.726315  
     358A      1.728778   359A      1.731607   360A      1.739856  
     361A      1.748963   362A      1.751727   363A      1.758709  
     364A      1.770290   365A      1.773526   366A      1.778571  
     367A      1.784305   368A      1.789565   369A      1.798726  
     370A      1.800826   371A      1.803024   372A      1.807726  
     373A      1.817492   374A      1.820015   375A      1.830653  
     376A      1.832852   377A      1.838245   378A      1.849516  
     379A      1.851069   380A      1.863061   381A      1.871317  
     382A      1.878688   383A      1.880253   384A      1.886170  
     385A      1.889044   386A      1.900776   387A      1.906986  
     388A      1.910359   389A      1.922959   390A      1.932868  
     391A      1.935263   392A      1.937544   393A      1.950916  
     394A      1.960163   395A      1.961185   396A      1.974044  
     397A      1.975842   398A      1.986493   399A      1.993396  
     400A      2.001922   401A      2.006917   402A      2.010790  
     403A      2.017633   404A      2.019486   405A      2.037612  
     406A      2.044875   407A      2.049903   408A      2.054240  
     409A      2.065191   410A      2.066802   411A      2.073953  
     412A      2.079907   413A      2.086195   414A      2.091439  
     415A      2.099741   416A      2.106291   417A      2.113626  
     418A      2.124727   419A      2.133580   420A      2.135977  
     421A      2.143227   422A      2.149189   423A      2.159579  
     424A      2.166040   425A      2.178331   426A      2.188377  
     427A      2.193583   428A      2.200525   429A      2.216594  
     430A      2.220618   431A      2.236884   432A      2.238949  
     433A      2.244443   434A      2.252705   435A      2.269803  
     436A      2.274875   437A      2.292650   438A      2.302772  
     439A      2.312453   440A      2.319552   441A      2.329035  
     442A      2.334308   443A      2.335468   444A      2.350465  
     445A      2.356374   446A      2.360903   447A      2.369068  
     448A      2.379464   449A      2.383978   450A      2.387506  
     451A      2.398753   452A      2.412553   453A      2.418817  
     454A      2.423228   455A      2.441788   456A      2.443302  
     457A      2.466778   458A      2.469442   459A      2.485982  
     460A      2.495138   461A      2.501486   462A      2.519108  
     463A      2.531189   464A      2.538659   465A      2.540263  
     466A      2.555299   467A      2.559820   468A      2.570104  
     469A      2.588501   470A      2.596430   471A      2.607541  
     472A      2.617355   473A      2.622777   474A      2.649152  
     475A      2.651261   476A      2.656699   477A      2.685790  
     478A      2.708000   479A      2.748079   480A      2.766170  
     481A      2.783724   482A      2.843868   483A      2.849171  
     484A      2.865438   485A      2.897419   486A      2.971834  
     487A      2.988641   488A      3.028930   489A      3.045586  
     490A      3.125704   491A      3.165535   492A      3.202486  
     493A      3.270793   494A      3.324694   495A      3.338210  
     496A      3.405942   497A      3.425976   498A      3.441062  
     499A      3.454291   500A      3.467972   501A      3.478506  
     502A      3.494157   503A      3.509049   504A      3.533099  
     505A      3.539288   506A      3.545394   507A      3.565717  
     508A      3.577664   509A      3.583585   510A      3.603601  
     511A      3.605524   512A      3.622932   513A      3.631913  
     514A      3.638962   515A      3.657484   516A      3.663166  
     517A      3.673308   518A      3.683972   519A      3.687873  
     520A      3.693509   521A      3.705574   522A      3.720729  
     523A      3.724527   524A      3.739922   525A      3.750938  
     526A      3.752105   527A      3.763225   528A      3.771137  
     529A      3.780550   530A      3.791363   531A      3.793558  
     532A      3.801492   533A      3.815073   534A      3.816254  
     535A      3.835280   536A      3.836369   537A      3.847134  
     538A      3.850499   539A      3.855660   540A      3.858429  
     541A      3.866167   542A      3.878561   543A      3.882528  
     544A      3.888098   545A      3.905796   546A      3.908716  
     547A      3.919841   548A      3.926942   549A      3.936966  
     550A      3.941075   551A      3.949168   552A      3.953676  
     553A      3.964279   554A      3.978016   555A      3.985661  
     556A      3.995688   557A      4.006295   558A      4.010822  
     559A      4.014425   560A      4.018052   561A      4.028179  
     562A      4.031752   563A      4.040212   564A      4.046985  
     565A      4.054059   566A      4.059223   567A      4.066010  
     568A      4.079528   569A      4.087287   570A      4.088586  
     571A      4.097333   572A      4.104620   573A      4.107697  
     574A      4.113361   575A      4.122510   576A      4.124186  
     577A      4.140319   578A      4.158474   579A      4.160734  
     580A      4.174795   581A      4.179406   582A      4.196994  
     583A      4.208387   584A      4.224240   585A      4.239696  
     586A      4.242994   587A      4.250109   588A      4.257436  
     589A      4.271418   590A      4.274136   591A      4.279429  
     592A      4.280631   593A      4.293490   594A      4.304995  
     595A      4.312194   596A      4.325856   597A      4.340283  
     598A      4.348714   599A      4.362868   600A      4.376044  
     601A      4.385133   602A      4.386441   603A      4.412589  
     604A      4.415320   605A      4.432608   606A      4.437266  
     607A      4.452456   608A      4.463309   609A      4.475173  
     610A      4.484567   611A      4.502936   612A      4.520952  
     613A      4.527326   614A      4.541742   615A      4.548244  
     616A      4.558562   617A      4.570034   618A      4.593634  
     619A      4.607131   620A      4.611719   621A      4.615776  
     622A      4.633009   623A      4.648119   624A      4.669966  
     625A      4.678865   626A      4.688240   627A      4.691929  
     628A      4.707597   629A      4.721317   630A      4.739342  
     631A      4.741494   632A      4.757715   633A      4.771874  
     634A      4.784376   635A      4.795701   636A      4.801184  
     637A      4.813733   638A      4.826032   639A      4.845968  
     640A      4.850660   641A      4.855655   642A      4.859600  
     643A      4.871145   644A      4.877504   645A      4.886755  
     646A      4.897558   647A      4.917716   648A      4.919605  
     649A      4.929167   650A      4.944087   651A      4.952124  
     652A      4.964810   653A      4.970918   654A      4.978737  
     655A      4.991878   656A      5.001091   657A      5.027312  
     658A      5.034477   659A      5.048372   660A      5.054360  
     661A      5.070087   662A      5.082045   663A      5.092585  
     664A      5.106207   665A      5.124126   666A      5.132466  
     667A      5.144741   668A      5.164227   669A      5.170267  
     670A      5.173411   671A      5.182259   672A      5.193993  
     673A      5.203646   674A      5.214236   675A      5.216856  
     676A      5.241088   677A      5.251751   678A      5.255888  
     679A      5.280363   680A      5.290448   681A      5.295723  
     682A      5.319285   683A      5.326889   684A      5.335101  
     685A      5.353466   686A      5.368492   687A      5.370648  
     688A      5.385313   689A      5.394268   690A      5.401869  
     691A      5.405171   692A      5.410771   693A      5.427572  
     694A      5.431505   695A      5.440670   696A      5.460106  
     697A      5.474684   698A      5.492869   699A      5.497858  
     700A      5.501980   701A      5.533543   702A      5.536657  
     703A      5.541206   704A      5.548195   705A      5.564880  
     706A      5.573924   707A      5.607113   708A      5.616951  
     709A      5.620784   710A      5.627677   711A      5.636823  
     712A      5.656443   713A      5.662630   714A      5.676855  
     715A      5.685445   716A      5.701401   717A      5.706773  
     718A      5.722915   719A      5.728583   720A      5.745755  
     721A      5.761249   722A      5.774160   723A      5.787626  
     724A      5.811738   725A      5.812659   726A      5.842367  
     727A      5.861359   728A      5.867700   729A      5.872975  
     730A      5.899044   731A      5.929640   732A      5.949159  
     733A      5.987548   734A      6.015986   735A      6.026024  
     736A      6.046212   737A      6.058736   738A      6.079283  
     739A      6.091050   740A      6.129254   741A      6.141498  
     742A      6.152438   743A      6.170347   744A      6.194269  
     745A      6.233305   746A      6.249039   747A      6.258546  
     748A      6.265259   749A      6.290049   750A      6.304995  
     751A      6.313962   752A      6.334220   753A      6.339899  
     754A      6.352435   755A      6.384246   756A      6.391264  
     757A      6.413283   758A      6.440112   759A      6.607395  
     760A      6.621309   761A      6.643187   762A      6.691176  
     763A      6.731771   764A      6.791899   765A      6.814547  
     766A      6.846747   767A      6.857016   768A      6.917414  
     769A      6.934490   770A      6.951649   771A      6.999105  
     772A      7.024141   773A      7.060121   774A      7.128613  
     775A     17.863084   776A     18.133141   777A     18.316923  
     778A     18.449713   779A     18.833729   780A     19.001050  
     781A     19.236905   782A     19.908295  

    Final Occupation by Irrep:
              A 
    DOCC [    33 ]

  Energy converged.

  @DF-RHF Final Energy:  -313.53899023176825

   => Energetics <=

    Nuclear Repulsion Energy =            394.5131401894434475
    One-Electron Energy =               -1204.1712233861280765
    Two-Electron Energy =                 496.1190929649164900
    DFT Exchange-Correlation Energy =       0.0000000000000000
    Empirical Dispersion Energy =           0.0000000000000000
    PCM Polarization Energy =               0.0000000000000000
    EFP Energy =                            0.0000000000000000
    Total Energy =                       -313.5389902317681390


  Saving occupied orbitals to File 180.

*** tstop() called on wr29 at Tue Sep 20 22:41:31 2016
Module time:
	user time   =     943.68 seconds =      15.73 minutes
	system time =      12.21 seconds =       0.20 minutes
	total time  =         88 seconds =       1.47 minutes
Total time:
	user time   =     943.68 seconds =      15.73 minutes
	system time =      12.21 seconds =       0.20 minutes
	total time  =         88 seconds =       1.47 minutes


Properties will be evaluated at   0.000000,   0.000000,   0.000000 Bohr

Properties computed using the SCF density matrix

  Nuclear Dipole Moment: (a.u.)
     X:    -0.5385      Y:     2.0856      Z:     0.4329

  Electronic Dipole Moment: (a.u.)
     X:     0.5439      Y:    -2.1231      Z:    -0.4553

  Dipole Moment: (a.u.)
     X:     0.0054      Y:    -0.0375      Z:    -0.0224     Total:     0.0441

  Dipole Moment: (Debye)
     X:     0.0136      Y:    -0.0954      Z:    -0.0570     Total:     0.1120


  //>>>>>>>>>>>>>>>>>>>>>>>>>>>>>>>>>>>//
  //               DFMP2               //
  //<<<<<<<<<<<<<<<<<<<<<<<<<<<<<<<<<<<//


*** tstart() called on wr29
*** at Tue Sep 20 22:41:31 2016


*** tstop() called on wr29 at Tue Sep 20 22:41:31 2016
Module time:
	user time   =       3.61 seconds =       0.06 minutes
	system time =       0.17 seconds =       0.00 minutes
	total time  =          0 seconds =       0.00 minutes
Total time:
	user time   =     948.41 seconds =      15.81 minutes
	system time =      12.38 seconds =       0.21 minutes
	total time  =         88 seconds =       1.47 minutes
	 --------------------------------------------------------
	                          DF-MP2                         
	      2nd-Order Density-Fitted Moller-Plesset Theory     
	              RMP2 Wavefunction,  12 Threads             
	                                                         
	        Rob Parrish, Justin Turney, Andy Simmonett,      
	           Ed Hohenstein, and C. David Sherrill          
	 --------------------------------------------------------

   => Auxiliary Basis Set <=

  Basis Set: 
    Number of shells: 476
    Number of basis function: 1676
    Number of Cartesian functions: 2078
    Spherical Harmonics?: true
    Max angular momentum: 4

	 --------------------------------------------------------
	                 NBF =   782, NAUX =  1676
	 --------------------------------------------------------
	   CLASS    FOCC     OCC    AOCC    AVIR     VIR    FVIR
	   PAIRS       8      33      25     749     749       0
	 --------------------------------------------------------

DGAS Warning! /src/lib/libfock/apps.cc:80 is not currently checking restricted

         ------------------------------------------------------------
                                     CPHF                           
                                  Rob Parrish                       
         ------------------------------------------------------------

  ==> Geometry <==

    Molecular point group: c1
    Full point group: C1

    Geometry (in Angstrom), charge = 0, multiplicity = 1:

       Center              X                  Y                   Z               Mass       
    ------------   -----------------  -----------------  -----------------  -----------------
           C          2.395410310571     1.711471119335    -0.042992148341    12.000000000000
           H          2.823326130868     2.403375941757    -0.768818346518     1.007825032070
           H          2.811210796952     1.955454917275     0.935549436104     1.007825032070
           H          1.322737672613     1.891792519086     0.001112075504     1.007825032070
           C         -3.105256588541     1.016721085764     0.577906860534    12.000000000000
           H         -3.950141100820     1.668936260124     0.358192226669     1.007825032070
           H         -2.253533492788     1.651192395170     0.820388008991     1.007825032070
           H         -3.353069582791     0.435858281063     1.468058498198     1.007825032070
           C          2.713253272096     0.262686746640    -0.404211617995    12.000000000000
           H          3.798527480389     0.148444018925    -0.435193033784     1.007825032070
           H          2.355992129886     0.042772002486    -1.414594614539     1.007825032070
           C         -2.800445491288     0.094329006563    -0.597643455792    12.000000000000
           H         -3.708799481689    -0.444330334147    -0.876569210160     1.007825032070
           H         -2.514649125138     0.691665718113    -1.467915319528     1.007825032070
           C          2.121360382977    -0.762218288049     0.573466589832    12.000000000000
           H          2.040434494427    -0.306904192874     1.565709541858     1.007825032070
           H          2.809668955438    -1.603747427438     0.678485979778     1.007825032070
           C          0.759859658077    -1.318032623112     0.157686811744    12.000000000000
           H          0.437513706926    -2.057013024600     0.897675968763     1.007825032070
           H          0.873196851090    -1.858744962895    -0.787606660611     1.007825032070
           C         -0.341887786232    -0.276704310930    -0.002146647167    12.000000000000
           H         -0.402815768515     0.322907783970     0.910156937025     1.007825032070
           H         -0.090087089853     0.410306607927    -0.815557752399     1.007825032070
           C         -1.694051273880    -0.915092240270    -0.300849040286    12.000000000000
           H         -1.582121559970    -1.588474806679    -1.155699768127     1.007825032070
           H         -1.991806006674    -1.538825731085     0.548404372115     1.007825032070

  Nuclear repulsion =  394.513140189443448
  Reference energy  = -313.538990231768253

  ==> Basis Set <==

  Basis Set: AUG-CC-PVTZ
    Number of shells: 274
    Number of basis function: 782
    Number of Cartesian functions: 890
    Spherical Harmonics?: true
    Max angular momentum: 3

  ==> CGRSolver (by Rob Parrish) <==

   Number of roots    =         1
   Preconditioning    =    JACOBI
   Convergence cutoff =     1E-06
   Maximum iterations =       100

  ==> CPHFRHamiltonian (by Rob Parrish) <== 

  ==> DFJK: Density-Fitted J/K Matrices <==

    J tasked:                  Yes
    K tasked:                  Yes
    wK tasked:                  No
    OpenMP threads:             12
    Integrals threads:          12
    Memory (MB):             42915
    Algorithm:                Core
    Integral Cache:           NONE
    Schwarz Cutoff:          1E-12
    Fitting Condition:       1E-12

   => Auxiliary Basis Set <=

  Basis Set: 
    Number of shells: 492
    Number of basis function: 1660
    Number of Cartesian functions: 2038
    Spherical Harmonics?: true
    Max angular momentum: 4

  ==> CPHF Iterations <==

  => Iterations <=

             Iter  Converged  Remaining    Residual
  CGR           1          0          1   9.111E-02
  CGR           2          0          1   1.295E-02
  CGR           3          0          1   3.459E-03
  CGR           4          0          1   8.167E-04
  CGR           5          0          1   1.981E-04
  CGR           6          0          1   4.434E-05
  CGR           7          0          1   1.240E-05
  CGR           8          0          1   3.314E-06
  CGR           9          1          0   8.275E-07

    CGRSolver converged.

  ==> DFCorrGrad: Density-Fitted Correlated Gradients <==

    OpenMP threads:             12
    Integrals threads:          12
    Memory (MB):             42915
    Schwarz Cutoff:          0E+00
    Fitting Condition:       1E-12

   => Auxiliary Basis Set <=

  Basis Set: 
    Number of shells: 492
    Number of basis function: 1660
    Number of Cartesian functions: 2038
    Spherical Harmonics?: true
    Max angular momentum: 4

	-----------------------------------------------------------
	 ==================> DF-MP2 Energies <==================== 
	-----------------------------------------------------------
	 Reference Energy          =    -313.5389902317682527 [Eh]
	 Singles Energy            =      -0.0000000000000000 [Eh]
	 Same-Spin Energy          =      -0.3161611350875971 [Eh]
	 Opposite-Spin Energy      =      -1.1254552921805934 [Eh]
	 Correlation Energy        =      -1.4416164272681904 [Eh]
	 Total Energy              =    -314.9806066590364253 [Eh]
	-----------------------------------------------------------
	 ================> DF-SCS-MP2 Energies <================== 
	-----------------------------------------------------------
	 SCS Same-Spin Scale       =       0.3333333333333333 [-]
	 SCS Opposite-Spin Scale   =       1.2000000000000000 [-]
	 SCS Same-Spin Energy      =      -0.1053870450291990 [Eh]
	 SCS Opposite-Spin Energy  =      -1.3505463506167119 [Eh]
	 SCS Correlation Energy    =      -1.4559333956459111 [Eh]
	 SCS Total Energy          =    -314.9949236274141526 [Eh]
	-----------------------------------------------------------


  -Total Gradient:
     Atom            X                  Y                   Z
    ------   -----------------  -----------------  -----------------
       1       -0.000000794965     0.000000941653     0.000000340321
       2       -0.000000538979    -0.000000703622     0.000000831423
       3       -0.000000399142    -0.000000320851    -0.000001138467
       4        0.000001819979    -0.000000056320     0.000000007950
       5       -0.000000307527     0.000000601430     0.000000527112
       6        0.000000355108    -0.000000264069     0.000000183074
       7       -0.000000645229    -0.000000315670    -0.000000102578
       8        0.000000152699     0.000000293231    -0.000000477485
       9        0.000000260893    -0.000000928276    -0.000001180912
      10       -0.000000961724    -0.000000234138    -0.000000113968
      11        0.000000586130     0.000000395504     0.000001616823
      12       -0.000000086156    -0.000000015592    -0.000000572669
      13        0.000000339914     0.000000110976    -0.000000029548
      14        0.000000016392    -0.000000433760     0.000000581696
      15        0.000000364270     0.000000407401     0.000001808817
      16       -0.000000095870    -0.000000760688    -0.000001839881
      17       -0.000000722892     0.000001082249    -0.000000057601
      18       -0.000000918102    -0.000000983323    -0.000000943404
      19        0.000000428839     0.000001163696    -0.000001342587
      20       -0.000000483806     0.000001217872     0.000001550242
      21        0.000000811374     0.000002346400     0.000000021568
      22        0.000000593661    -0.000001553877    -0.000001504321
      23       -0.000000642375    -0.000001992116     0.000001525756
      24        0.000000275157    -0.000001441559     0.000000204934
      25        0.000000052388     0.000000699898     0.000000949701
      26        0.000000539963     0.000000743552    -0.000000845998


			-----------------------------------------
			 OPTKING 2.0: for geometry optimizations 
			  - R.A. King,  Bethel University        
			-----------------------------------------

	Internal coordinates to be generated automatically.
	Detected frag 1 with atoms:  1 2 3 4 5 6 7 8 9 10 11 12 13 14 15 16 17 18 19 20
	 21 22 23 24 25 26
	---Fragment 1 Bond Connectivity---
	 1 : 2 3 4 9
	 2 : 1
	 3 : 1
	 4 : 1
	 5 : 6 7 8 12
	 6 : 5
	 7 : 5
	 8 : 5
	 9 : 1 10 11 15
	 10 : 9
	 11 : 9
	 12 : 5 13 14 24
	 13 : 12
	 14 : 12
	 15 : 9 16 17 18
	 16 : 15
	 17 : 15
	 18 : 15 19 20 21
	 19 : 18
	 20 : 18
	 21 : 18 22 23 24
	 22 : 21
	 23 : 21
	 24 : 12 21 25 26
	 25 : 24
	 26 : 24

	---Fragment 1 Geometry and Gradient---
	 C           4.5266694629        3.2342116999       -0.0812433862
	 H           5.3353131712        4.5417223243       -1.4528561209
	 H           5.3124185081        3.6952742589        1.7679322180
	 H           2.4996119469        3.5749697613        0.0021015181
	 C          -5.8680845247        1.9213244056        1.0920856967
	 H          -7.4646848668        3.1538324649        0.6768852113
	 H          -4.2585611327        3.1203014196        1.5503086597
	 H          -6.3363832160        0.8236527840        2.7742285086
	 C           5.1273056134        0.4964060099       -0.7638492577
	 H           7.1781766462        0.2805185418       -0.8223956488
	 H           4.4521798967        0.0808273709       -2.6731964105
	 C          -5.2920750286        0.1782559888       -1.1293824566
	 H          -7.0086153022       -0.8396626441       -1.6564757437
	 H          -4.7519981668        1.3070587827       -2.7739579402
	 C           4.0087901530       -1.4403838179        1.0836948011
	 H           3.8558623866       -0.5799648736        2.9587622378
	 H           5.3095048498       -3.0306434242        1.2821526868
	 C           1.4359266532       -2.4907206919        0.2979848890
	 H           0.8267810855       -3.8871912683        1.6963617370
	 H           1.6501029087       -3.5125189308       -1.4883608890
	 C          -0.6460742842       -0.5228953674       -0.0040565752
	 H          -0.7612114845        0.6102072779        1.7199473489
	 H          -0.1702399279        0.7753671195       -1.5411807976
	 C          -3.2012929627       -1.7292737204       -0.5685222935
	 H          -2.9897764573       -3.0017823536       -2.1839560536
	 H          -3.7639678625       -2.9079591980        1.0363340734
	            -0.0000007950        0.0000009417        0.0000003403
	            -0.0000005390       -0.0000007036        0.0000008314
	            -0.0000003991       -0.0000003209       -0.0000011385
	             0.0000018200       -0.0000000563        0.0000000079
	            -0.0000003075        0.0000006014        0.0000005271
	             0.0000003551       -0.0000002641        0.0000001831
	            -0.0000006452       -0.0000003157       -0.0000001026
	             0.0000001527        0.0000002932       -0.0000004775
	             0.0000002609       -0.0000009283       -0.0000011809
	            -0.0000009617       -0.0000002341       -0.0000001140
	             0.0000005861        0.0000003955        0.0000016168
	            -0.0000000862       -0.0000000156       -0.0000005727
	             0.0000003399        0.0000001110       -0.0000000295
	             0.0000000164       -0.0000004338        0.0000005817
	             0.0000003643        0.0000004074        0.0000018088
	            -0.0000000959       -0.0000007607       -0.0000018399
	            -0.0000007229        0.0000010822       -0.0000000576
	            -0.0000009181       -0.0000009833       -0.0000009434
	             0.0000004288        0.0000011637       -0.0000013426
	            -0.0000004838        0.0000012179        0.0000015502
	             0.0000008114        0.0000023464        0.0000000216
	             0.0000005937       -0.0000015539       -0.0000015043
	            -0.0000006424       -0.0000019921        0.0000015258
	             0.0000002752       -0.0000014416        0.0000002049
	             0.0000000524        0.0000006999        0.0000009497
	             0.0000005400        0.0000007436       -0.0000008460

	Previous optimization step data not found.  Starting new optimization.

	---Fragment 1 Intrafragment Coordinates---
	 - Coordinate -           - BOHR/RAD -       - ANG/DEG -
	 R(1,2)           =         2.060294	       1.090260
	 R(1,3)           =         2.061415	       1.090854
	 R(1,4)           =         2.057189	       1.088617
	 R(1,9)           =         2.884839	       1.526591
	 R(5,6)           =         2.059272	       1.089720
	 R(5,7)           =         2.058660	       1.089396
	 R(5,8)           =         2.062472	       1.091413
	 R(5,12)          =         2.881839	       1.525003
	 R(9,10)          =         2.063033	       1.091710
	 R(9,11)          =         2.067391	       1.094016
	 R(9,15)          =         2.900974	       1.535129
	 R(12,13)         =         2.064097	       1.092273
	 R(12,14)         =         2.066521	       1.093556
	 R(12,24)         =         2.885239	       1.526803
	 R(15,16)         =         2.068716	       1.094717
	 R(15,17)         =         2.064018	       1.092231
	 R(15,18)         =         2.887936	       1.528230
	 R(18,19)         =         2.068005	       1.094341
	 R(18,20)         =         2.069052	       1.094895
	 R(18,21)         =         2.880676	       1.524388
	 R(21,22)         =         2.066245	       1.093410
	 R(21,23)         =         2.067524	       1.094086
	 R(21,24)         =         2.881512	       1.524831
	 R(24,25)         =         2.067279	       1.093957
	 R(24,26)         =         2.069170	       1.094958
	 B(1,9,10)        =         1.889151	     108.240360
	 B(1,9,11)        =         1.919106	     109.956670
	 B(1,9,15)        =         1.985190	     113.743009
	 B(2,1,3)         =         1.881414	     107.797067
	 B(2,1,4)         =         1.884509	     107.974388
	 B(2,1,9)         =         1.942319	     111.286684
	 B(3,1,4)         =         1.877792	     107.589550
	 B(3,1,9)         =         1.923205	     110.191503
	 B(4,1,9)         =         1.951896	     111.835403
	 B(5,12,13)       =         1.905944	     109.202556
	 B(5,12,14)       =         1.912728	     109.591214
	 B(5,12,24)       =         1.976732	     113.258389
	 B(6,5,7)         =         1.878079	     107.605990
	 B(6,5,8)         =         1.882772	     107.874876
	 B(6,5,12)        =         1.940732	     111.195765
	 B(7,5,8)         =         1.881728	     107.815080
	 B(7,5,12)        =         1.947197	     111.566184
	 B(8,5,12)        =         1.930695	     110.620690
	 B(9,15,16)       =         1.905061	     109.151952
	 B(9,15,17)       =         1.909907	     109.429627
	 B(9,15,18)       =         1.996593	     114.396381
	 B(10,9,11)       =         1.851872	     106.104448
	 B(10,9,15)       =         1.908690	     109.359905
	 B(11,9,15)       =         1.905055	     109.151603
	 B(12,24,21)      =         1.986549	     113.820893
	 B(12,24,25)      =         1.906254	     109.220287
	 B(12,24,26)      =         1.907442	     109.288400
	 B(13,12,14)      =         1.858233	     106.468920
	 B(13,12,24)      =         1.903108	     109.040039
	 B(14,12,24)      =         1.903340	     109.053359
	 B(15,18,19)      =         1.900800	     108.907839
	 B(15,18,20)      =         1.898937	     108.801066
	 B(15,18,21)      =         2.008627	     115.085845
	 B(16,15,17)      =         1.854473	     106.253500
	 B(16,15,18)      =         1.909229	     109.390747
	 B(17,15,18)      =         1.883229	     107.901080
	 B(18,21,22)      =         1.904347	     109.111031
	 B(18,21,23)      =         1.918311	     109.911116
	 B(18,21,24)      =         1.955681	     112.052270
	 B(19,18,20)      =         1.855436	     106.308629
	 B(19,18,21)      =         1.895784	     108.620449
	 B(20,18,21)      =         1.898262	     108.762387
	 B(21,24,25)      =         1.896580	     108.666051
	 B(21,24,26)      =         1.904656	     109.128754
	 B(22,21,23)      =         1.863763	     106.785752
	 B(22,21,24)      =         1.921567	     110.097664
	 B(23,21,24)      =         1.897939	     108.743870
	 B(25,24,26)      =         1.857990	     106.454966
	 D(1,9,15,16)     =        -0.505204	     -28.946040
	 D(1,9,15,17)     =        -2.527909	    -144.838489
	 D(1,9,15,18)     =         1.640116	      93.971732
	 D(2,1,9,10)      =         1.029081	      58.961972
	 D(2,1,9,11)      =        -0.986644	     -56.530528
	 D(2,1,9,15)      =        -3.129092	    -179.283750
	 D(3,1,9,10)      =        -1.057009	     -60.562168
	 D(3,1,9,11)      =        -3.072734	    -176.054668
	 D(3,1,9,15)      =         1.068004	      61.192110
	 D(4,1,9,10)      =         3.138435	     179.819062
	 D(4,1,9,11)      =         1.122710	      64.326561
	 D(4,1,9,15)      =        -1.019738	     -58.426660
	 D(5,12,24,21)    =        -1.092996	     -62.624068
	 D(5,12,24,25)    =         3.067353	     175.746399
	 D(5,12,24,26)    =         1.041144	      59.653147
	 D(6,5,12,13)     =        -0.938982	     -53.799720
	 D(6,5,12,14)     =         1.090314	      62.470396
	 D(6,5,12,24)     =        -3.063319	    -175.515232
	 D(7,5,12,13)     =        -3.035814	    -173.939345
	 D(7,5,12,14)     =        -1.006518	     -57.669228
	 D(7,5,12,24)     =         1.123035	      64.345144
	 D(8,5,12,13)     =         1.152720	      66.045984
	 D(8,5,12,14)     =        -3.101169	    -177.683900
	 D(8,5,12,24)     =        -0.971617	     -55.669528
	 D(9,15,18,19)    =         3.112722	     178.345806
	 D(9,15,18,20)    =         1.097242	      62.867340
	 D(9,15,18,21)    =        -1.037513	     -59.445120
	 D(10,9,15,16)    =         1.608930	      92.184880
	 D(10,9,15,17)    =        -0.413775	     -23.707568
	 D(10,9,15,18)    =        -2.528936	    -144.897347
	 D(11,9,15,16)    =        -2.655344	    -152.140029
	 D(11,9,15,17)    =         1.605136	      91.967522
	 D(11,9,15,18)    =        -0.510025	     -29.222256
	 D(12,24,21,18)   =        -3.047187	    -174.590980
	 D(12,24,21,22)   =         1.113228	      63.783245
	 D(12,24,21,23)   =        -0.923108	     -52.890221
	 D(13,12,24,21)   =         3.064264	     175.569408
	 D(13,12,24,25)   =         0.941428	      53.939875
	 D(13,12,24,26)   =        -1.084781	     -62.153377
	 D(14,12,24,21)   =         1.041790	      59.690194
	 D(14,12,24,25)   =        -1.081045	     -61.939339
	 D(14,12,24,26)   =        -3.107255	    -178.032591
	 D(15,18,21,22)   =        -0.924134	     -52.949005
	 D(15,18,21,23)   =         1.114073	      63.831696
	 D(15,18,21,24)   =        -3.056755	    -175.139176
	 D(16,15,18,19)   =        -1.027400	     -58.865711
	 D(16,15,18,20)   =        -3.042880	    -174.344177
	 D(16,15,18,21)   =         1.105550	      63.343363
	 D(17,15,18,19)   =         0.982917	      56.316975
	 D(17,15,18,20)   =        -1.032563	     -59.161491
	 D(17,15,18,21)   =         3.115867	     178.526049
	 D(18,21,24,25)   =        -0.918993	     -52.654443
	 D(18,21,24,26)   =         1.100323	      63.043893
	 D(19,18,21,22)   =         1.211513	      69.414594
	 D(19,18,21,23)   =        -3.033464	    -173.804705
	 D(19,18,21,24)   =        -0.921108	     -52.775577
	 D(20,18,21,22)   =        -3.059252	    -175.282253
	 D(20,18,21,23)   =        -1.021045	     -58.501552
	 D(20,18,21,24)   =         1.091312	      62.527575
	 D(22,21,24,25)   =        -3.041764	    -174.280219
	 D(22,21,24,26)   =        -1.022447	     -58.581883
	 D(23,21,24,25)   =         1.205086	      69.046316
	 D(23,21,24,26)   =        -3.058783	    -175.255348
	 R(1,21)          =         6.393676	       3.383387

	Current energy   :      -314.9806066590

	Generating empirical Hessian (Schlegel '84) for each fragment.
	Taking RFO optimization step.
	Going to follow RFO solution 1.
	Using RFO vector 1.
	Norm of target step-size    0.00038
	Projected energy change by RFO approximation:        -0.0000000016

	Back-transformation to cartesian coordinates...
	Successfully converged to displaced geometry.

	--- Internal Coordinate Step in ANG or DEG, aJ/ANG or AJ/DEG ---
	 ---------------------------------------------------------------------------
	   Coordinate                Previous        Force       Change         New 
	   ----------                --------       ------       ------       ------
	    1 R(1,2)          =      1.090260     0.000010     0.000002     1.090262
	    2 R(1,3)          =      1.090854     0.000010     0.000002     1.090856
	    3 R(1,4)          =      1.088617     0.000015     0.000003     1.088620
	    4 R(1,9)          =      1.526591     0.000002     0.000001     1.526592
	    5 R(5,6)          =      1.089720     0.000004     0.000001     1.089720
	    6 R(5,7)          =      1.089396     0.000006     0.000001     1.089397
	    7 R(5,8)          =      1.091413     0.000005     0.000001     1.091414
	    8 R(5,12)         =      1.525003    -0.000003    -0.000001     1.525003
	    9 R(9,10)         =      1.091710     0.000008     0.000001     1.091712
	   10 R(9,11)         =      1.094016     0.000015     0.000003     1.094019
	   11 R(9,15)         =      1.535129     0.000008     0.000003     1.535132
	   12 R(12,13)        =      1.092273     0.000003     0.000001     1.092274
	   13 R(12,14)        =      1.093556     0.000006     0.000001     1.093557
	   14 R(12,24)        =      1.526803    -0.000001    -0.000000     1.526803
	   15 R(15,16)        =      1.094717     0.000016     0.000003     1.094720
	   16 R(15,17)        =      1.092231     0.000011     0.000002     1.092233
	   17 R(15,18)        =      1.528230     0.000005     0.000002     1.528232
	   18 R(18,19)        =      1.094341     0.000015     0.000003     1.094344
	   19 R(18,20)        =      1.094895     0.000016     0.000003     1.094898
	   20 R(18,21)        =      1.524388     0.000016     0.000004     1.524392
	   21 R(21,22)        =      1.093410     0.000018     0.000003     1.093413
	   22 R(21,23)        =      1.094086     0.000021     0.000004     1.094090
	   23 R(21,24)        =      1.524831     0.000005     0.000001     1.524832
	   24 R(24,25)        =      1.093957     0.000010     0.000002     1.093959
	   25 R(24,26)        =      1.094958     0.000010     0.000002     1.094960
	   26 B(1,9,10)       =    108.240360    -0.000000    -0.000270   108.240090
	   27 B(1,9,11)       =    109.956670    -0.000000     0.000035   109.956706
	   28 B(1,9,15)       =    113.743009     0.000000     0.000236   113.743245
	   29 B(2,1,3)        =    107.797067     0.000000     0.000041   107.797108
	   30 B(2,1,4)        =    107.974388     0.000000     0.000043   107.974430
	   31 B(2,1,9)        =    111.286684    -0.000000    -0.000023   111.286661
	   32 B(3,1,4)        =    107.589550     0.000000     0.000025   107.589575
	   33 B(3,1,9)        =    110.191503     0.000000     0.000078   110.191581
	   34 B(4,1,9)        =    111.835403    -0.000000    -0.000156   111.835247
	   35 B(5,12,13)      =    109.202556     0.000000     0.000078   109.202634
	   36 B(5,12,14)      =    109.591214     0.000000    -0.000069   109.591144
	   37 B(5,12,24)      =    113.258389    -0.000000    -0.000250   113.258139
	   38 B(6,5,7)        =    107.605990     0.000000     0.000033   107.606023
	   39 B(6,5,8)        =    107.874876     0.000000     0.000026   107.874902
	   40 B(6,5,12)       =    111.195765    -0.000000    -0.000027   111.195738
	   41 B(7,5,8)        =    107.815080     0.000000     0.000008   107.815088
	   42 B(7,5,12)       =    111.566184    -0.000000    -0.000072   111.566112
	   43 B(8,5,12)       =    110.620690     0.000000     0.000035   110.620725
	   44 B(9,15,16)      =    109.151952    -0.000000    -0.000083   109.151869
	   45 B(9,15,17)      =    109.429627     0.000000    -0.000035   109.429591
	   46 B(9,15,18)      =    114.396381    -0.000000     0.000279   114.396659
	   47 B(10,9,11)      =    106.104448     0.000000     0.000018   106.104466
	   48 B(10,9,15)      =    109.359905     0.000000    -0.000053   109.359852
	   49 B(11,9,15)      =    109.151603    -0.000000     0.000017   109.151620
	   50 B(12,24,21)     =    113.820893    -0.000000    -0.000294   113.820599
	   51 B(12,24,25)     =    109.220287     0.000000     0.000120   109.220407
	   52 B(12,24,26)     =    109.288400     0.000000    -0.000141   109.288259
	   53 B(13,12,14)     =    106.468920    -0.000000     0.000029   106.468948
	   54 B(13,12,24)     =    109.040039     0.000000     0.000130   109.040169
	   55 B(14,12,24)     =    109.053359     0.000000     0.000100   109.053459
	   56 B(15,18,19)     =    108.907839     0.000000     0.000002   108.907841
	   57 B(15,18,20)     =    108.801066    -0.000000    -0.000224   108.800842
	   58 B(15,18,21)     =    115.085845    -0.000000     0.000100   115.085945
	   59 B(16,15,17)     =    106.253500    -0.000000    -0.000091   106.253409
	   60 B(16,15,18)     =    109.390747     0.000000     0.000063   109.390810
	   61 B(17,15,18)     =    107.901080    -0.000000    -0.000159   107.900922
	   62 B(18,21,22)     =    109.111031    -0.000000     0.000107   109.111138
	   63 B(18,21,23)     =    109.911116    -0.000000    -0.000006   109.911110
	   64 B(18,21,24)     =    112.052270     0.000000     0.000546   112.052816
	   65 B(19,18,20)     =    106.308629    -0.000000    -0.000043   106.308585
	   66 B(19,18,21)     =    108.620449     0.000000     0.000073   108.620522
	   67 B(20,18,21)     =    108.762387     0.000000     0.000082   108.762469
	   68 B(21,24,25)     =    108.666051     0.000000     0.000298   108.666349
	   69 B(21,24,26)     =    109.128754     0.000000     0.000012   109.128766
	   70 B(22,21,23)     =    106.785752     0.000000    -0.000367   106.785385
	   71 B(22,21,24)     =    110.097664    -0.000000    -0.000268   110.097397
	   72 B(23,21,24)     =    108.743870    -0.000000    -0.000058   108.743813
	   73 B(25,24,26)     =    106.454966    -0.000000     0.000028   106.454994
	   74 D(1,9,15,16)    =    -28.946040    -0.000000    -0.002080   -28.948121
	   75 D(1,9,15,17)    =   -144.838489    -0.000000    -0.001905  -144.840394
	   76 D(1,9,15,18)    =     93.971732    -0.000000    -0.001865    93.969868
	   77 D(2,1,9,10)     =     58.961972    -0.000000    -0.000940    58.961032
	   78 D(2,1,9,11)     =    -56.530528     0.000000    -0.000830   -56.531358
	   79 D(2,1,9,15)     =   -179.283750     0.000000    -0.001048  -179.284798
	   80 D(3,1,9,10)     =    -60.562168    -0.000000    -0.001028   -60.563195
	   81 D(3,1,9,11)     =   -176.054668    -0.000000    -0.000917  -176.055585
	   82 D(3,1,9,15)     =     61.192110    -0.000000    -0.001135    61.190975
	   83 D(4,1,9,10)     =    179.819062    -0.000000    -0.001010   179.818052
	   84 D(4,1,9,11)     =     64.326561    -0.000000    -0.000899    64.325662
	   85 D(4,1,9,15)     =    -58.426660    -0.000000    -0.001117   -58.427778
	   86 D(5,12,24,21)   =    -62.624068     0.000000     0.004538   -62.619530
	   87 D(5,12,24,25)   =    175.746399     0.000000     0.004267   175.750666
	   88 D(5,12,24,26)   =     59.653147     0.000000     0.004245    59.657392
	   89 D(6,5,12,13)    =    -53.799720    -0.000000    -0.000848   -53.800568
	   90 D(6,5,12,14)    =     62.470396    -0.000000    -0.000809    62.469588
	   91 D(6,5,12,24)    =   -175.515232    -0.000000    -0.000902  -175.516134
	   92 D(7,5,12,13)    =   -173.939345    -0.000000    -0.000823  -173.940168
	   93 D(7,5,12,14)    =    -57.669228     0.000000    -0.000783   -57.670012
	   94 D(7,5,12,24)    =     64.345144    -0.000000    -0.000877    64.344267
	   95 D(8,5,12,13)    =     66.045984    -0.000000    -0.000810    66.045174
	   96 D(8,5,12,14)    =   -177.683900     0.000000    -0.000770  -177.684670
	   97 D(8,5,12,24)    =    -55.669528    -0.000000    -0.000864   -55.670391
	   98 D(9,15,18,19)   =    178.345806     0.000000     0.002917   178.348723
	   99 D(9,15,18,20)   =     62.867340     0.000000     0.003089    62.870428
	  100 D(9,15,18,21)   =    -59.445120     0.000000     0.003084   -59.442036
	  101 D(10,9,15,16)   =     92.184880    -0.000000    -0.002307    92.182573
	  102 D(10,9,15,17)   =    -23.707568    -0.000000    -0.002132   -23.709700
	  103 D(10,9,15,18)   =   -144.897347    -0.000000    -0.002091  -144.899438
	  104 D(11,9,15,16)   =   -152.140029    -0.000000    -0.002305  -152.142335
	  105 D(11,9,15,17)   =     91.967522    -0.000000    -0.002130    91.965392
	  106 D(11,9,15,18)   =    -29.222256    -0.000000    -0.002090   -29.224346
	  107 D(12,24,21,18)  =   -174.590980    -0.000000    -0.002149  -174.593129
	  108 D(12,24,21,22)  =     63.783245    -0.000000    -0.002468    63.780777
	  109 D(12,24,21,23)  =    -52.890221     0.000000    -0.001842   -52.892062
	  110 D(13,12,24,21)  =    175.569408     0.000000     0.004513   175.573921
	  111 D(13,12,24,25)  =     53.939875     0.000000     0.004242    53.944117
	  112 D(13,12,24,26)  =    -62.153377     0.000000     0.004220   -62.149157
	  113 D(14,12,24,21)  =     59.690194     0.000000     0.004352    59.694546
	  114 D(14,12,24,25)  =    -61.939339    -0.000000     0.004080   -61.935259
	  115 D(14,12,24,26)  =   -178.032591    -0.000000     0.004058  -178.028533
	  116 D(15,18,21,22)  =    -52.949005    -0.000000    -0.003372   -52.952377
	  117 D(15,18,21,23)  =     63.831696    -0.000000    -0.003756    63.827940
	  118 D(15,18,21,24)  =   -175.139176    -0.000000    -0.003470  -175.142646
	  119 D(16,15,18,19)  =    -58.865711    -0.000000     0.003055   -58.862656
	  120 D(16,15,18,20)  =   -174.344177     0.000000     0.003226  -174.340950
	  121 D(16,15,18,21)  =     63.343363     0.000000     0.003222    63.346585
	  122 D(17,15,18,19)  =     56.316975    -0.000000     0.002894    56.319870
	  123 D(17,15,18,20)  =    -59.161491     0.000000     0.003066   -59.158425
	  124 D(17,15,18,21)  =    178.526049     0.000000     0.003061   178.529111
	  125 D(18,21,24,25)  =    -52.654443    -0.000000    -0.001975   -52.656418
	  126 D(18,21,24,26)  =     63.043893     0.000000    -0.001772    63.042120
	  127 D(19,18,21,22)  =     69.414594    -0.000000    -0.003244    69.411350
	  128 D(19,18,21,23)  =   -173.804705    -0.000000    -0.003628  -173.808333
	  129 D(19,18,21,24)  =    -52.775577    -0.000000    -0.003342   -52.778919
	  130 D(20,18,21,22)  =   -175.282253     0.000000    -0.003213  -175.285466
	  131 D(20,18,21,23)  =    -58.501552    -0.000000    -0.003597   -58.505149
	  132 D(20,18,21,24)  =     62.527575     0.000000    -0.003310    62.524265
	  133 D(22,21,24,25)  =   -174.280219    -0.000000    -0.002294  -174.282513
	  134 D(22,21,24,26)  =    -58.581883    -0.000000    -0.002092   -58.583974
	  135 D(23,21,24,25)  =     69.046316     0.000000    -0.001668    69.044648
	  136 D(23,21,24,26)  =   -175.255348     0.000000    -0.001465  -175.256813
	  137 R(1,21)         =      3.383387    -0.000002    -0.000034     3.383353
	 ---------------------------------------------------------------------------

  ==> Convergence Check <==

  Measures of convergence in internal coordinates in au.
  Criteria marked as inactive (o), active & met (*), and active & unmet ( ).
  --------------------------------------------------------------------------------------------- ~
   Step     Total Energy     Delta E     MAX Force     RMS Force      MAX Disp      RMS Disp    ~
  --------------------------------------------------------------------------------------------- ~
    Convergence Criteria             o    2.00e-06 *    1.00e-06 *    6.00e-06 *    4.00e-06 *  ~
  --------------------------------------------------------------------------------------------- ~
      1    -314.98060666   -3.15e+02 o    2.53e-06      6.29e-07 *    7.92e-05      3.21e-05    ~
  ---------------------------------------------------------------------------------------------

	Writing optimization data to binary file.
	Structure for next step:
	Cartesian Geometry (in Angstrom)
	    C     2.3953456509   1.7114761460  -0.0429904242
	    H     2.8232557233   2.4033939970  -0.7688103597
	    H     2.8111271865   1.9554674121   0.9355594640
	    H     1.3226651749   1.8917709271   0.0010991874
	    C    -3.1051827241   1.0167427463   0.5779013451
	    H    -3.9500540410   1.6689834239   0.3582081365
	    H    -2.2534307043   1.6511890637   0.8203511674
	    H    -3.3529861730   0.4358934087   1.4680655158
	    C     2.7132262340   0.2626995329  -0.4042110215
	    H     3.7985053583   0.1484905182  -0.4351945484
	    H     2.3559689604   0.0427746570  -1.4145961295
	    C    -2.8004371726   0.0943340918  -0.5976521386
	    H    -3.7088127997  -0.4443104632  -0.8765379436
	    H    -2.5146626495   0.6916586950  -1.4679408296
	    C     2.1213673402  -0.7622275112   0.5734686527
	    H     2.0404680318  -0.3069281990   1.5657239156
	    H     2.8096873152  -1.6037539338   0.6784557314
	    C     0.7598583752  -1.3180520303   0.1577222032
	    H     0.4375182269  -2.0570097553   0.8977406834
	    H     0.8731879616  -1.8587981364  -0.7875564307
	    C    -0.3418914199  -0.2767246528  -0.0021364743
	    H    -0.4028506976   0.3228832100   0.9101717453
	    H    -0.0900652818   0.4102999663  -0.8155333817
	    C    -1.6940500336  -0.9151032615  -0.3008868444
	    H    -1.5821108462  -1.5884528797  -1.1557645801
	    H    -1.9918195015  -1.5388705107   0.5483390503
			--------------------------
			 OPTKING Finished Execution 
			--------------------------

    Structure for next step:
    Molecular point group: c1
    Full point group: C1

    Geometry (in Angstrom), charge = 0, multiplicity = 1:

    C            2.395346251223     1.711477632463    -0.042990226302
    H            2.823256323627     2.403395483402    -0.768810161807
    H            2.811127786821     1.955468898499     0.935559661812
    H            1.322665775189     1.891772413487     0.001099385230
    C           -3.105182123748     1.016744232733     0.577901542914
    H           -3.950053440700     1.668984910352     0.358208334332
    H           -2.253430103974     1.651190550087     0.820351365244
    H           -3.352985572703     0.435894895095     1.468065713649
    C            2.713226834307     0.262701019357    -0.404210823605
    H            3.798505958582     0.148492004649    -0.435194350533
    H            2.355969560729     0.042776143431    -1.414595931634
    C           -2.800436572249     0.094335578218    -0.597651940749
    H           -3.708812199342    -0.444308976753    -0.876537745724
    H           -2.514662049216     0.691660181458    -1.467940631713
    C            2.121367940492    -0.762226024821     0.573468850554
    H            2.040468632147    -0.306926712606     1.565724113488
    H            2.809687915512    -1.603752447386     0.678455929212
    C            0.759858975521    -1.318050543928     0.157722401014
    H            0.437518827246    -2.057008268888     0.897740881213
    H            0.873188561945    -1.858796649985    -0.787556232810
    C           -0.341890819603    -0.276723166375    -0.002136276448
    H           -0.402850097283     0.322884696428     0.910171943129
    H           -0.090064681509     0.410301452761    -0.815533183840
    C           -1.694049433249    -0.915101775077    -0.300886646500
    H           -1.582110245900    -1.588451393234    -1.155764382219
    H           -1.991818901123    -1.538869024300     0.548339248178

gradient() will perform analytic gradient computation.

*** tstart() called on wr29
*** at Tue Sep 20 22:47:39 2016


         ---------------------------------------------------------
                                   SCF
            by Justin Turney, Rob Parrish, and Andy Simmonett
                              RHF Reference
                       12 Threads,  60000 MiB Core
         ---------------------------------------------------------

  ==> Geometry <==

    Molecular point group: c1
    Full point group: C1

    Geometry (in Angstrom), charge = 0, multiplicity = 1:

       Center              X                  Y                   Z               Mass       
    ------------   -----------------  -----------------  -----------------  -----------------
           C          2.395346251223     1.711477632463    -0.042990226302    12.000000000000
           H          2.823256323627     2.403395483402    -0.768810161807     1.007825032070
           H          2.811127786821     1.955468898499     0.935559661812     1.007825032070
           H          1.322665775189     1.891772413487     0.001099385230     1.007825032070
           C         -3.105182123748     1.016744232733     0.577901542914    12.000000000000
           H         -3.950053440700     1.668984910352     0.358208334332     1.007825032070
           H         -2.253430103974     1.651190550087     0.820351365244     1.007825032070
           H         -3.352985572703     0.435894895095     1.468065713649     1.007825032070
           C          2.713226834307     0.262701019357    -0.404210823605    12.000000000000
           H          3.798505958582     0.148492004649    -0.435194350533     1.007825032070
           H          2.355969560729     0.042776143431    -1.414595931634     1.007825032070
           C         -2.800436572249     0.094335578218    -0.597651940749    12.000000000000
           H         -3.708812199342    -0.444308976753    -0.876537745724     1.007825032070
           H         -2.514662049216     0.691660181458    -1.467940631713     1.007825032070
           C          2.121367940492    -0.762226024821     0.573468850554    12.000000000000
           H          2.040468632147    -0.306926712606     1.565724113488     1.007825032070
           H          2.809687915512    -1.603752447386     0.678455929212     1.007825032070
           C          0.759858975521    -1.318050543928     0.157722401014    12.000000000000
           H          0.437518827246    -2.057008268888     0.897740881213     1.007825032070
           H          0.873188561945    -1.858796649985    -0.787556232810     1.007825032070
           C         -0.341890819603    -0.276723166375    -0.002136276448    12.000000000000
           H         -0.402850097283     0.322884696428     0.910171943129     1.007825032070
           H         -0.090064681509     0.410301452761    -0.815533183840     1.007825032070
           C         -1.694049433249    -0.915101775077    -0.300886646500    12.000000000000
           H         -1.582110245900    -1.588451393234    -1.155764382219     1.007825032070
           H         -1.991818901123    -1.538869024300     0.548339248178     1.007825032070

  Running in c1 symmetry.

  Rotational constants: A =      0.10859  B =      0.02778  C =      0.02420 [cm^-1]
  Rotational constants: A =   3255.41758  B =    832.96707  C =    725.49015 [MHz]
  Nuclear repulsion =  394.513735749613659

  Charge       = 0
  Multiplicity = 1
  Electrons    = 66
  Nalpha       = 33
  Nbeta        = 33

  ==> Algorithm <==

  SCF Algorithm Type is DF.
  DIIS enabled.
  MOM disabled.
  Fractional occupation disabled.
  Guess Type is READ.
  Energy threshold   = 1.00e-10
  Density threshold  = 1.00e-10
  Integral threshold = 0.00e+00

  ==> Primary Basis <==

  Basis Set: AUG-CC-PVTZ
    Number of shells: 274
    Number of basis function: 782
    Number of Cartesian functions: 890
    Spherical Harmonics?: true
    Max angular momentum: 3

  ==> Pre-Iterations <==

   -------------------------------------------------------
    Irrep   Nso     Nmo     Nalpha   Nbeta   Ndocc  Nsocc
   -------------------------------------------------------
     A        782     782       0       0       0       0
   -------------------------------------------------------
    Total     782     782      33      33      33       0
   -------------------------------------------------------

  ==> Integral Setup <==

  ==> DFJK: Density-Fitted J/K Matrices <==

    J tasked:                  Yes
    K tasked:                  Yes
    wK tasked:                  No
    OpenMP threads:             12
    Integrals threads:          12
    Memory (MB):             42915
    Algorithm:                Core
    Integral Cache:           NONE
    Schwarz Cutoff:          1E-12
    Fitting Condition:       1E-12

   => Auxiliary Basis Set <=

  Basis Set: 
    Number of shells: 492
    Number of basis function: 1660
    Number of Cartesian functions: 2038
    Spherical Harmonics?: true
    Max angular momentum: 4

  Minimum eigenvalue in the overlap matrix is 2.2352039894E-06.
  Using Symmetric Orthogonalization.
  SCF Guess: Reading in previously saved MOs, projecting if necessary.

  Using orbitals from previous SCF, no projection.
  Recomputing DOCC and SOCC from number of alpha and beta electrons from previous calculation.
              A 
    DOCC [    33 ]

  ==> Iterations <==

                           Total Energy        Delta E     RMS |[F,P]|

   @DF-RHF iter   0:  -313.53892638518010   -3.13539e+02   1.46568e-07 
   @DF-RHF iter   1:  -313.53898947694603   -6.30918e-05   4.09991e-08 
   @DF-RHF iter   2:  -313.53898947762940   -6.83372e-10   1.97017e-08 DIIS
   @DF-RHF iter   3:  -313.53898947776241   -1.33014e-10   4.78884e-09 DIIS
   @DF-RHF iter   4:  -313.53898947777913   -1.67120e-11   6.43386e-10 DIIS
   @DF-RHF iter   5:  -313.53898947777935   -2.27374e-13   2.30490e-10 DIIS
   @DF-RHF iter   6:  -313.53898947777776    1.59162e-12   5.18452e-11 DIIS

  ==> Post-Iterations <==

    Orbital Energies (a.u.)
    -----------------------

    Doubly Occupied:                                                      

       1A    -11.213002     2A    -11.212803     3A    -11.210915  
       4A    -11.210431     5A    -11.210268     6A    -11.209105  
       7A    -11.206817     8A    -11.205906     9A     -1.093780  
      10A     -1.060083    11A     -1.006939    12A     -0.948914  
      13A     -0.886300    14A     -0.828012    15A     -0.778089  
      16A     -0.768347    17A     -0.642987    18A     -0.626412  
      19A     -0.614116    20A     -0.595671    21A     -0.581342  
      22A     -0.558985    23A     -0.539474    24A     -0.533516  
      25A     -0.511452    26A     -0.503669    27A     -0.488424  
      28A     -0.473957    29A     -0.464166    30A     -0.462103  
      31A     -0.451126    32A     -0.440330    33A     -0.429072  

    Virtual:                                                              

      34A      0.029064    35A      0.031986    36A      0.034422  
      37A      0.035349    38A      0.046354    39A      0.047778  
      40A      0.049969    41A      0.054161    42A      0.055034  
      43A      0.067472    44A      0.068257    45A      0.070758  
      46A      0.073416    47A      0.076245    48A      0.084132  
      49A      0.095027    50A      0.099147    51A      0.101770  
      52A      0.111746    53A      0.113645    54A      0.118198  
      55A      0.122412    56A      0.127109    57A      0.133102  
      58A      0.134885    59A      0.136844    60A      0.141869  
      61A      0.144753    62A      0.148276    63A      0.151309  
      64A      0.154778    65A      0.161044    66A      0.162053  
      67A      0.165021    68A      0.169915    69A      0.171259  
      70A      0.174718    71A      0.175257    72A      0.182730  
      73A      0.192164    74A      0.194035    75A      0.198434  
      76A      0.199824    77A      0.213849    78A      0.217161  
      79A      0.221737    80A      0.228046    81A      0.236971  
      82A      0.246781    83A      0.251854    84A      0.256511  
      85A      0.266775    86A      0.269604    87A      0.274879  
      88A      0.285616    89A      0.295175    90A      0.296857  
      91A      0.299008    92A      0.305717    93A      0.307835  
      94A      0.312489    95A      0.313463    96A      0.322994  
      97A      0.327094    98A      0.329975    99A      0.333679  
     100A      0.337146   101A      0.342152   102A      0.346106  
     103A      0.347421   104A      0.353072   105A      0.357302  
     106A      0.359478   107A      0.363925   108A      0.367618  
     109A      0.370475   110A      0.373342   111A      0.374913  
     112A      0.378366   113A      0.382231   114A      0.388649  
     115A      0.392265   116A      0.393908   117A      0.394682  
     118A      0.399767   119A      0.400259   120A      0.407144  
     121A      0.414746   122A      0.416756   123A      0.424620  
     124A      0.430016   125A      0.432888   126A      0.433720  
     127A      0.439051   128A      0.444567   129A      0.448886  
     130A      0.454432   131A      0.455026   132A      0.458483  
     133A      0.461934   134A      0.462873   135A      0.468132  
     136A      0.472957   137A      0.474061   138A      0.478128  
     139A      0.483779   140A      0.485127   141A      0.489426  
     142A      0.495946   143A      0.500071   144A      0.501217  
     145A      0.506719   146A      0.510277   147A      0.512964  
     148A      0.518490   149A      0.524225   150A      0.528884  
     151A      0.531139   152A      0.534055   153A      0.541222  
     154A      0.543751   155A      0.546167   156A      0.551941  
     157A      0.553790   158A      0.560679   159A      0.565934  
     160A      0.571747   161A      0.577345   162A      0.578866  
     163A      0.584630   164A      0.586573   165A      0.589629  
     166A      0.601862   167A      0.607486   168A      0.609327  
     169A      0.611909   170A      0.617077   171A      0.619276  
     172A      0.631809   173A      0.636150   174A      0.636193  
     175A      0.646339   176A      0.647976   177A      0.649067  
     178A      0.652527   179A      0.659130   180A      0.663812  
     181A      0.665804   182A      0.674014   183A      0.676371  
     184A      0.685073   185A      0.690691   186A      0.695381  
     187A      0.701416   188A      0.704418   189A      0.713856  
     190A      0.715043   191A      0.721332   192A      0.734843  
     193A      0.741224   194A      0.742005   195A      0.748783  
     196A      0.754084   197A      0.764086   198A      0.769047  
     199A      0.777400   200A      0.781482   201A      0.793022  
     202A      0.808541   203A      0.818039   204A      0.825841  
     205A      0.833752   206A      0.839663   207A      0.844560  
     208A      0.848337   209A      0.858847   210A      0.860162  
     211A      0.863282   212A      0.869913   213A      0.878130  
     214A      0.883900   215A      0.886759   216A      0.891337  
     217A      0.892680   218A      0.897949   219A      0.901484  
     220A      0.913637   221A      0.916375   222A      0.918078  
     223A      0.925599   224A      0.931039   225A      0.936037  
     226A      0.941724   227A      0.945324   228A      0.950078  
     229A      0.955849   230A      0.957361   231A      0.963792  
     232A      0.971162   233A      0.975621   234A      0.978308  
     235A      0.985095   236A      0.989295   237A      0.991669  
     238A      1.002644   239A      1.004780   240A      1.009836  
     241A      1.017556   242A      1.023136   243A      1.025953  
     244A      1.031426   245A      1.033231   246A      1.041476  
     247A      1.045912   248A      1.049467   249A      1.060646  
     250A      1.061847   251A      1.070432   252A      1.078603  
     253A      1.081416   254A      1.083136   255A      1.091679  
     256A      1.101892   257A      1.104219   258A      1.108559  
     259A      1.114025   260A      1.115900   261A      1.121480  
     262A      1.127625   263A      1.129106   264A      1.135160  
     265A      1.139474   266A      1.145968   267A      1.155147  
     268A      1.158758   269A      1.163927   270A      1.170136  
     271A      1.176270   272A      1.180498   273A      1.187021  
     274A      1.190048   275A      1.200312   276A      1.204375  
     277A      1.207580   278A      1.212068   279A      1.222317  
     280A      1.223800   281A      1.228789   282A      1.232139  
     283A      1.236229   284A      1.242987   285A      1.249118  
     286A      1.255899   287A      1.259943   288A      1.265101  
     289A      1.273275   290A      1.275367   291A      1.283381  
     292A      1.288380   293A      1.297959   294A      1.298838  
[...]
	 Skipping Hessian update for step 16.
	Denominators (dg)(dq) or (dq)(dq) are very small.
	 Skipping Hessian update for step 15.
	Denominators (dg)(dq) or (dq)(dq) are very small.
	 Skipping Hessian update for step 14.
	Denominators (dg)(dq) or (dq)(dq) are very small.
	 Skipping Hessian update for step 13.
	Denominators (dg)(dq) or (dq)(dq) are very small.
	 Skipping Hessian update for step 12.
	Denominators (dg)(dq) or (dq)(dq) are very small.
	 Skipping Hessian update for step 11.
	Denominators (dg)(dq) or (dq)(dq) are very small.
	 Skipping Hessian update for step 10.
	Denominators (dg)(dq) or (dq)(dq) are very small.
	 Skipping Hessian update for step 9.
	Denominators (dg)(dq) or (dq)(dq) are very small.
	 Skipping Hessian update for step 8.
	Denominators (dg)(dq) or (dq)(dq) are very small.
	 Skipping Hessian update for step 7.
	Denominators (dg)(dq) or (dq)(dq) are very small.
	 Skipping Hessian update for step 6.
	Denominators (dg)(dq) or (dq)(dq) are very small.
	 Skipping Hessian update for step 5.
	Denominators (dg)(dq) or (dq)(dq) are very small.
	 Skipping Hessian update for step 4.
	Denominators (dg)(dq) or (dq)(dq) are very small.
	 Skipping Hessian update for step 3.
	Denominators (dg)(dq) or (dq)(dq) are very small.
	 Skipping Hessian update for step 2.
	Steps to be used in Hessian update: 1
	Taking RFO optimization step.
	Going to follow RFO solution 1.
	Using RFO vector 1.
	Norm of target step-size    0.00002
	Projected energy change by RFO approximation:        -0.0000000000

	Back-transformation to cartesian coordinates...
	Successfully converged to displaced geometry.

	--- Internal Coordinate Step in ANG or DEG, aJ/ANG or AJ/DEG ---
	 ---------------------------------------------------------------------------
	   Coordinate                Previous        Force       Change         New 
	   ----------                --------       ------       ------       ------
	    1 R(1,2)          =      1.090262     0.000001     0.000000     1.090262
	    2 R(1,3)          =      1.090855     0.000001     0.000000     1.090855
	    3 R(1,4)          =      1.088619     0.000002     0.000000     1.088619
	    4 R(1,9)          =      1.526591     0.000000     0.000000     1.526591
	    5 R(5,6)          =      1.089720     0.000001     0.000000     1.089721
	    6 R(5,7)          =      1.089397     0.000001     0.000000     1.089397
	    7 R(5,8)          =      1.091414     0.000001     0.000000     1.091414
	    8 R(5,12)         =      1.525003     0.000001     0.000000     1.525003
	    9 R(9,10)         =      1.091711     0.000001     0.000000     1.091712
	   10 R(9,11)         =      1.094018     0.000001     0.000000     1.094019
	   11 R(9,15)         =      1.535130     0.000002     0.000000     1.535130
	   12 R(12,13)        =      1.092274     0.000001     0.000000     1.092274
	   13 R(12,14)        =      1.093557     0.000001     0.000000     1.093557
	   14 R(12,24)        =      1.526803     0.000001     0.000000     1.526803
	   15 R(15,16)        =      1.094720     0.000001     0.000000     1.094720
	   16 R(15,17)        =      1.092233     0.000001     0.000000     1.092233
	   17 R(15,18)        =      1.528231    -0.000000    -0.000000     1.528231
	   18 R(18,19)        =      1.094343     0.000000     0.000000     1.094344
	   19 R(18,20)        =      1.094897     0.000000     0.000000     1.094897
	   20 R(18,21)        =      1.524390     0.000000     0.000000     1.524390
	   21 R(21,22)        =      1.093412     0.000000     0.000000     1.093412
	   22 R(21,23)        =      1.094089     0.000000     0.000000     1.094090
	   23 R(21,24)        =      1.524831     0.000000    -0.000000     1.524831
	   24 R(24,25)        =      1.093959    -0.000000    -0.000000     1.093959
	   25 R(24,26)        =      1.094960     0.000000     0.000000     1.094960
	   26 B(1,9,10)       =    108.240190    -0.000000    -0.000032   108.240158
	   27 B(1,9,11)       =    109.956716    -0.000000    -0.000003   109.956713
	   28 B(1,9,15)       =    113.743169     0.000000     0.000009   113.743178
	   29 B(2,1,3)        =    107.797071    -0.000000     0.000006   107.797076
	   30 B(2,1,4)        =    107.974402     0.000000     0.000013   107.974415
	   31 B(2,1,9)        =    111.286594     0.000000     0.000005   111.286598
	   32 B(3,1,4)        =    107.589541     0.000000     0.000007   107.589549
	   33 B(3,1,9)        =    110.191527     0.000000     0.000010   110.191537
	   34 B(4,1,9)        =    111.835460    -0.000000    -0.000039   111.835421
	   35 B(5,12,13)      =    109.202509    -0.000000    -0.000028   109.202481
	   36 B(5,12,14)      =    109.591184    -0.000000     0.000009   109.591194
	   37 B(5,12,24)      =    113.258360     0.000000     0.000009   113.258370
	   38 B(6,5,7)        =    107.605984     0.000000     0.000000   107.605984
	   39 B(6,5,8)        =    107.874878    -0.000000     0.000003   107.874880
	   40 B(6,5,12)       =    111.195689     0.000000     0.000002   111.195691
	   41 B(7,5,8)        =    107.815080     0.000000     0.000003   107.815083
	   42 B(7,5,12)       =    111.566201    -0.000000    -0.000010   111.566191
	   43 B(8,5,12)       =    110.620754     0.000000     0.000003   110.620756
	   44 B(9,15,16)      =    109.151839     0.000000     0.000014   109.151854
	   45 B(9,15,17)      =    109.429607    -0.000000    -0.000002   109.429605
	   46 B(9,15,18)      =    114.396549    -0.000000     0.000009   114.396558
	   47 B(10,9,11)      =    106.104473     0.000000     0.000004   106.104477
	   48 B(10,9,15)      =    109.359828     0.000000     0.000012   109.359840
	   49 B(11,9,15)      =    109.151609     0.000000     0.000009   109.151618
	   50 B(12,24,21)     =    113.820737     0.000000     0.000006   113.820743
	   51 B(12,24,25)     =    109.220304     0.000000     0.000003   109.220307
	   52 B(12,24,26)     =    109.288299     0.000000     0.000014   109.288313
	   53 B(13,12,14)     =    106.468902     0.000000     0.000003   106.468904
	   54 B(13,12,24)     =    109.040029    -0.000000    -0.000006   109.040023
	   55 B(14,12,24)     =    109.053493    -0.000000     0.000012   109.053505
	   56 B(15,18,19)     =    108.907808     0.000000     0.000001   108.907809
	   57 B(15,18,20)     =    108.800934    -0.000000    -0.000004   108.800930
	   58 B(15,18,21)     =    115.085837    -0.000000     0.000007   115.085844
	   59 B(16,15,17)     =    106.253456    -0.000000    -0.000007   106.253449
	   60 B(16,15,18)     =    109.390844    -0.000000    -0.000010   109.390834
	   61 B(17,15,18)     =    107.900978     0.000000    -0.000006   107.900971
	   62 B(18,21,22)     =    109.111113     0.000000    -0.000014   109.111099
	   63 B(18,21,23)     =    109.911065     0.000000     0.000035   109.911101
	   64 B(18,21,24)     =    112.052752    -0.000000    -0.000051   112.052701
	   65 B(19,18,20)     =    106.308610    -0.000000    -0.000000   106.308609
	   66 B(19,18,21)     =    108.620564    -0.000000    -0.000014   108.620550
	   67 B(20,18,21)     =    108.762461     0.000000     0.000010   108.762471
	   68 B(21,24,25)     =    108.666238    -0.000000    -0.000016   108.666223
	   69 B(21,24,26)     =    109.128836    -0.000000    -0.000001   109.128834
	   70 B(22,21,23)     =    106.785450    -0.000000     0.000012   106.785461
	   71 B(22,21,24)     =    110.097467     0.000000     0.000014   110.097481
	   72 B(23,21,24)     =    108.743817     0.000000     0.000008   108.743825
	   73 B(25,24,26)     =    106.454947    -0.000000    -0.000006   106.454940
	   74 D(1,9,15,16)    =    -28.947381     0.000000     0.000041   -28.947340
	   75 D(1,9,15,17)    =   -144.839702    -0.000000     0.000042  -144.839660
	   76 D(1,9,15,18)    =     93.970552    -0.000000     0.000045    93.970597
	   77 D(2,1,9,10)     =     58.961500    -0.000000    -0.000048    58.961452
	   78 D(2,1,9,11)     =    -56.530959     0.000000    -0.000034   -56.530993
	   79 D(2,1,9,15)     =   -179.284338     0.000000    -0.000050  -179.284387
	   80 D(3,1,9,10)     =    -60.562602    -0.000000    -0.000065   -60.562666
	   81 D(3,1,9,11)     =   -176.055061    -0.000000    -0.000050  -176.055111
	   82 D(3,1,9,15)     =     61.191561    -0.000000    -0.000066    61.191495
	   83 D(4,1,9,10)     =    179.818585    -0.000000    -0.000055   179.818530
	   84 D(4,1,9,11)     =     64.326126     0.000000    -0.000041    64.326085
	   85 D(4,1,9,15)     =    -58.427253     0.000000    -0.000057   -58.427310
	   86 D(5,12,24,21)   =    -62.623200    -0.000000     0.000047   -62.623153
	   87 D(5,12,24,25)   =    175.747119    -0.000000     0.000062   175.747181
	   88 D(5,12,24,26)   =     59.653937    -0.000000     0.000060    59.653997
	   89 D(6,5,12,13)    =    -53.799651     0.000000     0.000073   -53.799578
	   90 D(6,5,12,14)    =     62.470401    -0.000000     0.000065    62.470466
	   91 D(6,5,12,24)    =   -175.515096     0.000000     0.000094  -175.515002
	   92 D(7,5,12,13)    =   -173.939227     0.000000     0.000078  -173.939149
	   93 D(7,5,12,14)    =    -57.669176    -0.000000     0.000070   -57.669105
	   94 D(7,5,12,24)    =     64.345328     0.000000     0.000099    64.345426
	   95 D(8,5,12,13)    =     66.046048     0.000000     0.000079    66.046127
	   96 D(8,5,12,14)    =   -177.683901    -0.000000     0.000071  -177.683830
	   97 D(8,5,12,24)    =    -55.669397     0.000000     0.000100   -55.669298
	   98 D(9,15,18,19)   =    178.347470    -0.000000    -0.000103   178.347366
	   99 D(9,15,18,20)   =     62.869115    -0.000000    -0.000101    62.869013
	  100 D(9,15,18,21)   =    -59.443335    -0.000000    -0.000117   -59.443452
	  101 D(10,9,15,16)   =     92.183374    -0.000000     0.000015    92.183388
	  102 D(10,9,15,17)   =    -23.708948    -0.000000     0.000016   -23.708932
	  103 D(10,9,15,18)   =   -144.898694    -0.000000     0.000019  -144.898675
	  104 D(11,9,15,16)   =   -152.141546     0.000000     0.000032  -152.141514
	  105 D(11,9,15,17)   =     91.966132     0.000000     0.000033    91.966165
	  106 D(11,9,15,18)   =    -29.223614    -0.000000     0.000036   -29.223578
	  107 D(12,24,21,18)  =   -174.592169    -0.000000    -0.000234  -174.592403
	  108 D(12,24,21,22)  =     63.781762     0.000000    -0.000191    63.781571
	  109 D(12,24,21,23)  =    -52.891198    -0.000000    -0.000217   -52.891415
	  110 D(13,12,24,21)  =    175.570363     0.000000     0.000081   175.570443
	  111 D(13,12,24,25)  =     53.940682     0.000000     0.000095    53.940777
	  112 D(13,12,24,26)  =    -62.152500     0.000000     0.000093   -62.152407
	  113 D(14,12,24,21)  =     59.691102     0.000000     0.000074    59.691176
	  114 D(14,12,24,25)  =    -61.938578     0.000000     0.000088   -61.938490
	  115 D(14,12,24,26)  =   -178.031761     0.000000     0.000087  -178.031674
	  116 D(15,18,21,22)  =    -52.950243    -0.000000    -0.000030   -52.950273
	  117 D(15,18,21,23)  =     63.830113     0.000000    -0.000004    63.830109
	  118 D(15,18,21,24)  =   -175.140542    -0.000000    -0.000004  -175.140546
	  119 D(16,15,18,19)  =    -58.864000     0.000000    -0.000086   -58.864086
	  120 D(16,15,18,20)  =   -174.342355     0.000000    -0.000084  -174.342439
	  121 D(16,15,18,21)  =     63.345195    -0.000000    -0.000099    63.345096
	  122 D(17,15,18,19)  =     56.318629    -0.000000    -0.000103    56.318527
	  123 D(17,15,18,20)  =    -59.159726    -0.000000    -0.000101   -59.159826
	  124 D(17,15,18,21)  =    178.527824    -0.000000    -0.000116   178.527709
	  125 D(18,21,24,25)  =    -52.655578    -0.000000    -0.000238   -52.655816
	  126 D(18,21,24,26)  =     63.042881    -0.000000    -0.000255    63.042626
	  127 D(19,18,21,22)  =     69.413399    -0.000000    -0.000035    69.413363
	  128 D(19,18,21,23)  =   -173.806246     0.000000    -0.000009  -173.806255
	  129 D(19,18,21,24)  =    -52.776900    -0.000000    -0.000009   -52.776909
	  130 D(20,18,21,22)  =   -175.283370    -0.000000    -0.000038  -175.283408
	  131 D(20,18,21,23)  =    -58.503015     0.000000    -0.000012   -58.503027
	  132 D(20,18,21,24)  =     62.526331    -0.000000    -0.000012    62.526319
	  133 D(22,21,24,25)  =   -174.281647     0.000000    -0.000195  -174.281843
	  134 D(22,21,24,26)  =    -58.583188     0.000000    -0.000212   -58.583400
	  135 D(23,21,24,25)  =     69.045393    -0.000000    -0.000222    69.045172
	  136 D(23,21,24,26)  =   -175.256147    -0.000000    -0.000238  -175.256386
	  137 R(1,21)         =      3.383364     0.000000     0.000002     3.383366
	 ---------------------------------------------------------------------------

  ==> Convergence Check <==

  Measures of convergence in internal coordinates in au.
  Criteria marked as inactive (o), active & met (*), and active & unmet ( ).
  ---------------------------------------------------------------------------------------------
   Step     Total Energy     Delta E     MAX Force     RMS Force      MAX Disp      RMS Disp   
  ---------------------------------------------------------------------------------------------
    Convergence Criteria             o    2.00e-06 *    1.00e-06 *    6.00e-06 *    4.00e-06 *
  ---------------------------------------------------------------------------------------------
     18    -314.98060666   -2.43e-09 o    1.98e-07 *    5.52e-08 *    4.45e-06 *    1.32e-06 *  ~
  ---------------------------------------------------------------------------------------------


  **** Optimization is complete! (in 18 steps) ****

  ==> Optimization Summary <==

  Measures of convergence in internal coordinates in au.
  --------------------------------------------------------------------------------------------------------------- ~
   Step         Total Energy             Delta E       MAX Force       RMS Force        MAX Disp        RMS Disp  ~
  --------------------------------------------------------------------------------------------------------------- ~
      1    -314.980606659036   -314.980606659036      0.00000253      0.00000063      0.00007920      0.00003211  ~
      2    -314.980606662182     -0.000000003145      0.00000150      0.00000030      0.00007332      0.00002081  ~
      3    -314.980606660751      0.000000001431      0.00000104      0.00000018      0.00005382      0.00001882  ~
      4    -314.980606662285     -0.000000001535      0.00000121      0.00000031      0.00010978      0.00003171  ~
      5    -314.980606663595     -0.000000001310      0.00000079      0.00000025      0.00007231      0.00002906  ~
      6    -314.980606662563      0.000000001032      0.00000102      0.00000029      0.00009122      0.00002435  ~
      7    -314.980606663081     -0.000000000518      0.00000327      0.00000077      0.00008925      0.00002573  ~
      8    -314.980606658400      0.000000004681      0.00000083      0.00000019      0.00003786      0.00001366  ~
      9    -314.980606662978     -0.000000004578      0.00000242      0.00000060      0.00003971      0.00001472  ~
     10    -314.980606659766      0.000000003212      0.00000137      0.00000033      0.00005675      0.00002002  ~
     11    -314.980606663986     -0.000000004220      0.00000107      0.00000025      0.00003664      0.00001174  ~
     12    -314.980606662256      0.000000001730      0.00000062      0.00000016      0.00002936      0.00001034  ~
     13    -314.980606664105     -0.000000001849      0.00000095      0.00000022      0.00002685      0.00000851  ~
     14    -314.980606662719      0.000000001386      0.00000042      0.00000010      0.00001508      0.00000418  ~
     15    -314.980606664379     -0.000000001660      0.00000071      0.00000018      0.00001702      0.00000480  ~
     16    -314.980606660579      0.000000003800      0.00000148      0.00000036      0.00007659      0.00002357  ~
     17    -314.980606656777      0.000000003803      0.00000379      0.00000095      0.00007767      0.00002310  ~
     18    -314.980606659203     -0.000000002427      0.00000020      0.00000006      0.00000445      0.00000132  ~
  --------------------------------------------------------------------------------------------------------------- ~

	Writing optimization data to binary file.
	Final energy is   -314.9806066592031
	Final (previous) structure:
	Cartesian Geometry (in Angstrom)
	    C     2.3953751772   1.7114724505  -0.0429953336
	    H     2.8232905422   2.4033822105  -0.7688190277
	    H     2.8111625036   1.9554635333   0.9355514989
	    H     1.3226982090   1.8917803844   0.0010972787
	    C    -3.1052306857   1.0167290094   0.5779100867
	    H    -3.9501123665   1.6689520360   0.3582041985
	    H    -2.2535002733   1.6511933636   0.8203875564
	    H    -3.3530416888   0.4358641370   1.4680620594
	    C     2.7132421428   0.2626919796  -0.4042104684
	    H     3.7985196142   0.1484692880  -0.4351874777
	    H     2.3559879177   0.0427682249  -1.4145961106
	    C    -2.8004366506   0.0943408537  -0.5976470884
	    H    -3.7087985994  -0.4443086630  -0.8765686417
	    H    -2.5146421258   0.6916808644  -1.4679187689
	    C     2.1213662121  -0.7622234674   0.5734678833
	    H     2.0404541009  -0.3069153606   1.5657171372
	    H     2.8096809088  -1.6037514181   0.6784716839
	    C     0.7598616950  -1.3180439659   0.1577045849
	    H     0.4375174725  -2.0570105192   0.8977114147
	    H     0.8731969497  -1.8587774684  -0.7875797814
	    C    -0.3418848454  -0.2767152571  -0.0021476007
	    H    -0.4028242444   0.3229045503   0.9101532811
	    H    -0.0900704172   0.4102958369  -0.8155582818
	    C    -1.6940502405  -0.9150929822  -0.3008649648
	    H    -1.5821233424  -1.5884652139  -1.1557263243
	    H    -1.9918139752  -1.5388374902   0.5483796623
	Saving final (previous) structure.
			--------------------------
			 OPTKING Finished Execution 
			--------------------------

    Final optimized geometry and variables:
    Molecular point group: c1
    Full point group: C1

    Geometry (in Angstrom), charge = 0, multiplicity = 1:

    C            2.395375177197     1.711472450483    -0.042995333572
    H            2.823290542173     2.403382210496    -0.768819027662
    H            2.811162503592     1.955463533346     0.935551498945
    H            1.322698208957     1.891780384434     0.001097278678
    C           -3.105230685657     1.016729009404     0.577910086749
    H           -3.950112366475     1.668952035977     0.358204198475
    H           -2.253500273323     1.651193363640     0.820387556372
    H           -3.353041688835     0.435864137032     1.468062059449
    C            2.713242142797     0.262691979565    -0.404210468443
    H            3.798519614194     0.148469288021    -0.435187477725
    H            2.355987917705     0.042768224854    -1.414596110643
    C           -2.800436650571     0.094340853692    -0.597647088412
    H           -3.708798599415    -0.444308663013    -0.876568641651
    H           -2.514642125810     0.691680864419    -1.467918768853
    C            2.121366212129    -0.762223467398     0.573467883350
    H            2.040454100944    -0.306915360591     1.565717137209
    H            2.809680908761    -1.603751418084     0.678471683878
    C            0.759861695001    -1.318043965877     0.157704584933
    H            0.437517472481    -2.057010519151     0.897711414711
    H            0.873196949744    -1.858777468437    -0.787579781425
    C           -0.341884845391    -0.276715257107    -0.002147600726
    H           -0.402824244394     0.322904550302     0.910153281110
    H           -0.090070417157     0.410295836923    -0.815558281772
    C           -1.694050240494    -0.915092982202    -0.300864964800
    H           -1.582123342424    -1.588465213926    -1.155726324267
    H           -1.991813975208    -1.538837490222     0.548379662301

	Cleaning optimization helper files.

*** Psi4 exiting successfully. Buy a developer a beer!
