    -----------------------------------------------------------------------
          Psi4: An Open-Source Ab Initio Electronic Structure Package
                              Psi4 1.0.0 Driver

                          Git: Rev {master} 6a9a71b dirty

    J. M. Turney, A. C. Simmonett, R. M. Parrish, E. G. Hohenstein,
    F. A. Evangelista, J. T. Fermann, B. J. Mintz, L. A. Burns, J. J. Wilke,
    M. L. Abrams, N. J. Russ, M. L. Leininger, C. L. Janssen, E. T. Seidl,
    W. D. Allen, H. F. Schaefer, R. A. King, E. F. Valeev, C. D. Sherrill,
    and T. D. Crawford, WIREs Comput. Mol. Sci. 2, 556-565 (2012)
    (doi: 10.1002/wcms.93)

                         Additional Contributions by
    A. E. DePrince, U. Bozkaya, A. Yu. Sokolov, D. G. A. Smith, R. Di Remigio,
    R. M. Richard, J. F. Gonthier, H. R. McAlexander, M. Saitow, and
    B. P. Pritchard
    -----------------------------------------------------------------------


    Psi4 started on: Tue Sep 20 22:40:03 2016

    Process ID:  18040
    PSI4DATADIR: /usr/local/hpc5/psi4conda/share/psi4
    Memory level set to 256.000 MB

  ==> Input File <==

--------------------------------------------------------------------------
memory 60 Gb

molecule molecule_41_psi {
0 1
C           -2.069600499668    -1.692375477439    -0.522288752410
H           -1.960362599879    -2.763126766538    -0.350726135126
H           -1.516053473693    -1.447159355929    -1.428735456273
H           -3.124437015494    -1.488604803833    -0.713653690851
C            2.714177005283    -1.350823279937     0.119319298577
H            3.005364635807    -2.124674121738    -0.590539165019
H            2.235005233654    -1.838904017893     0.969582565052
H            3.622322016817    -0.868799585348     0.483699766663
C           -1.576300797208    -0.889858295557     0.676840157372
H           -0.527876162202    -1.123836160090     0.865964529719
H           -2.126550787274    -1.209492968298     1.565155655550
C            1.775322219636    -0.330271697472    -0.512230198000
H            2.253726594841     0.128548996966    -1.382298760037
H            0.884496502027    -0.840639625222    -0.884471561708
C           -1.768611459935     0.619558024858     0.505173205357
H           -1.562823770589     1.123951236390     1.454474175468
H           -2.828125970796     0.790942164255     0.293968427263
C           -0.924259046183     1.278599797780    -0.593977982339
H           -1.479029658282     2.125042217736    -1.005133315902
H           -0.784084434002     0.586513386052    -1.427002821631
C            0.430305832785     1.808379808204    -0.117466701802
H            0.929900176537     2.301331339399    -0.957141848356
H            0.249533064524     2.584069646227     0.632513149091
C            1.377988246266     0.765202649422     0.469848077990
H            2.286155349354     1.269305728210     0.814023180621
H            0.930764266240     0.314012307902     1.360065559390
}

set globals {
  reference rhf
  g_convergence gau_verytight
  basis aug-cc-pvtz
  freeze_core true
  scf_type df
  mp_type df
}
optimize('mp2')
--------------------------------------------------------------------------
/usr/local/hpc5/psi4conda/lib/python2.7/site-packages/v2rdm_casscf/v2rdm_casscf.so loaded.

  Memory set to  60.000 GiB by Python script.
gradient() will perform analytic gradient computation.

*** tstart() called on wr28
*** at Tue Sep 20 22:40:03 2016


         ---------------------------------------------------------
                                   SCF
            by Justin Turney, Rob Parrish, and Andy Simmonett
                              RHF Reference
                       12 Threads,  60000 MiB Core
         ---------------------------------------------------------

  ==> Geometry <==

    Molecular point group: c1
    Full point group: C1

    Geometry (in Angstrom), charge = 0, multiplicity = 1:

       Center              X                  Y                   Z               Mass       
    ------------   -----------------  -----------------  -----------------  -----------------
           C         -2.069600499668    -1.692375477439    -0.522288752410    12.000000000000
           H         -1.960362599879    -2.763126766538    -0.350726135126     1.007825032070
           H         -1.516053473693    -1.447159355929    -1.428735456273     1.007825032070
           H         -3.124437015494    -1.488604803833    -0.713653690851     1.007825032070
           C          2.714177005283    -1.350823279937     0.119319298577    12.000000000000
           H          3.005364635807    -2.124674121738    -0.590539165019     1.007825032070
           H          2.235005233654    -1.838904017893     0.969582565052     1.007825032070
           H          3.622322016817    -0.868799585348     0.483699766663     1.007825032070
           C         -1.576300797208    -0.889858295557     0.676840157372    12.000000000000
           H         -0.527876162202    -1.123836160090     0.865964529719     1.007825032070
           H         -2.126550787274    -1.209492968298     1.565155655550     1.007825032070
           C          1.775322219636    -0.330271697472    -0.512230198000    12.000000000000
           H          2.253726594841     0.128548996966    -1.382298760037     1.007825032070
           H          0.884496502027    -0.840639625222    -0.884471561708     1.007825032070
           C         -1.768611459935     0.619558024858     0.505173205357    12.000000000000
           H         -1.562823770589     1.123951236390     1.454474175468     1.007825032070
           H         -2.828125970796     0.790942164255     0.293968427263     1.007825032070
           C         -0.924259046183     1.278599797780    -0.593977982339    12.000000000000
           H         -1.479029658282     2.125042217736    -1.005133315902     1.007825032070
           H         -0.784084434002     0.586513386052    -1.427002821631     1.007825032070
           C          0.430305832785     1.808379808204    -0.117466701802    12.000000000000
           H          0.929900176537     2.301331339399    -0.957141848356     1.007825032070
           H          0.249533064524     2.584069646227     0.632513149091     1.007825032070
           C          1.377988246266     0.765202649422     0.469848077990    12.000000000000
           H          2.286155349354     1.269305728210     0.814023180621     1.007825032070
           H          0.930764266240     0.314012307902     1.360065559390     1.007825032070

  Running in c1 symmetry.

  Rotational constants: A =      0.07530  B =      0.04253  C =      0.03138 [cm^-1]
  Rotational constants: A =   2257.50116  B =   1275.13884  C =    940.75621 [MHz]
  Nuclear repulsion =  408.169577256604839

  Charge       = 0
  Multiplicity = 1
  Electrons    = 66
  Nalpha       = 33
  Nbeta        = 33

  ==> Algorithm <==

  SCF Algorithm Type is DF.
  DIIS enabled.
  MOM disabled.
  Fractional occupation disabled.
  Guess Type is SAD.
  Energy threshold   = 1.00e-10
  Density threshold  = 1.00e-10
  Integral threshold = 0.00e+00

  ==> Primary Basis <==

  Basis Set: AUG-CC-PVTZ
    Number of shells: 274
    Number of basis function: 782
    Number of Cartesian functions: 890
    Spherical Harmonics?: true
    Max angular momentum: 3

  ==> Pre-Iterations <==

   -------------------------------------------------------
    Irrep   Nso     Nmo     Nalpha   Nbeta   Ndocc  Nsocc
   -------------------------------------------------------
     A        782     782       0       0       0       0
   -------------------------------------------------------
    Total     782     782      33      33      33       0
   -------------------------------------------------------

  ==> Integral Setup <==

  ==> DFJK: Density-Fitted J/K Matrices <==

    J tasked:                  Yes
    K tasked:                  Yes
    wK tasked:                  No
    OpenMP threads:             12
    Integrals threads:          12
    Memory (MB):             42915
    Algorithm:                Core
    Integral Cache:           NONE
    Schwarz Cutoff:          1E-12
    Fitting Condition:       1E-12

   => Auxiliary Basis Set <=

  Basis Set: 
    Number of shells: 492
    Number of basis function: 1660
    Number of Cartesian functions: 2038
    Spherical Harmonics?: true
    Max angular momentum: 4

  Minimum eigenvalue in the overlap matrix is 1.7436746599E-06.
  Using Symmetric Orthogonalization.
  SCF Guess: Superposition of Atomic Densities via on-the-fly atomic UHF.

  ==> Iterations <==

                           Total Energy        Delta E     RMS |[F,P]|

   @DF-RHF iter   0:  -317.17101031080426   -3.17171e+02   7.10750e-03 
   @DF-RHF iter   1:  -313.29717296684373    3.87384e+00   6.95576e-04 
   @DF-RHF iter   2:  -313.50942847133081   -2.12256e-01   2.30179e-04 DIIS
   @DF-RHF iter   3:  -313.53162298334621   -2.21945e-02   9.35466e-05 DIIS
   @DF-RHF iter   4:  -313.53576170751433   -4.13872e-03   1.83156e-05 DIIS
   @DF-RHF iter   5:  -313.53597085431579   -2.09147e-04   4.95963e-06 DIIS
   @DF-RHF iter   6:  -313.53598590941249   -1.50551e-05   1.48963e-06 DIIS
   @DF-RHF iter   7:  -313.53598729111309   -1.38170e-06   3.30687e-07 DIIS
   @DF-RHF iter   8:  -313.53598737118750   -8.00744e-08   9.24067e-08 DIIS
   @DF-RHF iter   9:  -313.53598737664902   -5.46152e-09   2.62410e-08 DIIS
   @DF-RHF iter  10:  -313.53598737707262   -4.23597e-10   6.90736e-09 DIIS
   @DF-RHF iter  11:  -313.53598737710422   -3.16049e-11   1.69284e-09 DIIS
   @DF-RHF iter  12:  -313.53598737710706   -2.84217e-12   4.51813e-10 DIIS
   @DF-RHF iter  13:  -313.53598737710774   -6.82121e-13   1.30951e-10 DIIS
   @DF-RHF iter  14:  -313.53598737710661    1.13687e-12   3.78925e-11 DIIS

  ==> Post-Iterations <==

    Orbital Energies (a.u.)
    -----------------------

    Doubly Occupied:                                                      

       1A    -11.212455     2A    -11.212037     3A    -11.211261  
       4A    -11.210901     5A    -11.209631     6A    -11.209314  
       7A    -11.207717     8A    -11.207316     9A     -1.094975  
      10A     -1.056875    11A     -1.010189    12A     -0.946463  
      13A     -0.888354    14A     -0.832022    15A     -0.790213  
      16A     -0.750131    17A     -0.653366    18A     -0.628361  
      19A     -0.607207    20A     -0.587863    21A     -0.580927  
      22A     -0.570459    23A     -0.542480    24A     -0.525816  
      25A     -0.515201    26A     -0.505459    27A     -0.493887  
      28A     -0.471146    29A     -0.469626    30A     -0.460597  
      31A     -0.440068    32A     -0.437726    33A     -0.435637  

    Virtual:                                                              

      34A      0.028550    35A      0.032946    36A      0.033676  
      37A      0.035234    38A      0.047281    39A      0.048853  
      40A      0.050842    41A      0.052924    42A      0.056614  
      43A      0.068518    44A      0.069468    45A      0.071807  
      46A      0.073533    47A      0.078612    48A      0.082843  
      49A      0.086612    50A      0.096241    51A      0.098093  
      52A      0.112794    53A      0.118403    54A      0.121765  
      55A      0.128254    56A      0.130521    57A      0.133561  
      58A      0.136291    59A      0.139956    60A      0.143955  
      61A      0.144889    62A      0.147454    63A      0.149085  
      64A      0.152650    65A      0.155596    66A      0.161084  
      67A      0.166503    68A      0.170248    69A      0.172448  
      70A      0.175756    71A      0.176964    72A      0.181259  
      73A      0.185949    74A      0.188574    75A      0.195337  
      76A      0.199445    77A      0.214978    78A      0.216970  
      79A      0.226376    80A      0.231511    81A      0.235472  
      82A      0.246991    83A      0.253909    84A      0.255266  
      85A      0.268822    86A      0.275272    87A      0.283711  
      88A      0.286186    89A      0.290387    90A      0.300845  
      91A      0.301900    92A      0.306373    93A      0.310806  
      94A      0.315594    95A      0.322337    96A      0.324659  
      97A      0.326653    98A      0.331155    99A      0.332805  
     100A      0.339540   101A      0.341788   102A      0.346725  
     103A      0.350876   104A      0.353974   105A      0.357471  
     106A      0.362827   107A      0.364218   108A      0.366639  
     109A      0.368988   110A      0.371355   111A      0.378450  
     112A      0.382695   113A      0.383952   114A      0.392897  
     115A      0.394371   116A      0.397526   117A      0.403069  
     118A      0.409692   119A      0.412635   120A      0.414926  
     121A      0.419123   122A      0.422623   123A      0.427635  
     124A      0.433468   125A      0.440441   126A      0.442849  
     127A      0.445228   128A      0.449146   129A      0.455513  
     130A      0.457013   131A      0.461549   132A      0.463409  
     133A      0.465670   134A      0.471620   135A      0.476000  
     136A      0.479150   137A      0.481121   138A      0.484434  
     139A      0.488690   140A      0.490945   141A      0.496533  
     142A      0.504508   143A      0.508504   144A      0.510551  
     145A      0.518377   146A      0.520951   147A      0.525304  
     148A      0.526914   149A      0.531283   150A      0.536301  
     151A      0.537179   152A      0.541053   153A      0.547699  
     154A      0.552320   155A      0.555138   156A      0.563084  
     157A      0.565982   158A      0.571118   159A      0.573544  
     160A      0.580211   161A      0.584873   162A      0.592072  
     163A      0.595182   164A      0.598906   165A      0.601598  
     166A      0.606883   167A      0.610833   168A      0.613958  
     169A      0.619358   170A      0.625523   171A      0.633946  
     172A      0.636609   173A      0.641824   174A      0.649016  
     175A      0.652288   176A      0.654460   177A      0.659607  
     178A      0.666577   179A      0.674477   180A      0.676572  
     181A      0.684867   182A      0.689191   183A      0.693779  
     184A      0.699408   185A      0.700721   186A      0.708228  
     187A      0.714876   188A      0.719200   189A      0.723574  
     190A      0.726217   191A      0.731354   192A      0.739780  
     193A      0.745134   194A      0.749318   195A      0.758704  
     196A      0.763044   197A      0.767360   198A      0.776521  
     199A      0.778602   200A      0.780714   201A      0.794123  
     202A      0.802582   203A      0.815825   204A      0.823569  
     205A      0.833035   206A      0.839425   207A      0.845483  
     208A      0.853526   209A      0.866702   210A      0.870872  
     211A      0.875905   212A      0.880459   213A      0.887504  
     214A      0.894256   215A      0.901471   216A      0.903114  
     217A      0.905683   218A      0.910288   219A      0.914091  
     220A      0.923004   221A      0.924416   222A      0.927521  
     223A      0.933422   224A      0.937790   225A      0.944037  
     226A      0.945795   227A      0.948219   228A      0.957596  
     229A      0.964411   230A      0.966522   231A      0.975101  
     232A      0.979054   233A      0.982725   234A      0.990026  
     235A      0.990813   236A      0.996212   237A      1.005081  
     238A      1.008695   239A      1.010144   240A      1.016876  
     241A      1.027259   242A      1.027407   243A      1.037855  
     244A      1.041020   245A      1.050343   246A      1.057417  
     247A      1.061168   248A      1.064350   249A      1.070221  
     250A      1.079337   251A      1.085630   252A      1.087896  
     253A      1.092137   254A      1.096217   255A      1.103441  
     256A      1.108948   257A      1.114019   258A      1.118952  
     259A      1.121432   260A      1.127913   261A      1.137713  
     262A      1.146583   263A      1.150403   264A      1.156951  
     265A      1.158373   266A      1.167451   267A      1.170848  
     268A      1.181750   269A      1.182467   270A      1.185674  
     271A      1.190652   272A      1.197975   273A      1.199318  
     274A      1.208758   275A      1.212273   276A      1.217006  
     277A      1.220642   278A      1.228782   279A      1.237118  
     280A      1.240707   281A      1.243302   282A      1.252239  
     283A      1.254327   284A      1.258945   285A      1.267918  
     286A      1.272794   287A      1.282228   288A      1.285168  
     289A      1.287730   290A      1.291142   291A      1.293157  
     292A      1.294163   293A      1.305660   294A      1.309025  
     295A      1.317594   296A      1.318434   297A      1.327991  
     298A      1.337858   299A      1.346751   300A      1.356723  
     301A      1.360822   302A      1.370526   303A      1.377909  
     304A      1.379328   305A      1.383283   306A      1.393267  
     307A      1.399489   308A      1.407894   309A      1.413547  
     310A      1.419910   311A      1.427441   312A      1.433301  
     313A      1.438392   314A      1.443076   315A      1.461076  
     316A      1.473143   317A      1.479286   318A      1.483627  
     319A      1.490881   320A      1.495868   321A      1.500168  
     322A      1.507314   323A      1.514177   324A      1.519987  
     325A      1.529704   326A      1.533111   327A      1.535936  
     328A      1.546035   329A      1.549178   330A      1.556863  
     331A      1.564575   332A      1.571564   333A      1.587363  
     334A      1.593207   335A      1.596430   336A      1.610748  
     337A      1.612398   338A      1.626437   339A      1.632419  
     340A      1.637528   341A      1.646022   342A      1.649180  
     343A      1.654919   344A      1.663273   345A      1.672188  
     346A      1.675539   347A      1.681684   348A      1.687676  
     349A      1.694486   350A      1.702274   351A      1.710981  
     352A      1.716320   353A      1.722784   354A      1.730394  
     355A      1.733577   356A      1.737720   357A      1.746825  
     358A      1.756967   359A      1.759528   360A      1.763124  
     361A      1.767548   362A      1.777468   363A      1.784855  
     364A      1.793494   365A      1.795162   366A      1.806657  
     367A      1.807894   368A      1.812769   369A      1.815933  
     370A      1.819025   371A      1.827760   372A      1.840021  
     373A      1.843221   374A      1.850348   375A      1.854725  
     376A      1.859671   377A      1.864061   378A      1.868089  
     379A      1.876829   380A      1.884384   381A      1.893354  
     382A      1.893509   383A      1.909373   384A      1.916384  
     385A      1.921029   386A      1.929967   387A      1.934687  
     388A      1.940066   389A      1.941945   390A      1.949220  
     391A      1.952709   392A      1.963490   393A      1.969127  
     394A      1.977237   395A      1.986795   396A      1.988511  
     397A      1.992908   398A      2.000434   399A      2.014431  
     400A      2.020923   401A      2.027543   402A      2.036209  
     403A      2.047895   404A      2.050627   405A      2.060620  
     406A      2.066570   407A      2.077201   408A      2.080093  
     409A      2.093838   410A      2.101566   411A      2.102920  
     412A      2.109137   413A      2.114687   414A      2.122730  
     415A      2.130395   416A      2.131792   417A      2.146173  
     418A      2.152963   419A      2.161273   420A      2.164142  
     421A      2.173138   422A      2.185923   423A      2.197060  
     424A      2.199572   425A      2.215008   426A      2.218306  
     427A      2.231512   428A      2.233807   429A      2.240411  
     430A      2.256756   431A      2.265558   432A      2.279347  
     433A      2.283300   434A      2.284320   435A      2.296190  
     436A      2.307211   437A      2.314625   438A      2.318657  
     439A      2.322722   440A      2.349488   441A      2.354749  
     442A      2.359577   443A      2.369022   444A      2.383562  
     445A      2.393514   446A      2.398418   447A      2.411434  
     448A      2.418564   449A      2.431512   450A      2.435547  
     451A      2.441158   452A      2.445844   453A      2.458398  
     454A      2.462206   455A      2.472311   456A      2.478976  
     457A      2.489559   458A      2.506157   459A      2.510746  
     460A      2.523480   461A      2.528919   462A      2.536136  
     463A      2.546250   464A      2.557263   465A      2.571529  
     466A      2.583295   467A      2.610751   468A      2.617610  
     469A      2.623256   470A      2.631671   471A      2.644401  
     472A      2.657616   473A      2.666928   474A      2.680211  
     475A      2.696749   476A      2.718657   477A      2.728009  
     478A      2.731503   479A      2.747784   480A      2.762009  
     481A      2.800245   482A      2.814393   483A      2.833089  
     484A      2.841984   485A      2.954206   486A      2.969203  
     487A      3.010505   488A      3.066408   489A      3.079037  
     490A      3.119197   491A      3.217074   492A      3.257200  
     493A      3.293544   494A      3.328944   495A      3.343346  
     496A      3.397209   497A      3.432195   498A      3.453667  
     499A      3.472338   500A      3.488959   501A      3.499686  
     502A      3.505541   503A      3.517743   504A      3.536834  
     505A      3.550790   506A      3.557765   507A      3.579017  
     508A      3.601283   509A      3.610354   510A      3.617811  
     511A      3.620735   512A      3.635981   513A      3.644443  
     514A      3.652996   515A      3.669987   516A      3.677827  
     517A      3.694382   518A      3.699167   519A      3.706244  
     520A      3.709799   521A      3.713798   522A      3.737441  
     523A      3.744513   524A      3.758754   525A      3.767098  
     526A      3.771095   527A      3.780065   528A      3.790688  
     529A      3.804721   530A      3.813638   531A      3.819834  
     532A      3.828475   533A      3.839820   534A      3.840864  
     535A      3.848748   536A      3.867045   537A      3.872117  
     538A      3.878988   539A      3.883517   540A      3.899621  
     541A      3.903107   542A      3.908514   543A      3.917932  
     544A      3.924089   545A      3.930333   546A      3.934852  
     547A      3.947366   548A      3.955578   549A      3.968713  
     550A      3.973692   551A      3.976310   552A      3.987966  
     553A      3.995217   554A      4.001047   555A      4.012887  
     556A      4.016453   557A      4.019767   558A      4.025689  
     559A      4.028905   560A      4.034216   561A      4.045144  
     562A      4.050910   563A      4.060742   564A      4.071708  
     565A      4.079899   566A      4.085831   567A      4.091639  
     568A      4.102782   569A      4.111606   570A      4.120732  
     571A      4.124426   572A      4.133451   573A      4.144571  
     574A      4.151877   575A      4.156847   576A      4.177832  
     577A      4.179701   578A      4.191967   579A      4.201410  
     580A      4.208495   581A      4.215373   582A      4.229027  
     583A      4.236395   584A      4.250314   585A      4.256478  
     586A      4.261435   587A      4.268713   588A      4.276964  
     589A      4.285324   590A      4.290364   591A      4.302282  
     592A      4.308728   593A      4.314225   594A      4.320159  
     595A      4.330319   596A      4.352834   597A      4.357358  
     598A      4.367130   599A      4.380562   600A      4.396084  
     601A      4.396453   602A      4.402482   603A      4.417526  
     604A      4.422146   605A      4.423317   606A      4.437880  
     607A      4.446985   608A      4.458581   609A      4.488677  
     610A      4.497569   611A      4.509476   612A      4.529438  
     613A      4.538168   614A      4.550345   615A      4.559982  
     616A      4.586391   617A      4.599020   618A      4.613177  
     619A      4.625235   620A      4.640729   621A      4.653125  
     622A      4.672042   623A      4.681615   624A      4.688885  
     625A      4.698534   626A      4.705962   627A      4.719859  
     628A      4.726778   629A      4.732017   630A      4.749728  
     631A      4.752962   632A      4.771694   633A      4.784624  
     634A      4.796017   635A      4.804679   636A      4.812105  
     637A      4.828997   638A      4.836954   639A      4.848131  
     640A      4.860609   641A      4.872823   642A      4.875656  
     643A      4.881209   644A      4.887221   645A      4.897599  
     646A      4.910644   647A      4.922217   648A      4.941960  
     649A      4.946795   650A      4.955653   651A      4.972695  
     652A      4.979332   653A      4.993438   654A      4.997613  
     655A      5.012036   656A      5.030235   657A      5.039904  
     658A      5.058889   659A      5.059360   660A      5.080228  
     661A      5.086405   662A      5.103534   663A      5.114965  
     664A      5.128517   665A      5.149240   666A      5.159395  
     667A      5.178908   668A      5.190069   669A      5.202659  
     670A      5.211170   671A      5.217063   672A      5.224758  
     673A      5.236955   674A      5.251011   675A      5.262781  
     676A      5.270345   677A      5.282292   678A      5.292481  
     679A      5.292913   680A      5.317491   681A      5.330794  
     682A      5.337724   683A      5.342751   684A      5.362263  
     685A      5.363526   686A      5.372958   687A      5.385575  
     688A      5.398017   689A      5.414504   690A      5.414756  
     691A      5.431507   692A      5.433903   693A      5.453430  
     694A      5.458035   695A      5.463544   696A      5.473824  
     697A      5.485017   698A      5.494010   699A      5.505663  
     700A      5.521642   701A      5.528775   702A      5.543619  
     703A      5.547847   704A      5.583509   705A      5.591691  
     706A      5.613420   707A      5.618910   708A      5.624643  
     709A      5.650496   710A      5.666237   711A      5.673617  
     712A      5.679242   713A      5.698487   714A      5.704251  
     715A      5.710806   716A      5.724490   717A      5.735991  
     718A      5.738127   719A      5.755434   720A      5.768392  
     721A      5.776800   722A      5.788264   723A      5.803277  
     724A      5.804774   725A      5.832569   726A      5.844994  
     727A      5.851239   728A      5.870294   729A      5.881616  
     730A      5.893262   731A      5.901749   732A      5.955362  
     733A      5.979918   734A      5.994367   735A      6.032992  
     736A      6.061678   737A      6.070134   738A      6.072480  
     739A      6.099464   740A      6.130390   741A      6.141994  
     742A      6.150049   743A      6.194338   744A      6.217047  
     745A      6.243490   746A      6.258306   747A      6.274435  
     748A      6.290529   749A      6.307520   750A      6.311157  
     751A      6.328835   752A      6.349996   753A      6.365632  
     754A      6.385642   755A      6.408512   756A      6.434115  
     757A      6.456484   758A      6.476716   759A      6.628448  
     760A      6.640444   761A      6.705593   762A      6.719998  
     763A      6.730986   764A      6.793936   765A      6.854781  
     766A      6.884484   767A      6.908821   768A      6.933911  
     769A      6.995331   770A      7.027397   771A      7.072049  
     772A      7.119104   773A      7.134322   774A      7.168926  
     775A     18.156409   776A     18.238747   777A     18.360966  
     778A     18.490360   779A     18.600482   780A     19.240939  
     781A     19.722775   782A     19.957440  

    Final Occupation by Irrep:
              A 
    DOCC [    33 ]

  Energy converged.

  @DF-RHF Final Energy:  -313.53598737710661

   => Energetics <=

    Nuclear Repulsion Energy =            408.1695772566048390
    One-Electron Energy =               -1231.4597742884423042
    Two-Electron Energy =                 509.7542096547308006
    DFT Exchange-Correlation Energy =       0.0000000000000000
    Empirical Dispersion Energy =           0.0000000000000000
    PCM Polarization Energy =               0.0000000000000000
    EFP Energy =                            0.0000000000000000
    Total Energy =                       -313.5359873771066646


  Saving occupied orbitals to File 180.

*** tstop() called on wr28 at Tue Sep 20 22:41:29 2016
Module time:
	user time   =     920.34 seconds =      15.34 minutes
	system time =      12.61 seconds =       0.21 minutes
	total time  =         86 seconds =       1.43 minutes
Total time:
	user time   =     920.34 seconds =      15.34 minutes
	system time =      12.61 seconds =       0.21 minutes
	total time  =         86 seconds =       1.43 minutes


Properties will be evaluated at   0.000000,   0.000000,   0.000000 Bohr

Properties computed using the SCF density matrix

  Nuclear Dipole Moment: (a.u.)
     X:     0.4574      Y:    -2.3263      Z:    -0.2815

  Electronic Dipole Moment: (a.u.)
     X:    -0.4676      Y:     2.3533      Z:     0.2824

  Dipole Moment: (a.u.)
     X:    -0.0102      Y:     0.0270      Z:     0.0009     Total:     0.0289

  Dipole Moment: (Debye)
     X:    -0.0260      Y:     0.0686      Z:     0.0022     Total:     0.0734


  //>>>>>>>>>>>>>>>>>>>>>>>>>>>>>>>>>>>//
  //               DFMP2               //
  //<<<<<<<<<<<<<<<<<<<<<<<<<<<<<<<<<<<//


*** tstart() called on wr28
*** at Tue Sep 20 22:41:30 2016


*** tstop() called on wr28 at Tue Sep 20 22:41:30 2016
Module time:
	user time   =       3.50 seconds =       0.06 minutes
	system time =       0.13 seconds =       0.00 minutes
	total time  =          0 seconds =       0.00 minutes
Total time:
	user time   =     923.96 seconds =      15.40 minutes
	system time =      12.74 seconds =       0.21 minutes
	total time  =         87 seconds =       1.45 minutes
	 --------------------------------------------------------
	                          DF-MP2                         
	      2nd-Order Density-Fitted Moller-Plesset Theory     
	              RMP2 Wavefunction,  12 Threads             
	                                                         
	        Rob Parrish, Justin Turney, Andy Simmonett,      
	           Ed Hohenstein, and C. David Sherrill          
	 --------------------------------------------------------

   => Auxiliary Basis Set <=

  Basis Set: 
    Number of shells: 476
    Number of basis function: 1676
    Number of Cartesian functions: 2078
    Spherical Harmonics?: true
    Max angular momentum: 4

	 --------------------------------------------------------
	                 NBF =   782, NAUX =  1676
	 --------------------------------------------------------
	   CLASS    FOCC     OCC    AOCC    AVIR     VIR    FVIR
	   PAIRS       8      33      25     749     749       0
	 --------------------------------------------------------

DGAS Warning! /src/lib/libfock/apps.cc:80 is not currently checking restricted

         ------------------------------------------------------------
                                     CPHF                           
                                  Rob Parrish                       
         ------------------------------------------------------------

  ==> Geometry <==

    Molecular point group: c1
    Full point group: C1

    Geometry (in Angstrom), charge = 0, multiplicity = 1:

       Center              X                  Y                   Z               Mass       
    ------------   -----------------  -----------------  -----------------  -----------------
           C         -2.069600499668    -1.692375477439    -0.522288752410    12.000000000000
           H         -1.960362599879    -2.763126766538    -0.350726135126     1.007825032070
           H         -1.516053473693    -1.447159355929    -1.428735456273     1.007825032070
           H         -3.124437015494    -1.488604803833    -0.713653690851     1.007825032070
           C          2.714177005283    -1.350823279937     0.119319298577    12.000000000000
           H          3.005364635807    -2.124674121738    -0.590539165019     1.007825032070
           H          2.235005233654    -1.838904017893     0.969582565052     1.007825032070
           H          3.622322016817    -0.868799585348     0.483699766663     1.007825032070
           C         -1.576300797208    -0.889858295557     0.676840157372    12.000000000000
           H         -0.527876162202    -1.123836160090     0.865964529719     1.007825032070
           H         -2.126550787274    -1.209492968298     1.565155655550     1.007825032070
           C          1.775322219636    -0.330271697472    -0.512230198000    12.000000000000
           H          2.253726594841     0.128548996966    -1.382298760037     1.007825032070
           H          0.884496502027    -0.840639625222    -0.884471561708     1.007825032070
           C         -1.768611459935     0.619558024858     0.505173205357    12.000000000000
           H         -1.562823770589     1.123951236390     1.454474175468     1.007825032070
           H         -2.828125970796     0.790942164255     0.293968427263     1.007825032070
           C         -0.924259046183     1.278599797780    -0.593977982339    12.000000000000
           H         -1.479029658282     2.125042217736    -1.005133315902     1.007825032070
           H         -0.784084434002     0.586513386052    -1.427002821631     1.007825032070
           C          0.430305832785     1.808379808204    -0.117466701802    12.000000000000
           H          0.929900176537     2.301331339399    -0.957141848356     1.007825032070
           H          0.249533064524     2.584069646227     0.632513149091     1.007825032070
           C          1.377988246266     0.765202649422     0.469848077990    12.000000000000
           H          2.286155349354     1.269305728210     0.814023180621     1.007825032070
           H          0.930764266240     0.314012307902     1.360065559390     1.007825032070

  Nuclear repulsion =  408.169577256604839
  Reference energy  = -313.535987377106608

  ==> Basis Set <==

  Basis Set: AUG-CC-PVTZ
    Number of shells: 274
    Number of basis function: 782
    Number of Cartesian functions: 890
    Spherical Harmonics?: true
    Max angular momentum: 3

  ==> CGRSolver (by Rob Parrish) <==

   Number of roots    =         1
   Preconditioning    =    JACOBI
   Convergence cutoff =     1E-06
   Maximum iterations =       100

  ==> CPHFRHamiltonian (by Rob Parrish) <== 

  ==> DFJK: Density-Fitted J/K Matrices <==

    J tasked:                  Yes
    K tasked:                  Yes
    wK tasked:                  No
    OpenMP threads:             12
    Integrals threads:          12
    Memory (MB):             42915
    Algorithm:                Core
    Integral Cache:           NONE
    Schwarz Cutoff:          1E-12
    Fitting Condition:       1E-12

   => Auxiliary Basis Set <=

  Basis Set: 
    Number of shells: 492
    Number of basis function: 1660
    Number of Cartesian functions: 2038
    Spherical Harmonics?: true
    Max angular momentum: 4

  ==> CPHF Iterations <==

  => Iterations <=

             Iter  Converged  Remaining    Residual
  CGR           1          0          1   9.358E-02
  CGR           2          0          1   1.389E-02
  CGR           3          0          1   4.350E-03
  CGR           4          0          1   8.973E-04
  CGR           5          0          1   2.143E-04
  CGR           6          0          1   4.884E-05
  CGR           7          0          1   1.352E-05
  CGR           8          0          1   3.446E-06
  CGR           9          1          0   8.824E-07

    CGRSolver converged.

  ==> DFCorrGrad: Density-Fitted Correlated Gradients <==

    OpenMP threads:             12
    Integrals threads:          12
    Memory (MB):             42915
    Schwarz Cutoff:          0E+00
    Fitting Condition:       1E-12

   => Auxiliary Basis Set <=

  Basis Set: 
    Number of shells: 492
    Number of basis function: 1660
    Number of Cartesian functions: 2038
    Spherical Harmonics?: true
    Max angular momentum: 4

	-----------------------------------------------------------
	 ==================> DF-MP2 Energies <==================== 
	-----------------------------------------------------------
	 Reference Energy          =    -313.5359873771066077 [Eh]
	 Singles Energy            =      -0.0000000000000001 [Eh]
	 Same-Spin Energy          =      -0.3178111118176965 [Eh]
	 Opposite-Spin Energy      =      -1.1274322392782368 [Eh]
	 Correlation Energy        =      -1.4452433510959333 [Eh]
	 Total Energy              =    -314.9812307282025472 [Eh]
	-----------------------------------------------------------
	 ================> DF-SCS-MP2 Energies <================== 
	-----------------------------------------------------------
	 SCS Same-Spin Scale       =       0.3333333333333333 [-]
	 SCS Opposite-Spin Scale   =       1.2000000000000000 [-]
	 SCS Same-Spin Energy      =      -0.1059370372725655 [Eh]
	 SCS Opposite-Spin Energy  =      -1.3529186871338841 [Eh]
	 SCS Correlation Energy    =      -1.4588557244064495 [Eh]
	 SCS Total Energy          =    -314.9948431015130836 [Eh]
	-----------------------------------------------------------


  -Total Gradient:
     Atom            X                  Y                   Z
    ------   -----------------  -----------------  -----------------
       1       -0.000000207349     0.000000084969    -0.000000034640
       2       -0.000000032684     0.000000166302     0.000000031269
       3        0.000000087416     0.000000036775     0.000000024527
       4       -0.000000108720     0.000000017321     0.000000005711
       5        0.000000320745    -0.000000331208     0.000000334624
       6       -0.000000197713     0.000000471602     0.000000415356
       7        0.000000226830     0.000000298490    -0.000000479008
       8       -0.000000603305    -0.000000211395    -0.000000263809
       9       -0.000000166914    -0.000000155534    -0.000000012882
      10        0.000000311489    -0.000000300314     0.000000097130
      11       -0.000000116721     0.000000035178     0.000000034394
      12       -0.000000974832     0.000000367004    -0.000000924284
      13       -0.000000417291    -0.000000262236     0.000000507754
      14        0.000000889509     0.000000268698     0.000000425370
      15        0.000000170689    -0.000000717391    -0.000000367901
      16        0.000000176759     0.000000469929     0.000000748106
      17       -0.000000834042    -0.000000108811    -0.000000188334
      18       -0.000000057386     0.000000568739     0.000000647289
      19       -0.000000087958     0.000000325039     0.000000013079
      20        0.000000560895    -0.000000641365    -0.000000799198
      21        0.000000202132    -0.000000069388    -0.000000451102
      22        0.000000096207     0.000000075481    -0.000000157870
      23       -0.000000184859     0.000000257539     0.000000156967
      24        0.000000794124    -0.000000649254     0.000000674587
      25       -0.000000368762    -0.000000049249    -0.000000007231
      26        0.000000521738     0.000000053081    -0.000000429903


			-----------------------------------------
			 OPTKING 2.0: for geometry optimizations 
			  - R.A. King,  Bethel University        
			-----------------------------------------

	Internal coordinates to be generated automatically.
	Detected frag 1 with atoms:  1 2 3 4 5 6 7 8 9 10 11 12 13 14 15 16 17 18 19 20
	 21 22 23 24 25 26
	---Fragment 1 Bond Connectivity---
	 1 : 2 3 4 9
	 2 : 1
	 3 : 1
	 4 : 1
	 5 : 6 7 8 12
	 6 : 5
	 7 : 5
	 8 : 5
	 9 : 1 10 11 15
	 10 : 9
	 11 : 9
	 12 : 5 13 14 24
	 13 : 12
	 14 : 12
	 15 : 9 16 17 18
	 16 : 15
	 17 : 15
	 18 : 15 19 20 21
	 19 : 18
	 20 : 18
	 21 : 18 22 23 24
	 22 : 21
	 23 : 21
	 24 : 12 21 25 26
	 25 : 24
	 26 : 24

	---Fragment 1 Geometry and Gradient---
	 C          -3.9109781489       -3.1981261664       -0.9869827043
	 H          -3.7045484349       -5.2215528592       -0.6627763430
	 H          -2.8649258681       -2.7347348533       -2.6999187287
	 H          -5.9043302787       -2.8130553993       -1.3486100294
	 C           5.1290512162       -2.5526860530        0.2254807967
	 H           5.6793160911       -4.0150522117       -1.1159572926
	 H           4.2235477972       -3.4750249785        1.8322455112
	 H           6.8451965769       -1.6417932807        0.9140600895
	 C          -2.9787768098       -1.6815884757        1.2790425332
	 H          -0.9975413786       -2.1237425608        1.6364358020
	 H          -4.0185985956       -2.2856104697        2.9577155443
	 C           3.3548727927       -0.6241230577       -0.9679747912
	 H           4.2589260427        0.2429223989       -2.6121660903
	 H           1.6714561543       -1.5885786681       -1.6714090240
	 C          -3.3421912948        1.1707949904        0.9546390078
	 H          -2.9533089204        2.1239600235        2.7485578590
	 H          -5.3443835541        1.4946640774        0.5555198192
	 C          -1.7465964731        2.4162034514       -1.1224557156
	 H          -2.7949609966        4.0157478123       -1.8994266941
	 H          -1.4817048453        1.1083496729       -2.6966445237
	 C           0.8131601773        3.4173425817       -0.2219798961
	 H           1.7572566646        4.3488859725       -1.8087359637
	 H           0.4715491531        4.8831839397        1.1952766272
	 C           2.6040203998        1.4460234436        0.8878841915
	 H           4.3202075075        2.3986402052        1.5382808772
	 H           1.7588895575        0.5933972643        2.5701514300
	            -0.0000002073        0.0000000850       -0.0000000346
	            -0.0000000327        0.0000001663        0.0000000313
	             0.0000000874        0.0000000368        0.0000000245
	            -0.0000001087        0.0000000173        0.0000000057
	             0.0000003207       -0.0000003312        0.0000003346
	            -0.0000001977        0.0000004716        0.0000004154
	             0.0000002268        0.0000002985       -0.0000004790
	            -0.0000006033       -0.0000002114       -0.0000002638
	            -0.0000001669       -0.0000001555       -0.0000000129
	             0.0000003115       -0.0000003003        0.0000000971
	            -0.0000001167        0.0000000352        0.0000000344
	            -0.0000009748        0.0000003670       -0.0000009243
	            -0.0000004173       -0.0000002622        0.0000005078
	             0.0000008895        0.0000002687        0.0000004254
	             0.0000001707       -0.0000007174       -0.0000003679
	             0.0000001768        0.0000004699        0.0000007481
	            -0.0000008340       -0.0000001088       -0.0000001883
	            -0.0000000574        0.0000005687        0.0000006473
	            -0.0000000880        0.0000003250        0.0000000131
	             0.0000005609       -0.0000006414       -0.0000007992
	             0.0000002021       -0.0000000694       -0.0000004511
	             0.0000000962        0.0000000755       -0.0000001579
	            -0.0000001849        0.0000002575        0.0000001570
	             0.0000007941       -0.0000006493        0.0000006746
	            -0.0000003688       -0.0000000492       -0.0000000072
	             0.0000005217        0.0000000531       -0.0000004299

	Previous optimization step data not found.  Starting new optimization.

	---Fragment 1 Intrafragment Coordinates---
	 - Coordinate -           - BOHR/RAD -       - ANG/DEG -
	 R(1,2)           =         2.059606	       1.089897
	 R(1,3)           =         2.059880	       1.090042
	 R(1,4)           =         2.062161	       1.091248
	 R(1,9)           =         2.881624	       1.524890
	 R(5,6)           =         2.059311	       1.089741
	 R(5,7)           =         2.062120	       1.091227
	 R(5,8)           =         2.061316	       1.090801
	 R(5,12)          =         2.879479	       1.523755
	 R(9,10)          =         2.061195	       1.090737
	 R(9,11)          =         2.064949	       1.092724
	 R(9,15)          =         2.893683	       1.531271
	 R(12,13)         =         2.066989	       1.093804
	 R(12,14)         =         2.063707	       1.092067
	 R(12,24)         =         2.879843	       1.523948
	 R(15,16)         =         2.068308	       1.094501
	 R(15,17)         =         2.067114	       1.093870
	 R(15,18)         =         2.900222	       1.534731
	 R(18,19)         =         2.064290	       1.092375
	 R(18,20)         =         2.063667	       1.092045
	 R(18,21)         =         2.892316	       1.530548
	 R(21,22)         =         2.068063	       1.094372
	 R(21,23)         =         2.067367	       1.094003
	 R(21,24)         =         2.885321	       1.526846
	 R(24,25)         =         2.067799	       1.094232
	 R(24,26)         =         2.066698	       1.093649
	 B(1,9,10)        =         1.911770	     109.536372
	 B(1,9,11)        =         1.899088	     108.809745
	 B(1,9,15)        =         1.971408	     112.953365
	 B(2,1,3)         =         1.876548	     107.518263
	 B(2,1,4)         =         1.883823	     107.935081
	 B(2,1,9)         =         1.939950	     111.150960
	 B(3,1,4)         =         1.878681	     107.640470
	 B(3,1,9)         =         1.951153	     111.792819
	 B(4,1,9)         =         1.930858	     110.630020
	 B(5,12,13)       =         1.918935	     109.946899
	 B(5,12,14)       =         1.908026	     109.321828
	 B(5,12,24)       =         1.955193	     112.024315
	 B(6,5,7)         =         1.883121	     107.894906
	 B(6,5,8)         =         1.884873	     107.995282
	 B(6,5,12)        =         1.950092	     111.732066
	 B(7,5,8)         =         1.878583	     107.634859
	 B(7,5,12)        =         1.930458	     110.607114
	 B(8,5,12)        =         1.934200	     110.821479
	 B(9,15,16)       =         1.910723	     109.476340
	 B(9,15,17)       =         1.873111	     107.321379
	 B(9,15,18)       =         2.020263	     115.752521
	 B(10,9,11)       =         1.854924	     106.279291
	 B(10,9,15)       =         1.930084	     110.585660
	 B(11,9,15)       =         1.892551	     108.435205
	 B(12,24,21)      =         1.987852	     113.895533
	 B(12,24,25)      =         1.893854	     108.509824
	 B(12,24,26)      =         1.911994	     109.549207
	 B(13,12,14)      =         1.856339	     106.360408
	 B(13,12,24)      =         1.901931	     108.972595
	 B(14,12,24)      =         1.920823	     110.055039
	 B(15,18,19)      =         1.899587	     108.838329
	 B(15,18,20)      =         1.922809	     110.168848
	 B(15,18,21)      =         1.996070	     114.366405
	 B(16,15,17)      =         1.851859	     106.103696
	 B(16,15,18)      =         1.896354	     108.653087
	 B(17,15,18)      =         1.904265	     109.106363
	 B(18,21,22)      =         1.897646	     108.727127
	 B(18,21,23)      =         1.888741	     108.216904
	 B(18,21,24)      =         2.018151	     115.631519
	 B(19,18,20)      =         1.843305	     105.613600
	 B(19,18,21)      =         1.873850	     107.363684
	 B(20,18,21)      =         1.921175	     110.075234
	 B(21,24,25)      =         1.897975	     108.745931
	 B(21,24,26)      =         1.918948	     109.947647
	 B(22,21,23)      =         1.856719	     106.382174
	 B(22,21,24)      =         1.896041	     108.635152
	 B(23,21,24)      =         1.900005	     108.862275
	 B(25,24,26)      =         1.847749	     105.868197
	 D(1,9,15,16)     =         2.969961	     170.166228
	 D(1,9,15,17)     =         0.967389	      55.427332
	 D(1,9,15,18)     =        -1.163340	     -66.654453
	 D(2,1,9,10)      =         1.026618	      58.820883
	 D(2,1,9,11)      =        -0.994314	     -56.969984
	 D(2,1,9,15)      =        -3.096875	    -177.437872
	 D(3,1,9,10)      =        -1.070415	     -61.330286
	 D(3,1,9,11)      =        -3.091347	    -177.121153
	 D(3,1,9,15)      =         1.089277	      62.410959
	 D(4,1,9,10)      =         3.119236	     178.719057
	 D(4,1,9,11)      =         1.098304	      62.928190
	 D(4,1,9,15)      =        -1.004257	     -57.539698
	 D(5,12,24,21)    =        -3.136277	    -179.695435
	 D(5,12,24,25)    =         1.030429	      59.039247
	 D(5,12,24,26)    =        -0.979171	     -56.102394
	 D(6,5,12,13)     =        -1.011287	     -57.942476
	 D(6,5,12,14)     =         1.020448	      58.467357
	 D(6,5,12,24)     =        -3.128817	    -179.268003
	 D(7,5,12,13)     =        -3.109466	    -178.159250
	 D(7,5,12,14)     =        -1.077731	     -61.749417
	 D(7,5,12,24)     =         1.056190	      60.515223
	 D(8,5,12,13)     =         1.091671	      62.548151
	 D(8,5,12,14)     =         3.123406	     178.957984
	 D(8,5,12,24)     =        -1.025859	     -58.777376
	 D(9,15,18,19)    =         2.597836	     148.845022
	 D(9,15,18,20)    =         0.584455	      33.486808
	 D(9,15,18,21)    =        -1.590165	     -91.109758
	 D(10,9,15,16)    =        -1.163655	     -66.672524
	 D(10,9,15,17)    =         3.116959	     178.588580
	 D(10,9,15,18)    =         0.986230	      56.506795
	 D(11,9,15,16)    =         0.863671	      49.484715
	 D(11,9,15,17)    =        -1.138900	     -65.254181
	 D(11,9,15,18)    =         3.013556	     172.664034
	 D(12,24,21,18)   =         1.072550	      61.452606
	 D(12,24,21,22)   =        -1.065838	     -61.068045
	 D(12,24,21,23)   =        -3.080848	    -176.519580
	 D(13,12,24,21)   =         1.019614	      58.419575
	 D(13,12,24,25)   =        -1.096865	     -62.845743
	 D(13,12,24,26)   =        -3.106466	    -177.987384
	 D(14,12,24,21)   =        -1.009669	     -57.849765
	 D(14,12,24,25)   =        -3.126148	    -179.115083
	 D(14,12,24,26)   =         1.147437	      65.743276
	 D(15,18,21,22)   =        -3.091755	    -177.144493
	 D(15,18,21,23)   =        -1.081892	     -61.987836
	 D(15,18,21,24)   =         1.053894	      60.383676
	 D(16,15,18,19)   =        -1.527933	     -87.544093
	 D(16,15,18,20)   =         2.741872	     157.097693
	 D(16,15,18,21)   =         0.567252	      32.501127
	 D(17,15,18,19)   =         0.483768	      27.717852
	 D(17,15,18,20)   =        -1.529613	     -87.640362
	 D(17,15,18,21)   =         2.578952	     147.763072
	 D(18,21,24,25)   =        -3.096450	    -177.413491
	 D(18,21,24,26)   =        -1.080781	     -61.924197
	 D(19,18,21,22)   =        -0.982262	     -56.279472
	 D(19,18,21,23)   =         1.027601	      58.877185
	 D(19,18,21,24)   =        -3.119799	    -178.751302
	 D(20,18,21,22)   =         1.015943	      58.209263
	 D(20,18,21,23)   =         3.025806	     173.365919
	 D(20,18,21,24)   =        -1.121593	     -64.262568
	 D(22,21,24,25)   =         1.048347	      60.065857
	 D(22,21,24,26)   =         3.064015	     175.555151
	 D(23,21,24,25)   =        -0.966662	     -55.385678
	 D(23,21,24,26)   =         1.049006	      60.103617
	 R(9,12)          =         6.803120	       3.600056
	 R(9,24)          =         6.411130	       3.392624

	Current energy   :      -314.9812307282

	Generating empirical Hessian (Schlegel '84) for each fragment.
	Taking RFO optimization step.
	Going to follow RFO solution 1.
	Using RFO vector 1.
	Norm of target step-size    0.00019
	Projected energy change by RFO approximation:         0.0000000001

	Back-transformation to cartesian coordinates...
	Successfully converged to displaced geometry.

	--- Internal Coordinate Step in ANG or DEG, aJ/ANG or AJ/DEG ---
	 ---------------------------------------------------------------------------
	   Coordinate                Previous        Force       Change         New 
	   ----------                --------       ------       ------       ------
	    1 R(1,2)          =      1.089897     0.000001     0.000000     1.089897
	    2 R(1,3)          =      1.090042    -0.000000    -0.000000     1.090042
	    3 R(1,4)          =      1.091248    -0.000001    -0.000000     1.091248
	    4 R(1,9)          =      1.524890     0.000001     0.000000     1.524890
	    5 R(5,6)          =      1.089741     0.000006     0.000001     1.089742
	    6 R(5,7)          =      1.091227     0.000005     0.000001     1.091228
	    7 R(5,8)          =      1.090801     0.000006     0.000001     1.090802
	    8 R(5,12)         =      1.523755     0.000002     0.000001     1.523755
	    9 R(9,10)         =      1.090737    -0.000003    -0.000001     1.090737
	   10 R(9,11)         =      1.092724    -0.000001    -0.000000     1.092724
	   11 R(9,15)         =      1.531271     0.000001     0.000000     1.531271
	   12 R(12,13)        =      1.093804     0.000006     0.000001     1.093805
	   13 R(12,14)        =      1.092067     0.000008     0.000002     1.092068
	   14 R(12,24)        =      1.523948     0.000005     0.000001     1.523949
	   15 R(15,16)        =      1.094501    -0.000007    -0.000001     1.094500
	   16 R(15,17)        =      1.093870    -0.000007    -0.000001     1.093868
	   17 R(15,18)        =      1.534731    -0.000004    -0.000001     1.534730
	   18 R(18,19)        =      1.092375    -0.000002    -0.000000     1.092375
	   19 R(18,20)        =      1.092045    -0.000009    -0.000002     1.092044
	   20 R(18,21)        =      1.530548     0.000001     0.000000     1.530548
	   21 R(21,22)        =      1.094372    -0.000002    -0.000000     1.094372
	   22 R(21,23)        =      1.094003    -0.000003    -0.000000     1.094003
	   23 R(21,24)        =      1.526846    -0.000002    -0.000000     1.526846
	   24 R(24,25)        =      1.094232     0.000003     0.000001     1.094233
	   25 R(24,26)        =      1.093649     0.000005     0.000001     1.093650
	   26 B(1,9,10)       =    109.536372    -0.000000    -0.000091   109.536281
	   27 B(1,9,11)       =    108.809745    -0.000000     0.000081   108.809826
	   28 B(1,9,15)       =    112.953365     0.000000     0.000169   112.953534
	   29 B(2,1,3)        =    107.518263    -0.000000    -0.000015   107.518248
	   30 B(2,1,4)        =    107.935081    -0.000000    -0.000001   107.935079
	   31 B(2,1,9)        =    111.150960     0.000000     0.000030   111.150990
	   32 B(3,1,4)        =    107.640470    -0.000000    -0.000038   107.640432
	   33 B(3,1,9)        =    111.792819     0.000000     0.000034   111.792853
	   34 B(4,1,9)        =    110.630020    -0.000000    -0.000013   110.630007
	   35 B(5,12,13)      =    109.946899    -0.000000    -0.000072   109.946827
	   36 B(5,12,14)      =    109.321828    -0.000000     0.000059   109.321887
	   37 B(5,12,24)      =    112.024315     0.000000     0.000155   112.024469
	   38 B(6,5,7)        =    107.894906    -0.000000    -0.000021   107.894885
	   39 B(6,5,8)        =    107.995282    -0.000000    -0.000026   107.995256
	   40 B(6,5,12)       =    111.732066    -0.000000    -0.000017   111.732048
	   41 B(7,5,8)        =    107.634859    -0.000000    -0.000014   107.634845
	   42 B(7,5,12)       =    110.607114     0.000000     0.000019   110.607132
	   43 B(8,5,12)       =    110.821479     0.000000     0.000057   110.821536
	   44 B(9,15,16)      =    109.476340    -0.000000    -0.000059   109.476280
	   45 B(9,15,17)      =    107.321379     0.000000     0.000160   107.321539
	   46 B(9,15,18)      =    115.752521    -0.000000    -0.000069   115.752452
	   47 B(10,9,11)      =    106.279291     0.000000    -0.000023   106.279268
	   48 B(10,9,15)      =    110.585660    -0.000000    -0.000238   110.585422
	   49 B(11,9,15)      =    108.435205    -0.000000     0.000100   108.435305
	   50 B(12,24,21)     =    113.895533     0.000000     0.000180   113.895714
	   51 B(12,24,25)     =    108.509824    -0.000000    -0.000099   108.509724
	   52 B(12,24,26)     =    109.549207     0.000000     0.000039   109.549246
	   53 B(13,12,14)     =    106.360408     0.000000    -0.000039   106.360369
	   54 B(13,12,24)     =    108.972595    -0.000000    -0.000046   108.972549
	   55 B(14,12,24)     =    110.055039    -0.000000    -0.000068   110.054971
	   56 B(15,18,19)     =    108.838329     0.000000     0.000001   108.838330
	   57 B(15,18,20)     =    110.168848    -0.000000    -0.000113   110.168735
	   58 B(15,18,21)     =    114.366405    -0.000000    -0.000050   114.366355
	   59 B(16,15,17)     =    106.103696    -0.000000    -0.000030   106.103666
	   60 B(16,15,18)     =    108.653087     0.000000     0.000018   108.653105
	   61 B(17,15,18)     =    109.106363    -0.000000    -0.000017   109.106346
	   62 B(18,21,22)     =    108.727127    -0.000000     0.000065   108.727191
	   63 B(18,21,23)     =    108.216904    -0.000000    -0.000021   108.216883
	   64 B(18,21,24)     =    115.631519     0.000000     0.000051   115.631571
	   65 B(19,18,20)     =    105.613600    -0.000000    -0.000094   105.613505
	   66 B(19,18,21)     =    107.363684     0.000000     0.000055   107.363739
	   67 B(20,18,21)     =    110.075234     0.000000     0.000200   110.075434
	   68 B(21,24,25)     =    108.745931     0.000000     0.000092   108.746023
	   69 B(21,24,26)     =    109.947647    -0.000000    -0.000258   109.947389
	   70 B(22,21,23)     =    106.382174     0.000000    -0.000014   106.382160
	   71 B(22,21,24)     =    108.635152    -0.000000     0.000049   108.635201
	   72 B(23,21,24)     =    108.862275    -0.000000    -0.000135   108.862139
	   73 B(25,24,26)     =    105.868197     0.000000     0.000039   105.868236
	   74 D(1,9,15,16)    =    170.166228     0.000000     0.002119   170.168348
	   75 D(1,9,15,17)    =     55.427332     0.000000     0.002099    55.429431
	   76 D(1,9,15,18)    =    -66.654453     0.000000     0.002044   -66.652408
	   77 D(2,1,9,10)     =     58.820883     0.000000    -0.000365    58.820518
	   78 D(2,1,9,11)     =    -56.969984     0.000000    -0.000332   -56.970316
	   79 D(2,1,9,15)     =   -177.437872    -0.000000    -0.000622  -177.438494
	   80 D(3,1,9,10)     =    -61.330286     0.000000    -0.000389   -61.330675
	   81 D(3,1,9,11)     =   -177.121153     0.000000    -0.000356  -177.121509
	   82 D(3,1,9,15)     =     62.410959    -0.000000    -0.000647    62.410313
	   83 D(4,1,9,10)     =    178.719057     0.000000    -0.000355   178.718702
	   84 D(4,1,9,11)     =     62.928190     0.000000    -0.000322    62.927868
	   85 D(4,1,9,15)     =    -57.539698    -0.000000    -0.000613   -57.540310
	   86 D(5,12,24,21)   =   -179.695435     0.000000     0.001920  -179.693516
	   87 D(5,12,24,25)   =     59.039247    -0.000000     0.001754    59.041001
	   88 D(5,12,24,26)   =    -56.102394    -0.000000     0.001741   -56.100653
	   89 D(6,5,12,13)    =    -57.942476     0.000000     0.000122   -57.942354
	   90 D(6,5,12,14)    =     58.467357    -0.000000     0.000068    58.467425
	   91 D(6,5,12,24)    =   -179.268003    -0.000000     0.000127  -179.267876
	   92 D(7,5,12,13)    =   -178.159250     0.000000     0.000148  -178.159102
	   93 D(7,5,12,14)    =    -61.749417     0.000000     0.000094   -61.749324
	   94 D(7,5,12,24)    =     60.515223     0.000000     0.000152    60.515375
	   95 D(8,5,12,13)    =     62.548151     0.000000     0.000116    62.548267
	   96 D(8,5,12,14)    =    178.957984    -0.000000     0.000062   178.958046
	   97 D(8,5,12,24)    =    -58.777376    -0.000000     0.000121   -58.777255
	   98 D(9,15,18,19)   =    148.845022     0.000000     0.001060   148.846082
	   99 D(9,15,18,20)   =     33.486808     0.000000     0.001235    33.488043
	  100 D(9,15,18,21)   =    -91.109758     0.000000     0.001097   -91.108661
	  101 D(10,9,15,16)   =    -66.672524     0.000000     0.001943   -66.670581
	  102 D(10,9,15,17)   =    178.588580     0.000000     0.001923   178.590503
	  103 D(10,9,15,18)   =     56.506795     0.000000     0.001868    56.508663
	  104 D(11,9,15,16)   =     49.484715    -0.000000     0.001841    49.486556
	  105 D(11,9,15,17)   =    -65.254181    -0.000000     0.001821   -65.252360
	  106 D(11,9,15,18)   =    172.664034    -0.000000     0.001766   172.665800
	  107 D(12,24,21,18)  =     61.452606     0.000000     0.001738    61.454345
	  108 D(12,24,21,22)  =    -61.068045     0.000000     0.001578   -61.066467
	  109 D(12,24,21,23)  =   -176.519580     0.000000     0.001641  -176.517939
	  110 D(13,12,24,21)  =     58.419575     0.000000     0.001941    58.421515
	  111 D(13,12,24,25)  =    -62.845743    -0.000000     0.001775   -62.843968
	  112 D(13,12,24,26)  =   -177.987384    -0.000000     0.001762  -177.985622
	  113 D(14,12,24,21)  =    -57.849765     0.000000     0.002052   -57.847713
	  114 D(14,12,24,25)  =   -179.115083     0.000000     0.001887  -179.113196
	  115 D(14,12,24,26)  =     65.743276     0.000000     0.001874    65.745150
	  116 D(15,18,21,22)  =   -177.144493    -0.000000    -0.000631  -177.145124
	  117 D(15,18,21,23)  =    -61.987836    -0.000000    -0.000625   -61.988461
	  118 D(15,18,21,24)  =     60.383676    -0.000000    -0.000783    60.382894
	  119 D(16,15,18,19)  =    -87.544093    -0.000000     0.000946   -87.543147
	  120 D(16,15,18,20)  =    157.097693     0.000000     0.001121   157.098814
	  121 D(16,15,18,21)  =     32.501127    -0.000000     0.000983    32.502110
	  122 D(17,15,18,19)  =     27.717852    -0.000000     0.000911    27.718763
	  123 D(17,15,18,20)  =    -87.640362     0.000000     0.001086   -87.639276
	  124 D(17,15,18,21)  =    147.763072    -0.000000     0.000948   147.764020
	  125 D(18,21,24,25)  =   -177.413491     0.000000     0.001797  -177.411694
	  126 D(18,21,24,26)  =    -61.924197    -0.000000     0.001755   -61.922443
	  127 D(19,18,21,22)  =    -56.279472    -0.000000    -0.000623   -56.280095
	  128 D(19,18,21,23)  =     58.877185     0.000000    -0.000617    58.876569
	  129 D(19,18,21,24)  =   -178.751302    -0.000000    -0.000775  -178.752077
	  130 D(20,18,21,22)  =     58.209263     0.000000    -0.000603    58.208660
	  131 D(20,18,21,23)  =    173.365919     0.000000    -0.000597   173.365323
	  132 D(20,18,21,24)  =    -64.262568    -0.000000    -0.000755   -64.263323
	  133 D(22,21,24,25)  =     60.065857    -0.000000     0.001637    60.067494
	  134 D(22,21,24,26)  =    175.555151    -0.000000     0.001595   175.556746
	  135 D(23,21,24,25)  =    -55.385678     0.000000     0.001700   -55.383977
	  136 D(23,21,24,26)  =     60.103617     0.000000     0.001657    60.105274
	  137 R(9,12)         =      3.600056     0.000001     0.000006     3.600062
	  138 R(9,24)         =      3.392624    -0.000005    -0.000025     3.392598
	 ---------------------------------------------------------------------------

  ==> Convergence Check <==

  Measures of convergence in internal coordinates in au.
  Criteria marked as inactive (o), active & met (*), and active & unmet ( ).
  --------------------------------------------------------------------------------------------- ~
   Step     Total Energy     Delta E     MAX Force     RMS Force      MAX Disp      RMS Disp    ~
  --------------------------------------------------------------------------------------------- ~
    Convergence Criteria             o    2.00e-06 *    1.00e-06 *    6.00e-06 *    4.00e-06 *  ~
  --------------------------------------------------------------------------------------------- ~
      1    -314.98123073   -3.15e+02 o    1.10e-06 *    2.76e-07 *    4.80e-05      1.59e-05    ~
  ---------------------------------------------------------------------------------------------

	Writing optimization data to binary file.
	Structure for next step:
	Cartesian Geometry (in Angstrom)
	    C    -2.0695438574  -1.6923753614  -0.5222798789
	    H    -1.9602852205  -2.7631244010  -0.3507149226
	    H    -1.5159824306  -1.4471467834  -1.4287143609
	    H    -3.1243805319  -1.4886289861  -0.7136689211
	    C     2.7141409781  -1.3508474720   0.1193151911
	    H     3.0053414698  -2.1246894155  -0.5905492569
	    H     2.2349288005  -1.8389381971   0.9695511267
	    H     3.6222821959  -0.8688477225   0.4837398731
	    C    -1.5762901918  -0.8898462749   0.6768602182
	    H    -0.5278668193  -1.1238055753   0.8660112144
	    H    -2.1265564192  -1.2094882427   1.5651628896
	    C     1.7753272328  -0.3302660884  -0.5122484075
	    H     2.2537727135   0.1285622037  -1.3822917142
	    H     0.8845041750  -0.8406103058  -0.8845331299
	    C    -1.7686162901   0.6195674021   0.5051860592
	    H    -1.5628256837   1.1239663910   1.4544817413
	    H    -2.8281322653   0.7909432462   0.2939885210
	    C    -0.9242773067   1.2786089240  -0.5939742654
	    H    -1.4790497499   2.1250550617  -1.0051182860
	    H    -0.7841219339   0.5865256016  -1.4270027081
	    C     0.4302972076   1.8083798034  -0.1174795532
	    H     0.9298880932   2.3013226340  -0.9571614563
	    H     0.2495384957   2.5840747422   0.6324976990
	    C     1.3779758818   0.7651993600   0.4698345533
	    H     2.2861382269   1.2693002627   0.8140270211
	    H     0.9307386983   0.3140003419   1.3600421117
			--------------------------
			 OPTKING Finished Execution 
			--------------------------

    Structure for next step:
    Molecular point group: c1
    Full point group: C1

    Geometry (in Angstrom), charge = 0, multiplicity = 1:

    C           -2.069543101705    -1.692376205333    -0.522279571895
    H           -1.960284464840    -2.763125244896    -0.350714615552
    H           -1.515981674946    -1.447147627266    -1.428714053904
    H           -3.124379776239    -1.488629829995    -0.713668614045
    C            2.714141733752    -1.350848315865     0.119315498100
    H            3.005342225463    -2.124690259362    -0.590548949915
    H            2.234929556158    -1.838939040941     0.969551433727
    H            3.622282951540    -0.868848566433     0.483740180126
    C           -1.576289436094    -0.889847118837     0.676860525256
    H           -0.527866063656    -1.123806419234     0.866011521417
    H           -2.126555663569    -1.209489086566     1.565163196660
    C            1.775327988485    -0.330266932335    -0.512248100527
    H            2.253773469130     0.128561359783    -1.382291407183
    H            0.884504930710    -0.840611149703    -0.884532822905
    C           -1.768615534419     0.619566558174     0.505186366206
    H           -1.562824928071     1.123965547088     1.454482048289
    H           -2.828131509616     0.790942402262     0.293988827987
    C           -0.924276551062     1.278608080118    -0.593973958388
    H           -1.479048994277     2.125054217772    -1.005117979004
    H           -0.784121178233     0.586524757693    -1.427002401059
    C            0.430297963222     1.808378959467    -0.117479246228
    H            0.929888848818     2.301321790076    -0.957161149238
    H            0.249539251386     2.584073898309     0.632498006032
    C            1.377976637421     0.765198516159     0.469834860332
    H            2.286138982523     1.269299418800     0.814027328161
    H            0.930739453997     0.313999498030     1.360042418768

gradient() will perform analytic gradient computation.

*** tstart() called on wr28
*** at Tue Sep 20 22:47:47 2016


         ---------------------------------------------------------
                                   SCF
            by Justin Turney, Rob Parrish, and Andy Simmonett
                              RHF Reference
                       12 Threads,  60000 MiB Core
         ---------------------------------------------------------

  ==> Geometry <==

    Molecular point group: c1
    Full point group: C1

    Geometry (in Angstrom), charge = 0, multiplicity = 1:

       Center              X                  Y                   Z               Mass       
    ------------   -----------------  -----------------  -----------------  -----------------
           C         -2.069543101705    -1.692376205333    -0.522279571895    12.000000000000
           H         -1.960284464840    -2.763125244896    -0.350714615552     1.007825032070
           H         -1.515981674946    -1.447147627266    -1.428714053904     1.007825032070
           H         -3.124379776239    -1.488629829995    -0.713668614045     1.007825032070
           C          2.714141733752    -1.350848315865     0.119315498100    12.000000000000
           H          3.005342225463    -2.124690259362    -0.590548949915     1.007825032070
           H          2.234929556158    -1.838939040941     0.969551433727     1.007825032070
           H          3.622282951540    -0.868848566433     0.483740180126     1.007825032070
           C         -1.576289436094    -0.889847118837     0.676860525256    12.000000000000
           H         -0.527866063656    -1.123806419234     0.866011521417     1.007825032070
           H         -2.126555663569    -1.209489086566     1.565163196660     1.007825032070
           C          1.775327988485    -0.330266932335    -0.512248100527    12.000000000000
           H          2.253773469130     0.128561359783    -1.382291407183     1.007825032070
           H          0.884504930710    -0.840611149703    -0.884532822905     1.007825032070
           C         -1.768615534419     0.619566558174     0.505186366206    12.000000000000
           H         -1.562824928071     1.123965547088     1.454482048289     1.007825032070
           H         -2.828131509616     0.790942402262     0.293988827987     1.007825032070
           C         -0.924276551062     1.278608080118    -0.593973958388    12.000000000000
           H         -1.479048994277     2.125054217772    -1.005117979004     1.007825032070
           H         -0.784121178233     0.586524757693    -1.427002401059     1.007825032070
           C          0.430297963222     1.808378959467    -0.117479246228    12.000000000000
           H          0.929888848818     2.301321790076    -0.957161149238     1.007825032070
           H          0.249539251386     2.584073898309     0.632498006032     1.007825032070
           C          1.377976637421     0.765198516159     0.469834860332    12.000000000000
           H          2.286138982523     1.269299418800     0.814027328161     1.007825032070
           H          0.930739453997     0.313999498030     1.360042418768     1.007825032070

  Running in c1 symmetry.

  Rotational constants: A =      0.07530  B =      0.04253  C =      0.03138 [cm^-1]
  Rotational constants: A =   2257.48467  B =   1275.15879  C =    940.76589 [MHz]
  Nuclear repulsion =  408.170123190734842

  Charge       = 0
  Multiplicity = 1
  Electrons    = 66
  Nalpha       = 33
  Nbeta        = 33

  ==> Algorithm <==

  SCF Algorithm Type is DF.
  DIIS enabled.
  MOM disabled.
  Fractional occupation disabled.
  Guess Type is READ.
  Energy threshold   = 1.00e-10
  Density threshold  = 1.00e-10
  Integral threshold = 0.00e+00

  ==> Primary Basis <==

  Basis Set: AUG-CC-PVTZ
    Number of shells: 274
    Number of basis function: 782
    Number of Cartesian functions: 890
    Spherical Harmonics?: true
    Max angular momentum: 3

  ==> Pre-Iterations <==

   -------------------------------------------------------
    Irrep   Nso     Nmo     Nalpha   Nbeta   Ndocc  Nsocc
   -------------------------------------------------------
     A        782     782       0       0       0       0
   -------------------------------------------------------
    Total     782     782      33      33      33       0
   -------------------------------------------------------

  ==> Integral Setup <==

  ==> DFJK: Density-Fitted J/K Matrices <==

    J tasked:                  Yes
    K tasked:                  Yes
    wK tasked:                  No
    OpenMP threads:             12
    Integrals threads:          12
    Memory (MB):             42915
    Algorithm:                Core
    Integral Cache:           NONE
    Schwarz Cutoff:          1E-12
    Fitting Condition:       1E-12

   => Auxiliary Basis Set <=

  Basis Set: 
    Number of shells: 492
    Number of basis function: 1660
    Number of Cartesian functions: 2038
    Spherical Harmonics?: true
    Max angular momentum: 4

  Minimum eigenvalue in the overlap matrix is 1.7436454617E-06.
  Using Symmetric Orthogonalization.
  SCF Guess: Reading in previously saved MOs, projecting if necessary.

  Using orbitals from previous SCF, no projection.
  Recomputing DOCC and SOCC from number of alpha and beta electrons from previous calculation.
              A 
    DOCC [    33 ]

  ==> Iterations <==

                           Total Energy        Delta E     RMS |[F,P]|

   @DF-RHF iter   0:  -313.53597601923019   -3.13536e+02   1.21725e-07 
   @DF-RHF iter   1:  -313.53598717808705   -1.11589e-05   2.29789e-08 
   @DF-RHF iter   2:  -313.53598717840094   -3.13889e-10   8.84101e-09 DIIS
   @DF-RHF iter   3:  -313.53598717844392   -4.29736e-11   3.93843e-09 DIIS
   @DF-RHF iter   4:  -313.53598717845313   -9.20863e-12   4.37112e-10 DIIS
   @DF-RHF iter   5:  -313.53598717845290    2.27374e-13   1.37875e-10 DIIS
   @DF-RHF iter   6:  -313.53598717845301   -1.13687e-13   3.80192e-11 DIIS

  ==> Post-Iterations <==

    Orbital Energies (a.u.)
    -----------------------

    Doubly Occupied:                                                      

       1A    -11.212455     2A    -11.212038     3A    -11.211260  
       4A    -11.210901     5A    -11.209631     6A    -11.209314  
       7A    -11.207717     8A    -11.207316     9A     -1.094975  
      10A     -1.056875    11A     -1.010189    12A     -0.946464  
      13A     -0.888355    14A     -0.832022    15A     -0.790212  
      16A     -0.750132    17A     -0.653366    18A     -0.628361  
      19A     -0.607207    20A     -0.587861    21A     -0.580927  
      22A     -0.570460    23A     -0.542481    24A     -0.525816  
      25A     -0.515201    26A     -0.505459    27A     -0.493886  
      28A     -0.471145    29A     -0.469626    30A     -0.460597  
      31A     -0.440068    32A     -0.437727    33A     -0.435636  

    Virtual:                                                              

      34A      0.028550    35A      0.032946    36A      0.033676  
      37A      0.035234    38A      0.047281    39A      0.048853  
      40A      0.050842    41A      0.052924    42A      0.056614  
      43A      0.068518    44A      0.069468    45A      0.071807  
      46A      0.073533    47A      0.078612    48A      0.082843  
      49A      0.086612    50A      0.096241    51A      0.098094  
      52A      0.112794    53A      0.118403    54A      0.121765  
      55A      0.128255    56A      0.130521    57A      0.133561  
      58A      0.136291    59A      0.139956    60A      0.143955  
      61A      0.144889    62A      0.147454    63A      0.149084  
      64A      0.152650    65A      0.155596    66A      0.161085  
      67A      0.166503    68A      0.170248    69A      0.172450  
      70A      0.175756    71A      0.176964    72A      0.181259  
      73A      0.185949    74A      0.188574    75A      0.195337  
      76A      0.199446    77A      0.214978    78A      0.216971  
      79A      0.226376    80A      0.231510    81A      0.235471  
      82A      0.246991    83A      0.253910    84A      0.255266  
      85A      0.268822    86A      0.275272    87A      0.283714  
      88A      0.286187    89A      0.290387    90A      0.300846  
      91A      0.301902    92A      0.306373    93A      0.310806  
      94A      0.315595    95A      0.322337    96A      0.324658  
      97A      0.326652    98A      0.331155    99A      0.332805  
     100A      0.339540   101A      0.341788   102A      0.346726  
     103A      0.350875   104A      0.353975   105A      0.357471  
     106A      0.362828   107A      0.364217   108A      0.366638  
     109A      0.368989   110A      0.371356   111A      0.378450  
     112A      0.382694   113A      0.383952   114A      0.392897  
     115A      0.394371   116A      0.397527   117A      0.403068  
     118A      0.409691   119A      0.412635   120A      0.414928  
     121A      0.419123   122A      0.422622   123A      0.427636  
     124A      0.433468   125A      0.440442   126A      0.442849  
     127A      0.445228   128A      0.449145   129A      0.455513  
     130A      0.457014   131A      0.461550   132A      0.463410  
     133A      0.465671   134A      0.471621   135A      0.476000  
     136A      0.479149   137A      0.481121   138A      0.484435  
     139A      0.488691   140A      0.490945   141A      0.496533  
     142A      0.504509   143A      0.508505   144A      0.510551  
     145A      0.518379   146A      0.520951   147A      0.525302  
     148A      0.526917   149A      0.531285   150A      0.536301  
     151A      0.537180   152A      0.541054   153A      0.547700  
     154A      0.552320   155A      0.555139   156A      0.563085  
     157A      0.565982   158A      0.571118   159A      0.573544  
     160A      0.580212   161A      0.584873   162A      0.592073  
     163A      0.595183   164A      0.598909   165A      0.601600  
     166A      0.606885   167A      0.610833   168A      0.613956  
     169A      0.619360   170A      0.625524   171A      0.633944  
     172A      0.636610   173A      0.641823   174A      0.649017  
     175A      0.652289   176A      0.654461   177A      0.659609  
     178A      0.666579   179A      0.674478   180A      0.676576  
     181A      0.684869   182A      0.689189   183A      0.693780  
     184A      0.699408   185A      0.700721   186A      0.708228  
     187A      0.714878   188A      0.719204   189A      0.723574  
     190A      0.726218   191A      0.731354   192A      0.739782  
     193A      0.745135   194A      0.749317   195A      0.758703  
     196A      0.763049   197A      0.767358   198A      0.776518  
     199A      0.778603   200A      0.780714   201A      0.794122  
     202A      0.802584   203A      0.815824   204A      0.823571  
     205A      0.833035   206A      0.839428   207A      0.845485  
     208A      0.853524   209A      0.866702   210A      0.870875  
     211A      0.875905   212A      0.880459   213A      0.887503  
     214A      0.894257   215A      0.901473   216A      0.903115  
     217A      0.905685   218A      0.910288   219A      0.914089  
     220A      0.923003   221A      0.924416   222A      0.927520  
     223A      0.933424   224A      0.937790   225A      0.944037  
     226A      0.945793   227A      0.948220   228A      0.957595  
     229A      0.964413   230A      0.966521   231A      0.975103  
     232A      0.979052   233A      0.982725   234A      0.990025  
     235A      0.990815   236A      0.996210   237A      1.005083  
     238A      1.008696   239A      1.010145   240A      1.016875  
     241A      1.027261   242A      1.027408   243A      1.037856  
     244A      1.041019   245A      1.050344   246A      1.057417  
     247A      1.061170   248A      1.064350   249A      1.070221  
     250A      1.079340   251A      1.085630   252A      1.087901  
     253A      1.092141   254A      1.096219   255A      1.103441  
     256A      1.108949   257A      1.114018   258A      1.118954  
     259A      1.121431   260A      1.127917   261A      1.137716  
     262A      1.146581   263A      1.150405   264A      1.156952  
     265A      1.158375   266A      1.167449   267A      1.170846  
     268A      1.181749   269A      1.182467   270A      1.185675  
     271A      1.190651   272A      1.197973   273A      1.199319  
     274A      1.208761   275A      1.212273   276A      1.217009  
     277A      1.220647   278A      1.228786   279A      1.237120  
     280A      1.240708   281A      1.243301   282A      1.252238  
     283A      1.254329   284A      1.258945   285A      1.267918  
     286A      1.272795   287A      1.282228   288A      1.285169  
[...]
	 D(19,18,21,23)   =         1.027601	      58.877225
	 D(19,18,21,24)   =        -3.119799	    -178.751325
	 D(20,18,21,22)   =         1.015945	      58.209389
	 D(20,18,21,23)   =         3.025808	     173.366051
	 D(20,18,21,24)   =        -1.121592	     -64.262500
	 D(22,21,24,25)   =         1.048353	      60.066216
	 D(22,21,24,26)   =         3.064021	     175.555485
	 D(23,21,24,25)   =        -0.966656	     -55.385315
	 D(23,21,24,26)   =         1.049012	      60.103954
	 R(9,12)          =         6.803123	       3.600058
	 R(9,24)          =         6.411121	       3.392619

	Current energy   :      -314.9812307264

	Energy change for the previous step:
		Projected    :        -0.0000000000
		Actual       :        -0.0000000016

	Performing BFGS update.
	Previous computed or guess Hessian on step 1.
	Denominators (dg)(dq) or (dq)(dq) are very small.
	 Skipping Hessian update for step 12.
	Denominators (dg)(dq) or (dq)(dq) are very small.
	 Skipping Hessian update for step 11.
	Denominators (dg)(dq) or (dq)(dq) are very small.
	 Skipping Hessian update for step 10.
	Denominators (dg)(dq) or (dq)(dq) are very small.
	 Skipping Hessian update for step 9.
	Denominators (dg)(dq) or (dq)(dq) are very small.
	 Skipping Hessian update for step 8.
	Denominators (dg)(dq) or (dq)(dq) are very small.
	 Skipping Hessian update for step 7.
	Denominators (dg)(dq) or (dq)(dq) are very small.
	 Skipping Hessian update for step 6.
	Denominators (dg)(dq) or (dq)(dq) are very small.
	 Skipping Hessian update for step 5.
	Denominators (dg)(dq) or (dq)(dq) are very small.
	 Skipping Hessian update for step 4.
	Denominators (dg)(dq) or (dq)(dq) are very small.
	 Skipping Hessian update for step 3.
	Denominators (dg)(dq) or (dq)(dq) are very small.
	 Skipping Hessian update for step 2.
	Steps to be used in Hessian update: 1
	Taking RFO optimization step.
	Going to follow RFO solution 1.
	Using RFO vector 1.
	Norm of target step-size    0.00002
	Projected energy change by RFO approximation:        -0.0000000000

	Back-transformation to cartesian coordinates...
	Successfully converged to displaced geometry.

	--- Internal Coordinate Step in ANG or DEG, aJ/ANG or AJ/DEG ---
	 ---------------------------------------------------------------------------
	   Coordinate                Previous        Force       Change         New 
	   ----------                --------       ------       ------       ------
	    1 R(1,2)          =      1.089897    -0.000002    -0.000000     1.089897
	    2 R(1,3)          =      1.090042    -0.000002    -0.000000     1.090042
	    3 R(1,4)          =      1.091248    -0.000002    -0.000000     1.091248
	    4 R(1,9)          =      1.524890     0.000000     0.000000     1.524890
	    5 R(5,6)          =      1.089741    -0.000003     0.000000     1.089741
	    6 R(5,7)          =      1.091227    -0.000004    -0.000000     1.091227
	    7 R(5,8)          =      1.090802    -0.000004    -0.000000     1.090802
	    8 R(5,12)         =      1.523755    -0.000001     0.000000     1.523755
	    9 R(9,10)         =      1.090737    -0.000004    -0.000000     1.090736
	   10 R(9,11)         =      1.092724    -0.000001    -0.000000     1.092724
	   11 R(9,15)         =      1.531271    -0.000000    -0.000000     1.531270
	   12 R(12,13)        =      1.093804    -0.000005    -0.000000     1.093804
	   13 R(12,14)        =      1.092067    -0.000006    -0.000000     1.092067
	   14 R(12,24)        =      1.523948    -0.000000     0.000000     1.523948
	   15 R(15,16)        =      1.094501    -0.000002    -0.000000     1.094500
	   16 R(15,17)        =      1.093869    -0.000001    -0.000000     1.093869
	   17 R(15,18)        =      1.534730     0.000002     0.000000     1.534730
	   18 R(18,19)        =      1.092375    -0.000002    -0.000000     1.092375
	   19 R(18,20)        =      1.092045    -0.000004    -0.000000     1.092044
	   20 R(18,21)        =      1.530547    -0.000000    -0.000000     1.530547
	   21 R(21,22)        =      1.094372    -0.000004    -0.000000     1.094372
	   22 R(21,23)        =      1.094003    -0.000004    -0.000000     1.094003
	   23 R(21,24)        =      1.526846    -0.000001    -0.000000     1.526846
	   24 R(24,25)        =      1.094232    -0.000004    -0.000000     1.094232
	   25 R(24,26)        =      1.093650    -0.000008    -0.000000     1.093649
	   26 B(1,9,10)       =    109.536320     0.000000    -0.000017   109.536303
	   27 B(1,9,11)       =    108.809785    -0.000000     0.000024   108.809809
	   28 B(1,9,15)       =    112.953453    -0.000000     0.000009   112.953462
	   29 B(2,1,3)        =    107.518243    -0.000000    -0.000004   107.518239
	   30 B(2,1,4)        =    107.935066     0.000000     0.000006   107.935072
	   31 B(2,1,9)        =    111.150978     0.000000     0.000014   111.150993
	   32 B(3,1,4)        =    107.640437     0.000000    -0.000003   107.640435
	   33 B(3,1,9)        =    111.792864    -0.000000    -0.000005   111.792859
	   34 B(4,1,9)        =    110.630019    -0.000000    -0.000009   110.630010
	   35 B(5,12,13)      =    109.946871     0.000000    -0.000007   109.946864
	   36 B(5,12,14)      =    109.321858    -0.000000     0.000013   109.321871
	   37 B(5,12,24)      =    112.024406     0.000000     0.000050   112.024456
	   38 B(6,5,7)        =    107.894894     0.000000    -0.000002   107.894891
	   39 B(6,5,8)        =    107.995257     0.000000    -0.000000   107.995257
	   40 B(6,5,12)       =    111.732077    -0.000000    -0.000008   111.732068
	   41 B(7,5,8)        =    107.634844     0.000000     0.000007   107.634851
	   42 B(7,5,12)       =    110.607124    -0.000000     0.000006   110.607129
	   43 B(8,5,12)       =    110.821508    -0.000000    -0.000001   110.821506
	   44 B(9,15,16)      =    109.476326     0.000000    -0.000000   109.476326
	   45 B(9,15,17)      =    107.321513    -0.000000     0.000026   107.321538
	   46 B(9,15,18)      =    115.752400     0.000000    -0.000032   115.752368
	   47 B(10,9,11)      =    106.279280    -0.000000     0.000005   106.279284
	   48 B(10,9,15)      =    110.585519     0.000000    -0.000073   110.585446
	   49 B(11,9,15)      =    108.435281     0.000000     0.000055   108.435336
	   50 B(12,24,21)     =    113.895582    -0.000000    -0.000040   113.895543
	   51 B(12,24,25)     =    108.509794     0.000000    -0.000011   108.509782
	   52 B(12,24,26)     =    109.549239     0.000000     0.000029   109.549268
	   53 B(13,12,14)     =    106.360386     0.000000    -0.000005   106.360381
	   54 B(13,12,24)     =    108.972578    -0.000000    -0.000023   108.972555
	   55 B(14,12,24)     =    110.054977    -0.000000    -0.000031   110.054946
	   56 B(15,18,19)     =    108.838397    -0.000000     0.000009   108.838406
	   57 B(15,18,20)     =    110.168726     0.000000    -0.000003   110.168723
	   58 B(15,18,21)     =    114.366312    -0.000000    -0.000009   114.366303
	   59 B(16,15,17)     =    106.103697    -0.000000    -0.000006   106.103691
	   60 B(16,15,18)     =    108.653089    -0.000000    -0.000003   108.653086
	   61 B(17,15,18)     =    109.106371     0.000000     0.000018   109.106390
	   62 B(18,21,22)     =    108.727144     0.000000     0.000001   108.727145
	   63 B(18,21,23)     =    108.216910    -0.000000    -0.000000   108.216909
	   64 B(18,21,24)     =    115.631496    -0.000000    -0.000011   115.631485
	   65 B(19,18,20)     =    105.613611     0.000000    -0.000007   105.613604
	   66 B(19,18,21)     =    107.363745    -0.000000     0.000008   107.363753
	   67 B(20,18,21)     =    110.075322    -0.000000     0.000003   110.075325
	   68 B(21,24,25)     =    108.745969     0.000000     0.000041   108.746010
	   69 B(21,24,26)     =    109.947552     0.000000    -0.000012   109.947539
	   70 B(22,21,23)     =    106.382167    -0.000000    -0.000003   106.382164
	   71 B(22,21,24)     =    108.635198    -0.000000    -0.000016   108.635182
	   72 B(23,21,24)     =    108.862236     0.000000     0.000031   108.862266
	   73 B(25,24,26)     =    105.868202    -0.000000    -0.000004   105.868197
	   74 D(1,9,15,16)    =    170.166214    -0.000000     0.000015   170.166229
	   75 D(1,9,15,17)    =     55.427252    -0.000000     0.000009    55.427261
	   76 D(1,9,15,18)    =    -66.654564    -0.000000    -0.000013   -66.654577
	   77 D(2,1,9,10)     =     58.821045     0.000000    -0.000149    58.820896
	   78 D(2,1,9,11)     =    -56.969802    -0.000000    -0.000158   -56.969961
	   79 D(2,1,9,15)     =   -177.437869    -0.000000    -0.000250  -177.438120
	   80 D(3,1,9,10)     =    -61.330142     0.000000    -0.000150   -61.330293
	   81 D(3,1,9,11)     =   -177.120989     0.000000    -0.000160  -177.121149
	   82 D(3,1,9,15)     =     62.410944    -0.000000    -0.000252    62.410692
	   83 D(4,1,9,10)     =    178.719212     0.000000    -0.000138   178.719074
	   84 D(4,1,9,11)     =     62.928365     0.000000    -0.000147    62.928218
	   85 D(4,1,9,15)     =    -57.539702    -0.000000    -0.000239   -57.539941
	   86 D(5,12,24,21)   =   -179.694771    -0.000000    -0.000052  -179.694823
	   87 D(5,12,24,25)   =     59.039851     0.000000    -0.000070    59.039781
	   88 D(5,12,24,26)   =    -56.101796    -0.000000    -0.000074   -56.101870
	   89 D(6,5,12,13)    =    -57.942246     0.000000    -0.000031   -57.942277
	   90 D(6,5,12,14)    =     58.467563     0.000000    -0.000034    58.467529
	   91 D(6,5,12,24)    =   -179.267793    -0.000000    -0.000031  -179.267824
	   92 D(7,5,12,13)    =   -178.159018    -0.000000    -0.000027  -178.159045
	   93 D(7,5,12,14)    =    -61.749209     0.000000    -0.000029   -61.749239
	   94 D(7,5,12,24)    =     60.515435    -0.000000    -0.000026    60.515408
	   95 D(8,5,12,13)    =     62.548376    -0.000000    -0.000038    62.548338
	   96 D(8,5,12,14)    =    178.958185     0.000000    -0.000041   178.958144
	   97 D(8,5,12,24)    =    -58.777171    -0.000000    -0.000037   -58.777208
	   98 D(9,15,18,19)   =    148.844803    -0.000000    -0.000165   148.844638
	   99 D(9,15,18,20)   =     33.486604    -0.000000    -0.000160    33.486444
	  100 D(9,15,18,21)   =    -91.109910    -0.000000    -0.000154   -91.110065
	  101 D(10,9,15,16)   =    -66.672648    -0.000000    -0.000056   -66.672705
	  102 D(10,9,15,17)   =    178.588390    -0.000000    -0.000063   178.588327
	  103 D(10,9,15,18)   =     56.506573    -0.000000    -0.000084    56.506489
	  104 D(11,9,15,16)   =     49.484543    -0.000000    -0.000059    49.484483
	  105 D(11,9,15,17)   =    -65.254419     0.000000    -0.000066   -65.254485
	  106 D(11,9,15,18)   =    172.663764    -0.000000    -0.000087   172.663677
	  107 D(12,24,21,18)  =     61.452986    -0.000000    -0.000162    61.452824
	  108 D(12,24,21,22)  =    -61.067709    -0.000000    -0.000143   -61.067852
	  109 D(12,24,21,23)  =   -176.519239    -0.000000    -0.000147  -176.519386
	  110 D(13,12,24,21)  =     58.420226    -0.000000    -0.000060    58.420166
	  111 D(13,12,24,25)  =    -62.845152    -0.000000    -0.000078   -62.845230
	  112 D(13,12,24,26)  =   -177.986799    -0.000000    -0.000082  -177.986881
	  113 D(14,12,24,21)  =    -57.849044    -0.000000    -0.000023   -57.849067
	  114 D(14,12,24,25)  =   -179.114422    -0.000000    -0.000041  -179.114463
	  115 D(14,12,24,26)  =     65.743931    -0.000000    -0.000045    65.743886
	  116 D(15,18,21,22)  =   -177.144529     0.000000     0.000121  -177.144408
	  117 D(15,18,21,23)  =    -61.987867     0.000000     0.000117   -61.987750
	  118 D(15,18,21,24)  =     60.383583     0.000000     0.000149    60.383731
	  119 D(16,15,18,19)  =    -87.544415    -0.000000    -0.000191   -87.544606
	  120 D(16,15,18,20)  =    157.097386    -0.000000    -0.000187   157.097199
	  121 D(16,15,18,21)  =     32.500871    -0.000000    -0.000181    32.500690
	  122 D(17,15,18,19)  =     27.717536     0.000000    -0.000190    27.717346
	  123 D(17,15,18,20)  =    -87.640663    -0.000000    -0.000185   -87.640848
	  124 D(17,15,18,21)  =    147.762822    -0.000000    -0.000179   147.762643
	  125 D(18,21,24,25)  =   -177.413089    -0.000000    -0.000173  -177.413263
	  126 D(18,21,24,26)  =    -61.923821    -0.000000    -0.000162   -61.923983
	  127 D(19,18,21,22)  =    -56.279437     0.000000     0.000132   -56.279304
	  128 D(19,18,21,23)  =     58.877225    -0.000000     0.000128    58.877353
	  129 D(19,18,21,24)  =   -178.751325     0.000000     0.000160  -178.751165
	  130 D(20,18,21,22)  =     58.209389    -0.000000     0.000129    58.209519
	  131 D(20,18,21,23)  =    173.366051    -0.000000     0.000126   173.366176
	  132 D(20,18,21,24)  =    -64.262500     0.000000     0.000157   -64.262342
	  133 D(22,21,24,25)  =     60.066216    -0.000000    -0.000155    60.066061
	  134 D(22,21,24,26)  =    175.555485     0.000000    -0.000143   175.555341
	  135 D(23,21,24,25)  =    -55.385315    -0.000000    -0.000158   -55.385473
	  136 D(23,21,24,26)  =     60.103954     0.000000    -0.000147    60.103807
	  137 R(9,12)         =      3.600058    -0.000000     0.000000     3.600058
	  138 R(9,24)         =      3.392619     0.000002     0.000003     3.392622
	 ---------------------------------------------------------------------------

  ==> Convergence Check <==

  Measures of convergence in internal coordinates in au.
  Criteria marked as inactive (o), active & met (*), and active & unmet ( ).
  ---------------------------------------------------------------------------------------------
   Step     Total Energy     Delta E     MAX Force     RMS Force      MAX Disp      RMS Disp   
  ---------------------------------------------------------------------------------------------
    Convergence Criteria             o    2.00e-06 *    1.00e-06 *    6.00e-06 *    4.00e-06 *
  ---------------------------------------------------------------------------------------------
     13    -314.98123073   -1.60e-09 o    9.18e-07 *    1.91e-07 *    4.78e-06 *    1.61e-06 *  ~
  ---------------------------------------------------------------------------------------------


  **** Optimization is complete! (in 13 steps) ****

  ==> Optimization Summary <==

  Measures of convergence in internal coordinates in au.
  --------------------------------------------------------------------------------------------------------------- ~
   Step         Total Energy             Delta E       MAX Force       RMS Force        MAX Disp        RMS Disp  ~
  --------------------------------------------------------------------------------------------------------------- ~
      1    -314.981230728203   -314.981230728203      0.00000110      0.00000028      0.00004804      0.00001593  ~
      2    -314.981230728870     -0.000000000667      0.00000223      0.00000046      0.00007948      0.00002369  ~
      3    -314.981230728232      0.000000000637      0.00000221      0.00000056      0.00005432      0.00002186  ~
      4    -314.981230729041     -0.000000000809      0.00000107      0.00000024      0.00002105      0.00000778  ~
      5    -314.981230731639     -0.000000002598      0.00000144      0.00000025      0.00001066      0.00000437  ~
      6    -314.981230732018     -0.000000000380      0.00000065      0.00000014      0.00001098      0.00000315  ~
      7    -314.981230727736      0.000000004283      0.00000029      0.00000007      0.00002182      0.00000673  ~
      8    -314.981230729238     -0.000000001502      0.00000091      0.00000019      0.00003312      0.00001344  ~
      9    -314.981230727486      0.000000001752      0.00000174      0.00000034      0.00002483      0.00001027  ~
     10    -314.981230731247     -0.000000003761      0.00000108      0.00000020      0.00000732      0.00000201  ~
     11    -314.981230729132      0.000000002114      0.00000078      0.00000016      0.00000808      0.00000282  ~
     12    -314.981230724762      0.000000004371      0.00000083      0.00000017      0.00001005      0.00000314  ~
     13    -314.981230726361     -0.000000001599      0.00000092      0.00000019      0.00000478      0.00000161  ~
  --------------------------------------------------------------------------------------------------------------- ~

	Writing optimization data to binary file.
	Final energy is   -314.9812307263612
	Final (previous) structure:
	Cartesian Geometry (in Angstrom)
	    C    -2.0696018526  -1.6923764747  -0.5222866224
	    H    -1.9603615567  -2.7631278517  -0.3507248598
	    H    -1.5160615079  -1.4471600439  -1.4287372847
	    H    -3.1244398752  -1.4886073203  -0.7136449234
	    C     2.7141705322  -1.3508269012   0.1193225341
	    H     3.0053657547  -2.1246735478  -0.5905381176
	    H     2.2349852080  -1.8389129860   0.9695754420
	    H     3.6223126638  -0.8688094361   0.4837198089
	    C    -1.5762957343  -0.8898584820   0.6768391600
	    H    -0.5278694197  -1.1238332513   0.8659543674
	    H    -2.1265370309  -1.2094955581   1.5651590499
	    C     1.7753280182  -0.3302671260  -0.5122321023
	    H     2.2537451673   0.1285557361  -1.3822929660
	    H     0.8845035420  -0.8406283370  -0.8844870716
	    C    -1.7686085552   0.6195575471   0.5051754313
	    H    -1.5628155383   1.1239490734   1.4544752408
	    H    -2.8281231650   0.7909434604   0.2939761790
	    C    -0.9242609701   1.2785984521  -0.5939783855
	    H    -1.4790335228   2.1250389457  -1.0051349301
	    H    -0.7840883829   0.5865095871  -1.4270005283
	    C     0.4303037425   1.8083802408  -0.1174696661
	    H     0.9298967287   2.3013311106  -0.9571457871
	    H     0.2495313588   2.5840707841   0.6325093735
	    C     1.3779865864   0.7652048966   0.4698462416
	    H     2.2861512504   1.2693092821   0.8140263172
	    H     0.9307591246   0.3140125531   1.3600610635
	Saving final (previous) structure.
			--------------------------
			 OPTKING Finished Execution 
			--------------------------

    Final optimized geometry and variables:
    Molecular point group: c1
    Full point group: C1

    Geometry (in Angstrom), charge = 0, multiplicity = 1:

    C           -2.069601852600    -1.692376474666    -0.522286622398
    H           -1.960361556736    -2.763127851734    -0.350724859775
    H           -1.516061507917    -1.447160043903    -1.428737284664
    H           -3.124439875222    -1.488607320331    -0.713644923440
    C            2.714170532240    -1.350826901223     0.119322534126
    H            3.005365754676    -2.124673547769    -0.590538117624
    H            2.234985207971    -1.838912985973     0.969575441963
    H            3.622312663806    -0.868809436077     0.483719808857
    C           -1.576295734348    -0.889858481970     0.676839160040
    H           -0.527869419668    -1.123833251339     0.865954367363
    H           -2.126537030943    -1.209495558081     1.565159049895
    C            1.775328018230    -0.330267125993    -0.512232102331
    H            2.253745167330     0.128555736067    -1.382292965971
    H            0.884503541973    -0.840628336973    -0.884487071558
    C           -1.768608555210     0.619557547134     0.505175431295
    H           -1.562815538276     1.123949073442     1.454475240783
    H           -2.828123164960     0.790943460434     0.293976178971
    C           -0.924260970090     1.278598452134    -0.593978385534
    H           -1.479033522757     2.125038945708    -1.005134930094
    H           -0.784088382852     0.586509587053    -1.427000528324
    C            0.430303742495     1.808380240785    -0.117469666055
    H            0.929896728717     2.301331110630    -0.957145787092
    H            0.249531358817     2.584070784096     0.632509373499
    C            1.377986586377     0.765204896646     0.469846241646
    H            2.286151250443     1.269309282121     0.814026317211
    H            0.930759124567     0.314012553071     1.360061063504

	Cleaning optimization helper files.

*** Psi4 exiting successfully. Buy a developer a beer!
