    -----------------------------------------------------------------------
          Psi4: An Open-Source Ab Initio Electronic Structure Package
                              Psi4 1.0.0 Driver

                          Git: Rev {master} 6a9a71b dirty

    J. M. Turney, A. C. Simmonett, R. M. Parrish, E. G. Hohenstein,
    F. A. Evangelista, J. T. Fermann, B. J. Mintz, L. A. Burns, J. J. Wilke,
    M. L. Abrams, N. J. Russ, M. L. Leininger, C. L. Janssen, E. T. Seidl,
    W. D. Allen, H. F. Schaefer, R. A. King, E. F. Valeev, C. D. Sherrill,
    and T. D. Crawford, WIREs Comput. Mol. Sci. 2, 556-565 (2012)
    (doi: 10.1002/wcms.93)

                         Additional Contributions by
    A. E. DePrince, U. Bozkaya, A. Yu. Sokolov, D. G. A. Smith, R. Di Remigio,
    R. M. Richard, J. F. Gonthier, H. R. McAlexander, M. Saitow, and
    B. P. Pritchard
    -----------------------------------------------------------------------


    Psi4 started on: Wed Sep 21 13:12:20 2016

    Process ID:  37726
    PSI4DATADIR: /usr/local/hpc5/psi4conda/share/psi4
    Memory level set to 256.000 MB

  ==> Input File <==

--------------------------------------------------------------------------
memory 30 Gb

molecule molecule_65_psi {
0 1
C            2.549418370049    -1.481437237873    -0.040408485941
H            1.949648944678    -1.572971917828    -0.945804730604
H            1.965258962252    -1.882147227731     0.789706906762
H            3.430996178696    -2.110372187562    -0.163914742497
C           -3.463804402944    -0.631247656004    -0.484967496792
H           -2.895715382451    -1.172438376817    -1.240552038904
H           -3.839677006202     0.285555144717    -0.942564552733
H           -4.321820751157    -1.246023187183    -0.214089262140
C            2.944620855858    -0.032738890000     0.222902327920
H            3.519204305442     0.345139059867    -0.627387738221
H            3.610454781840     0.006489886654     1.088242166878
C           -2.608338594771    -0.310179661344     0.736016706102
H           -3.238959374411     0.132321260780     1.510383957225
H           -2.206084538156    -1.236678699635     1.155344137973
C            1.758926763031     0.900702441318     0.465651786263
H            2.147145316913     1.895713766942     0.692394105562
H            1.223174216862     0.571815834466     1.361285332949
C            0.784853501902     0.977366145575    -0.720285754076
H            1.324480085883     0.718583680550    -1.636081921571
H            0.440167449615     2.006347997441    -0.853210900193
C           -0.448897143759     0.083198777633    -0.574015741844
H           -0.932236491665    -0.025482589094    -1.547383061331
H           -0.146647994807    -0.919686130172    -0.259497967700
C           -1.453025300154     0.640243056052     0.430808363924
H           -0.936065800889     0.882341245350     1.363065488950
H           -1.852431444300     1.584203079945     0.044970727828
}

set globals {
  reference rhf
  g_convergence gau_verytight
  basis aug-cc-pvtz
  freeze_core true
  scf_type df
  mp_type df
}
optimize('mp2')
--------------------------------------------------------------------------
/usr/local/hpc5/psi4conda/lib/python2.7/site-packages/v2rdm_casscf/v2rdm_casscf.so loaded.

  Memory set to  30.000 GiB by Python script.
gradient() will perform analytic gradient computation.

*** tstart() called on wr40
*** at Wed Sep 21 13:12:22 2016


         ---------------------------------------------------------
                                   SCF
            by Justin Turney, Rob Parrish, and Andy Simmonett
                              RHF Reference
                       12 Threads,  30000 MiB Core
         ---------------------------------------------------------

  ==> Geometry <==

    Molecular point group: c1
    Full point group: C1

    Geometry (in Angstrom), charge = 0, multiplicity = 1:

       Center              X                  Y                   Z               Mass       
    ------------   -----------------  -----------------  -----------------  -----------------
           C          2.549418370049    -1.481437237873    -0.040408485941    12.000000000000
           H          1.949648944678    -1.572971917828    -0.945804730604     1.007825032070
           H          1.965258962252    -1.882147227731     0.789706906762     1.007825032070
           H          3.430996178696    -2.110372187562    -0.163914742497     1.007825032070
           C         -3.463804402944    -0.631247656004    -0.484967496792    12.000000000000
           H         -2.895715382451    -1.172438376817    -1.240552038904     1.007825032070
           H         -3.839677006202     0.285555144717    -0.942564552733     1.007825032070
           H         -4.321820751157    -1.246023187183    -0.214089262140     1.007825032070
           C          2.944620855858    -0.032738890000     0.222902327920    12.000000000000
           H          3.519204305442     0.345139059867    -0.627387738221     1.007825032070
           H          3.610454781840     0.006489886654     1.088242166878     1.007825032070
           C         -2.608338594771    -0.310179661344     0.736016706102    12.000000000000
           H         -3.238959374411     0.132321260780     1.510383957225     1.007825032070
           H         -2.206084538156    -1.236678699635     1.155344137973     1.007825032070
           C          1.758926763031     0.900702441318     0.465651786263    12.000000000000
           H          2.147145316913     1.895713766942     0.692394105562     1.007825032070
           H          1.223174216862     0.571815834466     1.361285332949     1.007825032070
           C          0.784853501902     0.977366145575    -0.720285754076    12.000000000000
           H          1.324480085883     0.718583680550    -1.636081921571     1.007825032070
           H          0.440167449615     2.006347997441    -0.853210900193     1.007825032070
           C         -0.448897143759     0.083198777633    -0.574015741844    12.000000000000
           H         -0.932236491665    -0.025482589094    -1.547383061331     1.007825032070
           H         -0.146647994807    -0.919686130172    -0.259497967700     1.007825032070
           C         -1.453025300154     0.640243056052     0.430808363924    12.000000000000
           H         -0.936065800889     0.882341245350     1.363065488950     1.007825032070
           H         -1.852431444300     1.584203079945     0.044970727828     1.007825032070

  Running in c1 symmetry.

  Rotational constants: A =      0.12898  B =      0.02632  C =      0.02469 [cm^-1]
  Rotational constants: A =   3866.82797  B =    789.08460  C =    740.28545 [MHz]
  Nuclear repulsion =  396.459123853719518

  Charge       = 0
  Multiplicity = 1
  Electrons    = 66
  Nalpha       = 33
  Nbeta        = 33

  ==> Algorithm <==

  SCF Algorithm Type is DF.
  DIIS enabled.
  MOM disabled.
  Fractional occupation disabled.
  Guess Type is SAD.
  Energy threshold   = 1.00e-10
  Density threshold  = 1.00e-10
  Integral threshold = 0.00e+00

  ==> Primary Basis <==

  Basis Set: AUG-CC-PVTZ
    Number of shells: 274
    Number of basis function: 782
    Number of Cartesian functions: 890
    Spherical Harmonics?: true
    Max angular momentum: 3

  ==> Pre-Iterations <==

   -------------------------------------------------------
    Irrep   Nso     Nmo     Nalpha   Nbeta   Ndocc  Nsocc
   -------------------------------------------------------
     A        782     782       0       0       0       0
   -------------------------------------------------------
    Total     782     782      33      33      33       0
   -------------------------------------------------------

  ==> Integral Setup <==

  ==> DFJK: Density-Fitted J/K Matrices <==

    J tasked:                  Yes
    K tasked:                  Yes
    wK tasked:                  No
    OpenMP threads:             12
    Integrals threads:          12
    Memory (MB):             21457
    Algorithm:                Core
    Integral Cache:           NONE
    Schwarz Cutoff:          1E-12
    Fitting Condition:       1E-12

   => Auxiliary Basis Set <=

  Basis Set: 
    Number of shells: 492
    Number of basis function: 1660
    Number of Cartesian functions: 2038
    Spherical Harmonics?: true
    Max angular momentum: 4

  Minimum eigenvalue in the overlap matrix is 1.8010558885E-06.
  Using Symmetric Orthogonalization.
  SCF Guess: Superposition of Atomic Densities via on-the-fly atomic UHF.

  ==> Iterations <==

                           Total Energy        Delta E     RMS |[F,P]|

   @DF-RHF iter   0:  -316.83376473718073   -3.16834e+02   6.95848e-03 
   @DF-RHF iter   1:  -313.27845269939422    3.55531e+00   7.34433e-04 
   @DF-RHF iter   2:  -313.50043174798765   -2.21979e-01   2.79560e-04 DIIS
   @DF-RHF iter   3:  -313.53109477801655   -3.06630e-02   1.05732e-04 DIIS
   @DF-RHF iter   4:  -313.53684365051384   -5.74887e-03   1.50893e-05 DIIS
   @DF-RHF iter   5:  -313.53699928904763   -1.55639e-04   4.72996e-06 DIIS
   @DF-RHF iter   6:  -313.53701084250935   -1.15535e-05   1.35121e-06 DIIS
   @DF-RHF iter   7:  -313.53701187420535   -1.03170e-06   2.51363e-07 DIIS
   @DF-RHF iter   8:  -313.53701192038062   -4.61753e-08   7.38720e-08 DIIS
   @DF-RHF iter   9:  -313.53701192382920   -3.44858e-09   2.16088e-08 DIIS
   @DF-RHF iter  10:  -313.53701192415889   -3.29692e-10   6.05834e-09 DIIS
   @DF-RHF iter  11:  -313.53701192418276   -2.38742e-11   1.38753e-09 DIIS
   @DF-RHF iter  12:  -313.53701192418447   -1.70530e-12   3.71762e-10 DIIS
   @DF-RHF iter  13:  -313.53701192418356    9.09495e-13   1.08778e-10 DIIS
   @DF-RHF iter  14:  -313.53701192418447   -9.09495e-13   2.82819e-11 DIIS

  ==> Post-Iterations <==

    Orbital Energies (a.u.)
    -----------------------

    Doubly Occupied:                                                      

       1A    -11.213092     2A    -11.212568     3A    -11.210535  
       4A    -11.209883     5A    -11.209520     6A    -11.208620  
       7A    -11.207028     8A    -11.206246     9A     -1.093892  
      10A     -1.059931    11A     -1.006012    12A     -0.943743  
      13A     -0.893033    14A     -0.827657    15A     -0.783327  
      16A     -0.759564    17A     -0.636042    18A     -0.631103  
      19A     -0.618544    20A     -0.596946    21A     -0.569961  
      22A     -0.568019    23A     -0.542239    24A     -0.528849  
      25A     -0.511843    26A     -0.504791    27A     -0.495497  
      28A     -0.469685    29A     -0.463495    30A     -0.462151  
      31A     -0.443527    32A     -0.436841    33A     -0.435204  

    Virtual:                                                              

      34A      0.029828    35A      0.033172    36A      0.034045  
      37A      0.035324    38A      0.046076    39A      0.047146  
      40A      0.049300    41A      0.054445    42A      0.054943  
      43A      0.066872    44A      0.069000    45A      0.070678  
      46A      0.074722    47A      0.075555    48A      0.085546  
      49A      0.093196    50A      0.096560    51A      0.102161  
      52A      0.113466    53A      0.117401    54A      0.122156  
      55A      0.125047    56A      0.126856    57A      0.129883  
      58A      0.132052    59A      0.136205    60A      0.138317  
      61A      0.143863    62A      0.146738    63A      0.151377  
      64A      0.154205    65A      0.156944    66A      0.163178  
      67A      0.164929    68A      0.169819    69A      0.173534  
      70A      0.175566    71A      0.176909    72A      0.183356  
      73A      0.184680    74A      0.186595    75A      0.194845  
      76A      0.197749    77A      0.209161    78A      0.220289  
      79A      0.229876    80A      0.232337    81A      0.238804  
      82A      0.244767    83A      0.250802    84A      0.253730  
      85A      0.263927    86A      0.271595    87A      0.281299  
      88A      0.293430    89A      0.296746    90A      0.301400  
      91A      0.304084    92A      0.304885    93A      0.309076  
      94A      0.315441    95A      0.320189    96A      0.322360  
      97A      0.325960    98A      0.330297    99A      0.333090  
     100A      0.336983   101A      0.340648   102A      0.342242  
     103A      0.345337   104A      0.349619   105A      0.355278  
     106A      0.356978   107A      0.359309   108A      0.362626  
     109A      0.365464   110A      0.367878   111A      0.372605  
     112A      0.376170   113A      0.377505   114A      0.385051  
     115A      0.389364   116A      0.392155   117A      0.394579  
     118A      0.402058   119A      0.404947   120A      0.407331  
     121A      0.415443   122A      0.420876   123A      0.425010  
     124A      0.430375   125A      0.436796   126A      0.437814  
     127A      0.443140   128A      0.444288   129A      0.447976  
     130A      0.451406   131A      0.459363   132A      0.462971  
     133A      0.464480   134A      0.467422   135A      0.472742  
     136A      0.478430   137A      0.479103   138A      0.482365  
     139A      0.484184   140A      0.486558   141A      0.492042  
     142A      0.494581   143A      0.499772   144A      0.504454  
     145A      0.507692   146A      0.512740   147A      0.518169  
     148A      0.520702   149A      0.524198   150A      0.525899  
     151A      0.532121   152A      0.539260   153A      0.543416  
     154A      0.550172   155A      0.554003   156A      0.556454  
     157A      0.565436   158A      0.566311   159A      0.569970  
     160A      0.573612   161A      0.575913   162A      0.582441  
     163A      0.585924   164A      0.588871   165A      0.589401  
     166A      0.595909   167A      0.599781   168A      0.606338  
     169A      0.608297   170A      0.615574   171A      0.617519  
     172A      0.625598   173A      0.631408   174A      0.634495  
     175A      0.643520   176A      0.647733   177A      0.648753  
     178A      0.654381   179A      0.663034   180A      0.665916  
     181A      0.669730   182A      0.672905   183A      0.678940  
     184A      0.686057   185A      0.691638   186A      0.696045  
     187A      0.701294   188A      0.707008   189A      0.708820  
     190A      0.721902   191A      0.722082   192A      0.728211  
     193A      0.731821   194A      0.746901   195A      0.752903  
     196A      0.762663   197A      0.770693   198A      0.770834  
     199A      0.781225   200A      0.789200   201A      0.791088  
     202A      0.807806   203A      0.816931   204A      0.822152  
     205A      0.832195   206A      0.843452   207A      0.846958  
     208A      0.849105   209A      0.851923   210A      0.860992  
     211A      0.865797   212A      0.870979   213A      0.874227  
     214A      0.879252   215A      0.881732   216A      0.888707  
     217A      0.894197   218A      0.903879   219A      0.908573  
     220A      0.910325   221A      0.914692   222A      0.924938  
     223A      0.929873   224A      0.931979   225A      0.938695  
     226A      0.943150   227A      0.949138   228A      0.955727  
     229A      0.961655   230A      0.963758   231A      0.967901  
     232A      0.975256   233A      0.977754   234A      0.985146  
     235A      0.987702   236A      0.993994   237A      0.997504  
     238A      1.002262   239A      1.009598   240A      1.010960  
     241A      1.014408   242A      1.019912   243A      1.023203  
     244A      1.028338   245A      1.032907   246A      1.039561  
     247A      1.046564   248A      1.051186   249A      1.057276  
     250A      1.061701   251A      1.064317   252A      1.076531  
     253A      1.081075   254A      1.084082   255A      1.097013  
     256A      1.098970   257A      1.105899   258A      1.110710  
     259A      1.113193   260A      1.120200   261A      1.123886  
     262A      1.129633   263A      1.131212   264A      1.138146  
     265A      1.143102   266A      1.146311   267A      1.150608  
     268A      1.159547   269A      1.163439   270A      1.170257  
     271A      1.172456   272A      1.177967   273A      1.182476  
     274A      1.187725   275A      1.197069   276A      1.202582  
     277A      1.203074   278A      1.210852   279A      1.216101  
     280A      1.219440   281A      1.226366   282A      1.232678  
     283A      1.234442   284A      1.237578   285A      1.243904  
     286A      1.252295   287A      1.255193   288A      1.259645  
     289A      1.265294   290A      1.272519   291A      1.278822  
     292A      1.285281   293A      1.291133   294A      1.298821  
     295A      1.302708   296A      1.309109   297A      1.311119  
     298A      1.323861   299A      1.327783   300A      1.338751  
     301A      1.348732   302A      1.355448   303A      1.356553  
     304A      1.368030   305A      1.374001   306A      1.379055  
     307A      1.388862   308A      1.397714   309A      1.399503  
     310A      1.403646   311A      1.407808   312A      1.421049  
     313A      1.425479   314A      1.429532   315A      1.435795  
     316A      1.449863   317A      1.459742   318A      1.461039  
     319A      1.471969   320A      1.479948   321A      1.482739  
     322A      1.484844   323A      1.490645   324A      1.509046  
     325A      1.510767   326A      1.514761   327A      1.519668  
     328A      1.535008   329A      1.544503   330A      1.547442  
     331A      1.556680   332A      1.561874   333A      1.572660  
     334A      1.581889   335A      1.586065   336A      1.591706  
     337A      1.601042   338A      1.605402   339A      1.609619  
     340A      1.614170   341A      1.625229   342A      1.635432  
     343A      1.639521   344A      1.654733   345A      1.659776  
     346A      1.664407   347A      1.670774   348A      1.674442  
     349A      1.684364   350A      1.689656   351A      1.694153  
     352A      1.702289   353A      1.708872   354A      1.711954  
     355A      1.715861   356A      1.729673   357A      1.732761  
     358A      1.739596   359A      1.746148   360A      1.750909  
     361A      1.755503   362A      1.759530   363A      1.766595  
     364A      1.776805   365A      1.781213   366A      1.787183  
     367A      1.791794   368A      1.797159   369A      1.800813  
     370A      1.810364   371A      1.816222   372A      1.817761  
     373A      1.826964   374A      1.831941   375A      1.838724  
     376A      1.847017   377A      1.858633   378A      1.861354  
     379A      1.865029   380A      1.871470   381A      1.873711  
     382A      1.882384   383A      1.887570   384A      1.892614  
     385A      1.897671   386A      1.908486   387A      1.911266  
     388A      1.919032   389A      1.925708   390A      1.934059  
     391A      1.946686   392A      1.952640   393A      1.954007  
     394A      1.957386   395A      1.968995   396A      1.971906  
     397A      1.983772   398A      1.989082   399A      1.991588  
     400A      1.996274   401A      2.005486   402A      2.009288  
     403A      2.015219   404A      2.024915   405A      2.033318  
     406A      2.039630   407A      2.042367   408A      2.052829  
     409A      2.067941   410A      2.069569   411A      2.074783  
     412A      2.083072   413A      2.088843   414A      2.097043  
     415A      2.097660   416A      2.109200   417A      2.116349  
     418A      2.122800   419A      2.133733   420A      2.144370  
     421A      2.152205   422A      2.159083   423A      2.160969  
     424A      2.171733   425A      2.180056   426A      2.191859  
     427A      2.199821   428A      2.207282   429A      2.222224  
     430A      2.226922   431A      2.229393   432A      2.241328  
     433A      2.251759   434A      2.262968   435A      2.269802  
     436A      2.276616   437A      2.291358   438A      2.297059  
     439A      2.306589   440A      2.310473   441A      2.322091  
     442A      2.329634   443A      2.336429   444A      2.345516  
     445A      2.354696   446A      2.359863   447A      2.365686  
     448A      2.370650   449A      2.398314   450A      2.408610  
     451A      2.413879   452A      2.420473   453A      2.422960  
     454A      2.434986   455A      2.443566   456A      2.462199  
     457A      2.464169   458A      2.470646   459A      2.477311  
     460A      2.483369   461A      2.502742   462A      2.508950  
     463A      2.523250   464A      2.541057   465A      2.543013  
     466A      2.567184   467A      2.571397   468A      2.583826  
     469A      2.589726   470A      2.599557   471A      2.614240  
     472A      2.636791   473A      2.639250   474A      2.653010  
     475A      2.657654   476A      2.677104   477A      2.706253  
     478A      2.711436   479A      2.730709   480A      2.734066  
     481A      2.787974   482A      2.807396   483A      2.835745  
     484A      2.861423   485A      2.898733   486A      2.916878  
     487A      3.005848   488A      3.024418   489A      3.080127  
     490A      3.125570   491A      3.174587   492A      3.229752  
     493A      3.278419   494A      3.323470   495A      3.365494  
     496A      3.413716   497A      3.430564   498A      3.444558  
     499A      3.467253   500A      3.477427   501A      3.487123  
     502A      3.498711   503A      3.508941   504A      3.516523  
     505A      3.524982   506A      3.557357   507A      3.566754  
     508A      3.582076   509A      3.583067   510A      3.596355  
     511A      3.607435   512A      3.618757   513A      3.630928  
     514A      3.648542   515A      3.655501   516A      3.669680  
     517A      3.679037   518A      3.686794   519A      3.689215  
     520A      3.701346   521A      3.708737   522A      3.710593  
     523A      3.731871   524A      3.733752   525A      3.740300  
     526A      3.755085   527A      3.760190   528A      3.770610  
     529A      3.783843   530A      3.785687   531A      3.797328  
     532A      3.810932   533A      3.820071   534A      3.823558  
     535A      3.831163   536A      3.833432   537A      3.843961  
     538A      3.848311   539A      3.864187   540A      3.866405  
     541A      3.883835   542A      3.886949   543A      3.902553  
     544A      3.907252   545A      3.911634   546A      3.918038  
     547A      3.930387   548A      3.942330   549A      3.946601  
     550A      3.954109   551A      3.960926   552A      3.970453  
     553A      3.976096   554A      3.982614   555A      3.991371  
     556A      3.994554   557A      4.004359   558A      4.010791  
     559A      4.020686   560A      4.024575   561A      4.035092  
     562A      4.039301   563A      4.047436   564A      4.059500  
     565A      4.061621   566A      4.063169   567A      4.077382  
     568A      4.080436   569A      4.089846   570A      4.100874  
     571A      4.103253   572A      4.109581   573A      4.116941  
     574A      4.124151   575A      4.131181   576A      4.139281  
     577A      4.143348   578A      4.152336   579A      4.160816  
     580A      4.172696   581A      4.178370   582A      4.185607  
     583A      4.196741   584A      4.202590   585A      4.222673  
     586A      4.239687   587A      4.248449   588A      4.253407  
     589A      4.264339   590A      4.280146   591A      4.283990  
     592A      4.290830   593A      4.308473   594A      4.316389  
     595A      4.324051   596A      4.334349   597A      4.343612  
     598A      4.354219   599A      4.366432   600A      4.371429  
     601A      4.386307   602A      4.399045   603A      4.412090  
     604A      4.415509   605A      4.435393   606A      4.446552  
     607A      4.457757   608A      4.462128   609A      4.473662  
     610A      4.489716   611A      4.493559   612A      4.521854  
     613A      4.524470   614A      4.536629   615A      4.544113  
     616A      4.559146   617A      4.593572   618A      4.606551  
     619A      4.610250   620A      4.622323   621A      4.627369  
     622A      4.642590   623A      4.648340   624A      4.668482  
     625A      4.679451   626A      4.689048   627A      4.699977  
     628A      4.711110   629A      4.722347   630A      4.733541  
     631A      4.747432   632A      4.754806   633A      4.772186  
     634A      4.777286   635A      4.792390   636A      4.796859  
     637A      4.810970   638A      4.824385   639A      4.834485  
     640A      4.842639   641A      4.860951   642A      4.869538  
     643A      4.882939   644A      4.890514   645A      4.895215  
     646A      4.904433   647A      4.917070   648A      4.923942  
     649A      4.944318   650A      4.945420   651A      4.956495  
     652A      4.964612   653A      4.969941   654A      4.980619  
     655A      4.994283   656A      5.000546   657A      5.011452  
     658A      5.043665   659A      5.051209   660A      5.053172  
     661A      5.074596   662A      5.091263   663A      5.101961  
     664A      5.108632   665A      5.123040   666A      5.133580  
     667A      5.148716   668A      5.158089   669A      5.170393  
     670A      5.177284   671A      5.184941   672A      5.197026  
     673A      5.213481   674A      5.230626   675A      5.238431  
     676A      5.252566   677A      5.263245   678A      5.267259  
     679A      5.277380   680A      5.296281   681A      5.307141  
     682A      5.314726   683A      5.323806   684A      5.327758  
     685A      5.347286   686A      5.364789   687A      5.380036  
     688A      5.393502   689A      5.398550   690A      5.402071  
     691A      5.413385   692A      5.414732   693A      5.433669  
     694A      5.445302   695A      5.452563   696A      5.457787  
     697A      5.470033   698A      5.484256   699A      5.492259  
     700A      5.511724   701A      5.519586   702A      5.526305  
     703A      5.543879   704A      5.552051   705A      5.578536  
     706A      5.582688   707A      5.605929   708A      5.614021  
     709A      5.629207   710A      5.634970   711A      5.656903  
     712A      5.664359   713A      5.671922   714A      5.687865  
     715A      5.691888   716A      5.704192   717A      5.708049  
     718A      5.723395   719A      5.726597   720A      5.734575  
     721A      5.768543   722A      5.780887   723A      5.786237  
     724A      5.795669   725A      5.808112   726A      5.845277  
     727A      5.851044   728A      5.866999   729A      5.881354  
     730A      5.897922   731A      5.915635   732A      5.937184  
     733A      5.979908   734A      6.010395   735A      6.016424  
     736A      6.048551   737A      6.061331   738A      6.068051  
     739A      6.088988   740A      6.127635   741A      6.135811  
     742A      6.160799   743A      6.182367   744A      6.202203  
     745A      6.223325   746A      6.233215   747A      6.242176  
     748A      6.273473   749A      6.290619   750A      6.305803  
     751A      6.308219   752A      6.348073   753A      6.355159  
     754A      6.378985   755A      6.389271   756A      6.399334  
     757A      6.421803   758A      6.467619   759A      6.599368  
     760A      6.611106   761A      6.642749   762A      6.678840  
     763A      6.763508   764A      6.797562   765A      6.798211  
     766A      6.809416   767A      6.908278   768A      6.934123  
     769A      6.967388   770A      6.972054   771A      7.014687  
     772A      7.066968   773A      7.076928   774A      7.136740  
     775A     18.005032   776A     18.020043   777A     18.473971  
     778A     18.577718   779A     18.791321   780A     19.053585  
     781A     19.612319   782A     19.708292  

    Final Occupation by Irrep:
              A 
    DOCC [    33 ]

  Energy converged.

  @DF-RHF Final Energy:  -313.53701192418447

   => Energetics <=

    Nuclear Repulsion Energy =            396.4591238537195181
    One-Electron Energy =               -1208.0734947075206946
    Two-Electron Energy =                 498.0773589296167074
    DFT Exchange-Correlation Energy =       0.0000000000000000
    Empirical Dispersion Energy =           0.0000000000000000
    PCM Polarization Energy =               0.0000000000000000
    EFP Energy =                            0.0000000000000000
    Total Energy =                       -313.5370119241844122


  Saving occupied orbitals to File 180.

*** tstop() called on wr40 at Wed Sep 21 13:14:14 2016
Module time:
	user time   =    1158.60 seconds =      19.31 minutes
	system time =      13.43 seconds =       0.22 minutes
	total time  =        112 seconds =       1.87 minutes
Total time:
	user time   =    1158.60 seconds =      19.31 minutes
	system time =      13.43 seconds =       0.22 minutes
	total time  =        112 seconds =       1.87 minutes


Properties will be evaluated at   0.000000,   0.000000,   0.000000 Bohr

Properties computed using the SCF density matrix

  Nuclear Dipole Moment: (a.u.)
     X:    -0.7116      Y:    -1.6287      Z:    -0.3985

  Electronic Dipole Moment: (a.u.)
     X:     0.7379      Y:     1.6529      Z:     0.4166

  Dipole Moment: (a.u.)
     X:     0.0262      Y:     0.0242      Z:     0.0181     Total:     0.0400

  Dipole Moment: (Debye)
     X:     0.0667      Y:     0.0616      Z:     0.0460     Total:     0.1018


  //>>>>>>>>>>>>>>>>>>>>>>>>>>>>>>>>>>>//
  //               DFMP2               //
  //<<<<<<<<<<<<<<<<<<<<<<<<<<<<<<<<<<<//


*** tstart() called on wr40
*** at Wed Sep 21 13:14:14 2016


*** tstop() called on wr40 at Wed Sep 21 13:14:14 2016
Module time:
	user time   =       5.10 seconds =       0.08 minutes
	system time =       0.14 seconds =       0.00 minutes
	total time  =          0 seconds =       0.00 minutes
Total time:
	user time   =    1164.94 seconds =      19.42 minutes
	system time =      13.61 seconds =       0.23 minutes
	total time  =        112 seconds =       1.87 minutes
	 --------------------------------------------------------
	                          DF-MP2                         
	      2nd-Order Density-Fitted Moller-Plesset Theory     
	              RMP2 Wavefunction,  12 Threads             
	                                                         
	        Rob Parrish, Justin Turney, Andy Simmonett,      
	           Ed Hohenstein, and C. David Sherrill          
	 --------------------------------------------------------

   => Auxiliary Basis Set <=

  Basis Set: 
    Number of shells: 476
    Number of basis function: 1676
    Number of Cartesian functions: 2078
    Spherical Harmonics?: true
    Max angular momentum: 4

	 --------------------------------------------------------
	                 NBF =   782, NAUX =  1676
	 --------------------------------------------------------
	   CLASS    FOCC     OCC    AOCC    AVIR     VIR    FVIR
	   PAIRS       8      33      25     749     749       0
	 --------------------------------------------------------

DGAS Warning! /src/lib/libfock/apps.cc:80 is not currently checking restricted

         ------------------------------------------------------------
                                     CPHF                           
                                  Rob Parrish                       
         ------------------------------------------------------------

  ==> Geometry <==

    Molecular point group: c1
    Full point group: C1

    Geometry (in Angstrom), charge = 0, multiplicity = 1:

       Center              X                  Y                   Z               Mass       
    ------------   -----------------  -----------------  -----------------  -----------------
           C          2.549418370049    -1.481437237873    -0.040408485941    12.000000000000
           H          1.949648944678    -1.572971917828    -0.945804730604     1.007825032070
           H          1.965258962252    -1.882147227731     0.789706906762     1.007825032070
           H          3.430996178696    -2.110372187562    -0.163914742497     1.007825032070
           C         -3.463804402944    -0.631247656004    -0.484967496792    12.000000000000
           H         -2.895715382451    -1.172438376817    -1.240552038904     1.007825032070
           H         -3.839677006202     0.285555144717    -0.942564552733     1.007825032070
           H         -4.321820751157    -1.246023187183    -0.214089262140     1.007825032070
           C          2.944620855858    -0.032738890000     0.222902327920    12.000000000000
           H          3.519204305442     0.345139059867    -0.627387738221     1.007825032070
           H          3.610454781840     0.006489886654     1.088242166878     1.007825032070
           C         -2.608338594771    -0.310179661344     0.736016706102    12.000000000000
           H         -3.238959374411     0.132321260780     1.510383957225     1.007825032070
           H         -2.206084538156    -1.236678699635     1.155344137973     1.007825032070
           C          1.758926763031     0.900702441318     0.465651786263    12.000000000000
           H          2.147145316913     1.895713766942     0.692394105562     1.007825032070
           H          1.223174216862     0.571815834466     1.361285332949     1.007825032070
           C          0.784853501902     0.977366145575    -0.720285754076    12.000000000000
           H          1.324480085883     0.718583680550    -1.636081921571     1.007825032070
           H          0.440167449615     2.006347997441    -0.853210900193     1.007825032070
           C         -0.448897143759     0.083198777633    -0.574015741844    12.000000000000
           H         -0.932236491665    -0.025482589094    -1.547383061331     1.007825032070
           H         -0.146647994807    -0.919686130172    -0.259497967700     1.007825032070
           C         -1.453025300154     0.640243056052     0.430808363924    12.000000000000
           H         -0.936065800889     0.882341245350     1.363065488950     1.007825032070
           H         -1.852431444300     1.584203079945     0.044970727828     1.007825032070

  Nuclear repulsion =  396.459123853719518
  Reference energy  = -313.537011924184469

  ==> Basis Set <==

  Basis Set: AUG-CC-PVTZ
    Number of shells: 274
    Number of basis function: 782
    Number of Cartesian functions: 890
    Spherical Harmonics?: true
    Max angular momentum: 3

  ==> CGRSolver (by Rob Parrish) <==

   Number of roots    =         1
   Preconditioning    =    JACOBI
   Convergence cutoff =     1E-06
   Maximum iterations =       100

  ==> CPHFRHamiltonian (by Rob Parrish) <== 

  ==> DFJK: Density-Fitted J/K Matrices <==

    J tasked:                  Yes
    K tasked:                  Yes
    wK tasked:                  No
    OpenMP threads:             12
    Integrals threads:          12
    Memory (MB):             21457
    Algorithm:                Core
    Integral Cache:           NONE
    Schwarz Cutoff:          1E-12
    Fitting Condition:       1E-12

   => Auxiliary Basis Set <=

  Basis Set: 
    Number of shells: 492
    Number of basis function: 1660
    Number of Cartesian functions: 2038
    Spherical Harmonics?: true
    Max angular momentum: 4

  ==> CPHF Iterations <==

  => Iterations <=

             Iter  Converged  Remaining    Residual
  CGR           1          0          1   9.228E-02
  CGR           2          0          1   1.300E-02
  CGR           3          0          1   3.377E-03
  CGR           4          0          1   8.235E-04
  CGR           5          0          1   2.042E-04
  CGR           6          0          1   4.557E-05
  CGR           7          0          1   1.359E-05
  CGR           8          0          1   3.445E-06
  CGR           9          1          0   9.437E-07

    CGRSolver converged.

  ==> DFCorrGrad: Density-Fitted Correlated Gradients <==

    OpenMP threads:             12
    Integrals threads:          12
    Memory (MB):             21457
    Schwarz Cutoff:          0E+00
    Fitting Condition:       1E-12

   => Auxiliary Basis Set <=

  Basis Set: 
    Number of shells: 492
    Number of basis function: 1660
    Number of Cartesian functions: 2038
    Spherical Harmonics?: true
    Max angular momentum: 4

	-----------------------------------------------------------
	 ==================> DF-MP2 Energies <==================== 
	-----------------------------------------------------------
	 Reference Energy          =    -313.5370119241844691 [Eh]
	 Singles Energy            =      -0.0000000000000000 [Eh]
	 Same-Spin Energy          =      -0.3166766561690406 [Eh]
	 Opposite-Spin Energy      =      -1.1261406027404677 [Eh]
	 Correlation Energy        =      -1.4428172589095083 [Eh]
	 Total Energy              =    -314.9798291830939547 [Eh]
	-----------------------------------------------------------
	 ================> DF-SCS-MP2 Energies <================== 
	-----------------------------------------------------------
	 SCS Same-Spin Scale       =       0.3333333333333333 [-]
	 SCS Opposite-Spin Scale   =       1.2000000000000000 [-]
	 SCS Same-Spin Energy      =      -0.1055588853896802 [Eh]
	 SCS Opposite-Spin Energy  =      -1.3513687232885612 [Eh]
	 SCS Correlation Energy    =      -1.4569276086782414 [Eh]
	 SCS Total Energy          =    -314.9939395328627256 [Eh]
	-----------------------------------------------------------


  -Total Gradient:
     Atom            X                  Y                   Z
    ------   -----------------  -----------------  -----------------
       1       -0.000000375839    -0.000000591819    -0.000000222256
       2        0.000000545639     0.000000148870     0.000000638908
       3        0.000000500905     0.000000324411    -0.000000536802
       4       -0.000000513611     0.000000220968     0.000000004684
       5       -0.000000271545    -0.000000090054    -0.000000348840
       6       -0.000000170999     0.000000205654     0.000000352149
       7        0.000000149887    -0.000000306186     0.000000192952
       8        0.000000291316     0.000000218784    -0.000000114804
       9        0.000000801444     0.000000505491     0.000000055025
      10       -0.000000486445    -0.000000334993     0.000000762731
      11       -0.000000463643     0.000000039873    -0.000000722684
      12       -0.000000017412    -0.000000207868     0.000000647009
      13        0.000000296572    -0.000000175581    -0.000000261166
      14       -0.000000113108     0.000000464845    -0.000000270848
      15       -0.000000420019     0.000000093417     0.000000715766
      16       -0.000000364753    -0.000000525593     0.000000034145
      17        0.000000483901     0.000000209718    -0.000000720103
      18        0.000000478611     0.000000351673    -0.000000893612
      19       -0.000000570499     0.000000124029     0.000000690374
      20        0.000000320739    -0.000000448102     0.000000087090
      21        0.000000264868    -0.000001209016    -0.000000483844
      22        0.000000381205    -0.000000016099     0.000000657904
      23       -0.000000312281     0.000000830415    -0.000000317799
      24       -0.000000441300     0.000000773456     0.000000343326
      25       -0.000000323352    -0.000000116146    -0.000000436182
      26        0.000000329720    -0.000000490144     0.000000146875


			-----------------------------------------
			 OPTKING 2.0: for geometry optimizations 
			  - R.A. King,  Bethel University        
			-----------------------------------------

	Internal coordinates to be generated automatically.
	Detected frag 1 with atoms:  1 2 3 4 5 6 7 8 9 10 11 12 13 14 15 16 17 18 19 20
	 21 22 23 24 25 26
	---Fragment 1 Bond Connectivity---
	 1 : 2 3 4 9
	 2 : 1
	 3 : 1
	 4 : 1
	 5 : 6 7 8 12
	 6 : 5
	 7 : 5
	 8 : 5
	 9 : 1 10 11 15
	 10 : 9
	 11 : 9
	 12 : 5 13 14 24
	 13 : 12
	 14 : 12
	 15 : 9 16 17 18
	 16 : 15
	 17 : 15
	 18 : 15 19 20 21
	 19 : 18
	 20 : 18
	 21 : 18 22 23 24
	 22 : 21
	 23 : 21
	 24 : 12 21 25 26
	 25 : 24
	 26 : 24

	---Fragment 1 Geometry and Gradient---
	 C           4.8177025175       -2.7995106626       -0.0763609719
	 H           3.6843025607       -2.9724861394       -1.7873119160
	 H           3.7138012189       -3.5567428022        1.4923297790
	 H           6.4836431407       -3.9880254730       -0.3097539725
	 C          -6.5456416994       -1.1928851919       -0.9164557523
	 H          -5.4721090316       -2.2155874399       -2.3443036071
	 H          -7.2559379805        0.5396210194       -1.7811888672
	 H          -8.1670576151       -2.3546425790       -0.4045700734
	 C           5.5645269828       -0.0618675360        0.4212243542
	 H           6.6503323430        0.6522183009       -1.1855910044
	 H           6.8227707528        0.0122641084        2.0564796617
	 C          -4.9290456060       -0.5861546119        1.3908700038
	 H          -6.1207461732        0.2500509444        2.8542120347
	 H          -4.1688956031       -2.3369840567        2.1832840100
	 C           3.3238898699        1.7020809413        0.8799543493
	 H           4.0575166165        3.5823798459        1.3084352355
	 H           2.3114642827        1.0805753256        2.5724564680
	 C           1.4831581730        1.8469543467       -1.3611428126
	 H           2.5029046308        1.3579263598       -3.0917467627
	 H           0.8317959324        3.7914482424       -1.6123349350
	 C          -0.8482926635        0.1572229043       -1.0847325481
	 H          -1.7616716603       -0.0481551145       -2.9241302086
	 H          -0.2771245481       -1.7379549142       -0.4903800910
	 C          -2.7458198814        1.2098840344        0.8141098236
	 H          -1.7689080060        1.6673833095        2.5758204753
	 H          -3.5005881097        2.9937099600        0.0849823596
	            -0.0000003758       -0.0000005918       -0.0000002223
	             0.0000005456        0.0000001489        0.0000006389
	             0.0000005009        0.0000003244       -0.0000005368
	            -0.0000005136        0.0000002210        0.0000000047
	            -0.0000002715       -0.0000000901       -0.0000003488
	            -0.0000001710        0.0000002057        0.0000003521
	             0.0000001499       -0.0000003062        0.0000001930
	             0.0000002913        0.0000002188       -0.0000001148
	             0.0000008014        0.0000005055        0.0000000550
	            -0.0000004864       -0.0000003350        0.0000007627
	            -0.0000004636        0.0000000399       -0.0000007227
	            -0.0000000174       -0.0000002079        0.0000006470
	             0.0000002966       -0.0000001756       -0.0000002612
	            -0.0000001131        0.0000004648       -0.0000002708
	            -0.0000004200        0.0000000934        0.0000007158
	            -0.0000003648       -0.0000005256        0.0000000341
	             0.0000004839        0.0000002097       -0.0000007201
	             0.0000004786        0.0000003517       -0.0000008936
	            -0.0000005705        0.0000001240        0.0000006904
	             0.0000003207       -0.0000004481        0.0000000871
	             0.0000002649       -0.0000012090       -0.0000004838
	             0.0000003812       -0.0000000161        0.0000006579
	            -0.0000003123        0.0000008304       -0.0000003178
	            -0.0000004413        0.0000007735        0.0000003433
	            -0.0000003234       -0.0000001161       -0.0000004362
	             0.0000003297       -0.0000004901        0.0000001469

	Previous optimization step data not found.  Starting new optimization.

	---Fragment 1 Intrafragment Coordinates---
	 - Coordinate -           - BOHR/RAD -       - ANG/DEG -
	 R(1,2)           =         2.059580	       1.089883
	 R(1,3)           =         2.062229	       1.091285
	 R(1,4)           =         2.059708	       1.089951
	 R(1,9)           =         2.880977	       1.524547
	 R(5,6)           =         2.058432	       1.089275
	 R(5,7)           =         2.062489	       1.091422
	 R(5,8)           =         2.059295	       1.089732
	 R(5,12)          =         2.881884	       1.525027
	 R(9,10)          =         2.066579	       1.093586
	 R(9,11)          =         2.064639	       1.092560
	 R(9,15)          =         2.888322	       1.528434
	 R(12,13)         =         2.064161	       1.092307
	 R(12,14)         =         2.066676	       1.093638
	 R(12,24)         =         2.885287	       1.526828
	 R(15,16)         =         2.063329	       1.091867
	 R(15,17)         =         2.067810	       1.094238
	 R(15,18)         =         2.903756	       1.536601
	 R(18,19)         =         2.067371	       1.094005
	 R(18,20)         =         2.066017	       1.093289
	 R(18,21)         =         2.892621	       1.530709
	 R(21,22)         =         2.063934	       1.092187
	 R(21,23)         =         2.066685	       1.093643
	 R(21,24)         =         2.883454	       1.525858
	 R(24,25)         =         2.065741	       1.093143
	 R(24,26)         =         2.069622	       1.095197
	 B(1,9,10)        =         1.907375	     109.284556
	 B(1,9,11)        =         1.905927	     109.201586
	 B(1,9,15)        =         1.989600	     113.995659
	 B(2,1,3)         =         1.882311	     107.848477
	 B(2,1,4)         =         1.878117	     107.608158
	 B(2,1,9)         =         1.945439	     111.465420
	 B(3,1,4)         =         1.883123	     107.895022
	 B(3,1,9)         =         1.935107	     110.873474
	 B(4,1,9)         =         1.937162	     110.991228
	 B(5,12,13)       =         1.906067	     109.209585
	 B(5,12,14)       =         1.912348	     109.569444
	 B(5,12,24)       =         1.977372	     113.295094
	 B(6,5,7)         =         1.881918	     107.825933
	 B(6,5,8)         =         1.878391	     107.623888
	 B(6,5,12)        =         1.947021	     111.556081
	 B(7,5,8)         =         1.882785	     107.875659
	 B(7,5,12)        =         1.930518	     110.610533
	 B(8,5,12)        =         1.940598	     111.188050
	 B(9,15,16)       =         1.889884	     108.282377
	 B(9,15,17)       =         1.903139	     109.041807
	 B(9,15,18)       =         1.981937	     113.556640
	 B(10,9,11)       =         1.857942	     106.452248
	 B(10,9,15)       =         1.896582	     108.666142
	 B(11,9,15)       =         1.901857	     108.968389
	 B(12,24,21)      =         1.984865	     113.724408
	 B(12,24,25)      =         1.902045	     108.979172
	 B(12,24,26)      =         1.908154	     109.329188
	 B(13,12,14)      =         1.858471	     106.482572
	 B(13,12,24)      =         1.903280	     109.049925
	 B(14,12,24)      =         1.902526	     109.006737
	 B(15,18,19)      =         1.898200	     108.758859
	 B(15,18,20)      =         1.918405	     109.916520
	 B(15,18,21)      =         1.991102	     114.081755
	 B(16,15,17)      =         1.852519	     106.141527
	 B(16,15,18)      =         1.917925	     109.889020
	 B(17,15,18)      =         1.913819	     109.653764
	 B(18,21,22)      =         1.906735	     109.247874
	 B(18,21,23)      =         1.918142	     109.901434
	 B(18,21,24)      =         1.960678	     112.338546
	 B(19,18,20)      =         1.850807	     106.043454
	 B(19,18,21)      =         1.917052	     109.838965
	 B(20,18,21)      =         1.883150	     107.896568
	 B(21,24,25)      =         1.908425	     109.344714
	 B(21,24,26)      =         1.899323	     108.823196
	 B(22,21,23)      =         1.862261	     106.699701
	 B(22,21,24)      =         1.909209	     109.389599
	 B(23,21,24)      =         1.904199	     109.102558
	 B(25,24,26)      =         1.856703	     106.381266
	 D(1,9,15,16)     =         3.092582	     177.191890
	 D(1,9,15,17)     =         1.084186	      62.119259
	 D(1,9,15,18)     =        -1.055421	     -60.471162
	 D(2,1,9,10)      =        -1.034799	     -59.289593
	 D(2,1,9,11)      =        -3.060731	    -175.366963
	 D(2,1,9,15)      =         1.090954	      62.507046
	 D(3,1,9,10)      =        -3.131994	    -179.450023
	 D(3,1,9,11)      =         1.125259	      64.472606
	 D(3,1,9,15)      =        -1.006241	     -57.653384
	 D(4,1,9,10)      =         1.058475	      60.646148
	 D(4,1,9,11)      =        -0.967457	     -55.431222
	 D(4,1,9,15)      =        -3.098958	    -177.557213
	 D(5,12,24,21)    =        -1.083043	     -62.053815
	 D(5,12,24,25)    =         3.066287	     175.685312
	 D(5,12,24,26)    =         1.043572	      59.792267
	 D(6,5,12,13)     =        -3.034389	    -173.857689
	 D(6,5,12,14)     =        -1.004951	     -57.579447
	 D(6,5,12,24)     =         1.123717	      64.384262
	 D(7,5,12,13)     =         1.154142	      66.127469
	 D(7,5,12,14)     =        -3.099605	    -177.594288
	 D(7,5,12,24)     =        -0.970937	     -55.630580
	 D(8,5,12,13)     =        -0.937371	     -53.707425
	 D(8,5,12,14)     =         1.092067	      62.570817
	 D(8,5,12,24)     =        -3.062450	    -175.465475
	 D(9,15,18,19)    =        -0.431027	     -24.696019
	 D(9,15,18,20)    =        -2.450187	    -140.385367
	 D(9,15,18,21)    =         1.715417	      98.286167
	 D(10,9,15,16)    =        -1.058904	     -60.670738
	 D(10,9,15,17)    =        -3.067300	    -175.743369
	 D(10,9,15,18)    =         1.076278	      61.666210
	 D(11,9,15,16)    =         0.958844	      54.937727
	 D(11,9,15,17)    =        -1.049552	     -60.134904
	 D(11,9,15,18)    =         3.094027	     177.274675
	 D(12,24,21,18)   =        -3.011988	    -172.574226
	 D(12,24,21,22)   =         1.150674	      65.928761
	 D(12,24,21,23)   =        -0.880490	     -50.448367
	 D(13,12,24,21)   =         3.073504	     176.098826
	 D(13,12,24,25)   =         0.939650	      53.837953
	 D(13,12,24,26)   =        -1.083066	     -62.055092
	 D(14,12,24,21)   =         1.051100	      60.223572
	 D(14,12,24,25)   =        -1.082755	     -62.037301
	 D(14,12,24,26)   =        -3.105470	    -177.930346
	 D(15,18,21,22)   =        -2.863794	    -164.083337
	 D(15,18,21,23)   =        -0.826110	     -47.332592
	 D(15,18,21,24)   =         1.297455	      74.338693
	 D(16,15,18,19)   =         1.688562	      96.747456
	 D(16,15,18,20)   =        -0.330598	     -18.941892
	 D(16,15,18,21)   =        -2.448180	    -140.270358
	 D(17,15,18,19)   =        -2.564729	    -146.948123
	 D(17,15,18,20)   =         1.699297	      97.362529
	 D(17,15,18,21)   =        -0.418285	     -23.965937
	 D(18,21,24,25)   =        -0.881660	     -50.515376
	 D(18,21,24,26)   =         1.139692	      65.299514
	 D(19,18,21,22)   =        -0.727638	     -41.690593
	 D(19,18,21,23)   =         1.310047	      75.060152
	 D(19,18,21,24)   =        -2.849574	    -163.268563
	 D(20,18,21,22)   =         1.282397	      73.475959
	 D(20,18,21,23)   =        -2.963103	    -169.773296
	 D(20,18,21,24)   =        -0.839538	     -48.102011
	 D(22,21,24,25)   =        -3.002183	    -172.012389
	 D(22,21,24,26)   =        -0.980831	     -56.197499
	 D(23,21,24,25)   =         1.249839	      71.610482
	 D(23,21,24,26)   =        -3.011995	    -172.574628
	 R(1,21)          =         6.470130	       3.423846

	Current energy   :      -314.9798291831

	Generating empirical Hessian (Schlegel '84) for each fragment.
	Taking RFO optimization step.
	Going to follow RFO solution 1.
	Using RFO vector 1.
	Norm of target step-size    0.00040
	Projected energy change by RFO approximation:         0.0000000012

	Back-transformation to cartesian coordinates...
	Successfully converged to displaced geometry.

	--- Internal Coordinate Step in ANG or DEG, aJ/ANG or AJ/DEG ---
	 ---------------------------------------------------------------------------
	   Coordinate                Previous        Force       Change         New 
	   ----------                --------       ------       ------       ------
	    1 R(1,2)          =      1.089883     0.000007     0.000001     1.089884
	    2 R(1,3)          =      1.091285     0.000007     0.000001     1.091286
	    3 R(1,4)          =      1.089951     0.000004     0.000001     1.089951
	    4 R(1,9)          =      1.524547     0.000001     0.000000     1.524548
	    5 R(5,6)          =      1.089275     0.000004     0.000001     1.089276
	    6 R(5,7)          =      1.091422     0.000003     0.000001     1.091423
	    7 R(5,8)          =      1.089732     0.000003     0.000001     1.089733
	    8 R(5,12)         =      1.525027     0.000001     0.000000     1.525028
	    9 R(9,10)         =      1.093586     0.000008     0.000001     1.093588
	   10 R(9,11)         =      1.092560     0.000007     0.000001     1.092561
	   11 R(9,15)         =      1.528434     0.000001     0.000001     1.528435
	   12 R(12,13)        =      1.092307     0.000004     0.000001     1.092308
	   13 R(12,14)        =      1.093638     0.000004     0.000001     1.093639
	   14 R(12,24)        =      1.526828     0.000002     0.000000     1.526829
	   15 R(15,16)        =      1.091867     0.000005     0.000001     1.091868
	   16 R(15,17)        =      1.094238     0.000007     0.000001     1.094239
	   17 R(15,18)        =      1.536601     0.000001     0.000001     1.536603
	   18 R(18,19)        =      1.094005     0.000007     0.000001     1.094007
	   19 R(18,20)        =      1.093289     0.000004     0.000001     1.093290
	   20 R(18,21)        =      1.530709    -0.000000     0.000001     1.530710
	   21 R(21,22)        =      1.092187     0.000006     0.000001     1.092188
	   22 R(21,23)        =      1.093643     0.000008     0.000001     1.093644
	   23 R(21,24)        =      1.525858    -0.000004    -0.000001     1.525857
	   24 R(24,25)        =      1.093143     0.000005     0.000001     1.093144
	   25 R(24,26)        =      1.095197     0.000005     0.000001     1.095198
	   26 B(1,9,10)       =    109.284556     0.000000     0.000063   109.284619
	   27 B(1,9,11)       =    109.201586    -0.000000    -0.000241   109.201345
	   28 B(1,9,15)       =    113.995659    -0.000000     0.000352   113.996011
	   29 B(2,1,3)        =    107.848477    -0.000000    -0.000051   107.848427
	   30 B(2,1,4)        =    107.608158     0.000000     0.000035   107.608193
	   31 B(2,1,9)        =    111.465420     0.000000     0.000056   111.465476
	   32 B(3,1,4)        =    107.895022     0.000000     0.000011   107.895033
	   33 B(3,1,9)        =    110.873474     0.000000     0.000023   110.873497
	   34 B(4,1,9)        =    110.991228    -0.000000    -0.000075   110.991153
	   35 B(5,12,13)      =    109.209585    -0.000000    -0.000015   109.209569
	   36 B(5,12,14)      =    109.569444    -0.000000    -0.000027   109.569417
	   37 B(5,12,24)      =    113.295094     0.000000     0.000021   113.295115
	   38 B(6,5,7)        =    107.825933    -0.000000    -0.000014   107.825920
	   39 B(6,5,8)        =    107.623888    -0.000000    -0.000013   107.623875
	   40 B(6,5,12)       =    111.556081     0.000000     0.000038   111.556119
	   41 B(7,5,8)        =    107.875659    -0.000000    -0.000006   107.875653
	   42 B(7,5,12)       =    110.610533     0.000000     0.000023   110.610556
	   43 B(8,5,12)       =    111.188050    -0.000000    -0.000030   111.188020
	   44 B(9,15,16)      =    108.282377     0.000000    -0.000270   108.282106
	   45 B(9,15,17)      =    109.041807    -0.000000     0.000084   109.041891
	   46 B(9,15,18)      =    113.556640     0.000000     0.000372   113.557011
	   47 B(10,9,11)      =    106.452248     0.000000    -0.000033   106.452215
	   48 B(10,9,15)      =    108.666142     0.000000     0.000006   108.666148
	   49 B(11,9,15)      =    108.968389     0.000000    -0.000171   108.968218
	   50 B(12,24,21)     =    113.724408    -0.000000    -0.000096   113.724312
	   51 B(12,24,25)     =    108.979172     0.000000     0.000086   108.979257
	   52 B(12,24,26)     =    109.329188    -0.000000    -0.000075   109.329113
	   53 B(13,12,14)     =    106.482572    -0.000000    -0.000023   106.482549
	   54 B(13,12,24)     =    109.049925    -0.000000     0.000009   109.049935
	   55 B(14,12,24)     =    109.006737     0.000000     0.000032   109.006769
	   56 B(15,18,19)     =    108.758859    -0.000000    -0.000066   108.758792
	   57 B(15,18,20)     =    109.916520    -0.000000    -0.000079   109.916441
	   58 B(15,18,21)     =    114.081755     0.000000     0.000327   114.082082
	   59 B(16,15,17)     =    106.141527     0.000000    -0.000024   106.141503
	   60 B(16,15,18)     =    109.889020    -0.000000    -0.000268   109.888752
	   61 B(17,15,18)     =    109.653764     0.000000     0.000079   109.653843
	   62 B(18,21,22)     =    109.247874    -0.000000    -0.000027   109.247847
	   63 B(18,21,23)     =    109.901434    -0.000000    -0.000072   109.901362
	   64 B(18,21,24)     =    112.338546     0.000000     0.000182   112.338728
	   65 B(19,18,20)     =    106.043454     0.000000    -0.000064   106.043390
	   66 B(19,18,21)     =    109.838965    -0.000000     0.000042   109.839007
	   67 B(20,18,21)     =    107.896568    -0.000000    -0.000188   107.896380
	   68 B(21,24,25)     =    109.344714     0.000000     0.000048   109.344762
	   69 B(21,24,26)     =    108.823196     0.000000     0.000018   108.823214
	   70 B(22,21,23)     =    106.699701     0.000000     0.000014   106.699715
	   71 B(22,21,24)     =    109.389599    -0.000000    -0.000032   109.389566
	   72 B(23,21,24)     =    109.102558    -0.000000    -0.000073   109.102485
	   73 B(25,24,26)     =    106.381266    -0.000000     0.000027   106.381293
	   74 D(1,9,15,16)    =    177.191890    -0.000000    -0.004182   177.187707
	   75 D(1,9,15,17)    =     62.119259    -0.000000    -0.004053    62.115205
	   76 D(1,9,15,18)    =    -60.471162    -0.000000    -0.004474   -60.475636
	   77 D(2,1,9,10)     =    -59.289593    -0.000000     0.000064   -59.289529
	   78 D(2,1,9,11)     =   -175.366963    -0.000000     0.000203  -175.366760
	   79 D(2,1,9,15)     =     62.507046     0.000000     0.000360    62.507406
	   80 D(3,1,9,10)     =   -179.450023     0.000000     0.000074  -179.449949
	   81 D(3,1,9,11)     =     64.472606    -0.000000     0.000214    64.472820
	   82 D(3,1,9,15)     =    -57.653384     0.000000     0.000371   -57.653013
	   83 D(4,1,9,10)     =     60.646148     0.000000     0.000095    60.646244
	   84 D(4,1,9,11)     =    -55.431222    -0.000000     0.000235   -55.430987
	   85 D(4,1,9,15)     =   -177.557213     0.000000     0.000392  -177.556821
	   86 D(5,12,24,21)   =    -62.053815     0.000000     0.001689   -62.052127
	   87 D(5,12,24,25)   =    175.685312     0.000000     0.001630   175.686941
	   88 D(5,12,24,26)   =     59.792267     0.000000     0.001591    59.793858
	   89 D(6,5,12,13)    =   -173.857689     0.000000    -0.000118  -173.857807
	   90 D(6,5,12,14)    =    -57.579447    -0.000000    -0.000169   -57.579616
	   91 D(6,5,12,24)    =     64.384262     0.000000    -0.000133    64.384128
	   92 D(7,5,12,13)    =     66.127469     0.000000    -0.000141    66.127328
	   93 D(7,5,12,14)    =   -177.594288    -0.000000    -0.000193  -177.594481
	   94 D(7,5,12,24)    =    -55.630580    -0.000000    -0.000157   -55.630737
	   95 D(8,5,12,13)    =    -53.707425     0.000000    -0.000129   -53.707555
	   96 D(8,5,12,14)    =     62.570817    -0.000000    -0.000181    62.570636
	   97 D(8,5,12,24)    =   -175.465475     0.000000    -0.000145  -175.465619
	   98 D(9,15,18,19)   =    -24.696019    -0.000000    -0.005444   -24.701463
	   99 D(9,15,18,20)   =   -140.385367    -0.000000    -0.005286  -140.390653
	  100 D(9,15,18,21)   =     98.286167    -0.000000    -0.005212    98.280955
	  101 D(10,9,15,16)   =    -60.670738    -0.000000    -0.003858   -60.674596
	  102 D(10,9,15,17)   =   -175.743369    -0.000000    -0.003729  -175.747098
	  103 D(10,9,15,18)   =     61.666210    -0.000000    -0.004149    61.662061
	  104 D(11,9,15,16)   =     54.937727     0.000000    -0.003986    54.933740
	  105 D(11,9,15,17)   =    -60.134904    -0.000000    -0.003857   -60.138762
	  106 D(11,9,15,18)   =    177.274675     0.000000    -0.004278   177.270397
	  107 D(12,24,21,18)  =   -172.574226    -0.000000    -0.000339  -172.574565
	  108 D(12,24,21,22)  =     65.928761    -0.000000    -0.000402    65.928359
	  109 D(12,24,21,23)  =    -50.448367    -0.000000    -0.000360   -50.448727
	  110 D(13,12,24,21)  =    176.098826     0.000000     0.001687   176.100514
	  111 D(13,12,24,25)  =     53.837953     0.000000     0.001628    53.839582
	  112 D(13,12,24,26)  =    -62.055092     0.000000     0.001590   -62.053502
	  113 D(14,12,24,21)  =     60.223572     0.000000     0.001691    60.225263
	  114 D(14,12,24,25)  =    -62.037301     0.000000     0.001632   -62.035669
	  115 D(14,12,24,26)  =   -177.930346     0.000000     0.001594  -177.928752
	  116 D(15,18,21,22)  =   -164.083337     0.000000    -0.002332  -164.085669
	  117 D(15,18,21,23)  =    -47.332592     0.000000    -0.002372   -47.334965
	  118 D(15,18,21,24)  =     74.338693     0.000000    -0.002393    74.336300
	  119 D(16,15,18,19)  =     96.747456    -0.000000    -0.005733    96.741724
	  120 D(16,15,18,20)  =    -18.941892    -0.000000    -0.005575   -18.947467
	  121 D(16,15,18,21)  =   -140.270358    -0.000000    -0.005501  -140.275859
	  122 D(17,15,18,19)  =   -146.948123    -0.000000    -0.005871  -146.953993
	  123 D(17,15,18,20)  =     97.362529    -0.000000    -0.005713    97.356816
	  124 D(17,15,18,21)  =    -23.965937    -0.000000    -0.005639   -23.971576
	  125 D(18,21,24,25)  =    -50.515376     0.000000    -0.000259   -50.515635
	  126 D(18,21,24,26)  =     65.299514     0.000000    -0.000191    65.299322
	  127 D(19,18,21,22)  =    -41.690593    -0.000000    -0.002154   -41.692747
	  128 D(19,18,21,23)  =     75.060152    -0.000000    -0.002195    75.057958
	  129 D(19,18,21,24)  =   -163.268563    -0.000000    -0.002215  -163.270777
	  130 D(20,18,21,22)  =     73.475959    -0.000000    -0.002311    73.473648
	  131 D(20,18,21,23)  =   -169.773296    -0.000000    -0.002351  -169.775648
	  132 D(20,18,21,24)  =    -48.102011    -0.000000    -0.002372   -48.104383
	  133 D(22,21,24,25)  =   -172.012389    -0.000000    -0.000323  -172.012712
	  134 D(22,21,24,26)  =    -56.197499     0.000000    -0.000255   -56.197754
	  135 D(23,21,24,25)  =     71.610482     0.000000    -0.000280    71.610202
	  136 D(23,21,24,26)  =   -172.574628     0.000000    -0.000212  -172.574840
	  137 R(1,21)         =      3.423846     0.000000    -0.000033     3.423813
	 ---------------------------------------------------------------------------

  ==> Convergence Check <==

  Measures of convergence in internal coordinates in au.
  Criteria marked as inactive (o), active & met (*), and active & unmet ( ).
  --------------------------------------------------------------------------------------------- ~
   Step     Total Energy     Delta E     MAX Force     RMS Force      MAX Disp      RMS Disp    ~
  --------------------------------------------------------------------------------------------- ~
    Convergence Criteria             o    2.00e-06 *    1.00e-06 *    6.00e-06 *    4.00e-06 *  ~
  --------------------------------------------------------------------------------------------- ~
      1    -314.97982918   -3.15e+02 o    9.68e-07 *    2.76e-07 *    1.02e-04      3.38e-05    ~
  ---------------------------------------------------------------------------------------------

	Writing optimization data to binary file.
	Structure for next step:
	Cartesian Geometry (in Angstrom)
	    C     2.5493184463  -1.4814667581  -0.0402954848
	    H     1.9494955829  -1.5730601889  -0.9456519231
	    H     1.9651898787  -1.8820858386   0.7898870745
	    H     3.4308694515  -2.1104420253  -0.1637950191
	    C    -3.4637608949  -0.6312605668  -0.4849872268
	    H    -2.8956724731  -1.1723980424  -1.2406113136
	    H    -3.8396557184   0.2855626291  -0.9425265494
	    H    -4.3217634845  -1.2460669831  -0.2141331501
	    C     2.9445850934  -0.0327588825   0.2228687324
	    H     3.5191348973   0.3450279138  -0.6274864870
	    H     3.6104711094   0.0065168520   1.0881680086
	    C    -2.6082849878  -0.3102488638   0.7360048512
	    H    -3.2389037007   0.1321984746   1.5104053224
	    H    -2.2060121660  -1.2367666293   1.1552750864
	    C     1.7589415159   0.9007504558   0.4656124318
	    H     2.1472196912   1.8957475633   0.6923195087
	    H     1.2231873647   0.5719186420   1.3612668078
	    C     0.7848489600   0.9774419735  -0.7203090217
	    H     1.3244690846   0.7187053034  -1.6361235694
	    H     0.4401439440   2.0064241107  -0.8531895455
	    C    -0.4488885010   0.0832518028  -0.5740614833
	    H    -0.9322601323  -0.0253637321  -1.5474214149
	    H    -0.1466171650  -0.9196540293  -0.2596267307
	    C    -1.4529894784   0.6402089502   0.4308368382
	    H    -0.9360032006   0.8822399617   1.3630975452
	    H    -1.8524176099   1.5841955233   0.0450843258
			--------------------------
			 OPTKING Finished Execution 
			--------------------------

    Structure for next step:
    Molecular point group: c1
    Full point group: C1

    Geometry (in Angstrom), charge = 0, multiplicity = 1:

    C            2.549316895423    -1.481467830483    -0.040292396455
    H            1.949494031962    -1.573061261276    -0.945648834793
    H            1.965188327797    -1.882086911034     0.789890162797
    H            3.430867900593    -2.110443097685    -0.163791930770
    C           -3.463762445786    -0.631261639219    -0.484984138517
    H           -2.895674023996    -1.172399114860    -1.240608225259
    H           -3.839657269308     0.285561556732    -0.942523461093
    H           -4.321765035447    -1.246068055524    -0.214130061757
    C            2.944583542465    -0.032759954957     0.222871820729
    H            3.519133346408     0.345026841404    -0.627483398685
    H            3.610469558546     0.006515779539     1.088171096874
    C           -2.608286538656    -0.310249936204     0.736007939508
    H           -3.238905251562     0.132197402206     1.510408410748
    H           -2.206013716914    -1.236767701740     1.155278174692
    C            1.758939965000     0.900749383391     0.465615520116
    H            2.147218140295     1.895746490927     0.692322597042
    H            1.223185813762     0.571917569615     1.361269896099
    C            0.784847409144     0.977440901045    -0.720305933365
    H            1.324467533711     0.718704230950    -1.636120481084
    H            0.440142393082     2.006423038317    -0.853186457194
    C           -0.448890051944     0.083250730424    -0.574058395003
    H           -0.932261683166    -0.025364804556    -1.547418326628
    H           -0.146618715860    -0.919655101669    -0.259623642348
    C           -1.452991029349     0.640207877812     0.430839926542
    H           -0.936004751474     0.882238889247     1.363100633521
    H           -1.852419160852     1.584194450836     0.045087414156

gradient() will perform analytic gradient computation.

*** tstart() called on wr40
*** at Wed Sep 21 13:18:02 2016


         ---------------------------------------------------------
                                   SCF
            by Justin Turney, Rob Parrish, and Andy Simmonett
                              RHF Reference
                       12 Threads,  30000 MiB Core
         ---------------------------------------------------------

  ==> Geometry <==

    Molecular point group: c1
    Full point group: C1

    Geometry (in Angstrom), charge = 0, multiplicity = 1:

       Center              X                  Y                   Z               Mass       
    ------------   -----------------  -----------------  -----------------  -----------------
           C          2.549316895423    -1.481467830483    -0.040292396455    12.000000000000
           H          1.949494031962    -1.573061261276    -0.945648834793     1.007825032070
           H          1.965188327797    -1.882086911034     0.789890162797     1.007825032070
           H          3.430867900593    -2.110443097685    -0.163791930770     1.007825032070
           C         -3.463762445786    -0.631261639219    -0.484984138517    12.000000000000
           H         -2.895674023996    -1.172399114860    -1.240608225259     1.007825032070
           H         -3.839657269308     0.285561556732    -0.942523461093     1.007825032070
           H         -4.321765035447    -1.246068055524    -0.214130061757     1.007825032070
           C          2.944583542465    -0.032759954957     0.222871820729    12.000000000000
           H          3.519133346408     0.345026841404    -0.627483398685     1.007825032070
           H          3.610469558546     0.006515779539     1.088171096874     1.007825032070
           C         -2.608286538656    -0.310249936204     0.736007939508    12.000000000000
           H         -3.238905251562     0.132197402206     1.510408410748     1.007825032070
           H         -2.206013716914    -1.236767701740     1.155278174692     1.007825032070
           C          1.758939965000     0.900749383391     0.465615520116    12.000000000000
           H          2.147218140295     1.895746490927     0.692322597042     1.007825032070
           H          1.223185813762     0.571917569615     1.361269896099     1.007825032070
           C          0.784847409144     0.977440901045    -0.720305933365    12.000000000000
           H          1.324467533711     0.718704230950    -1.636120481084     1.007825032070
           H          0.440142393082     2.006423038317    -0.853186457194     1.007825032070
           C         -0.448890051944     0.083250730424    -0.574058395003    12.000000000000
           H         -0.932261683166    -0.025364804556    -1.547418326628     1.007825032070
           H         -0.146618715860    -0.919655101669    -0.259623642348     1.007825032070
           C         -1.452991029349     0.640207877812     0.430839926542    12.000000000000
           H         -0.936004751474     0.882238889247     1.363100633521     1.007825032070
           H         -1.852419160852     1.584194450836     0.045087414156     1.007825032070

  Running in c1 symmetry.

  Rotational constants: A =      0.12898  B =      0.02632  C =      0.02469 [cm^-1]
  Rotational constants: A =   3866.66022  B =    789.10751  C =    740.30201 [MHz]
  Nuclear repulsion =  396.459883402848789

  Charge       = 0
  Multiplicity = 1
  Electrons    = 66
  Nalpha       = 33
  Nbeta        = 33

  ==> Algorithm <==

  SCF Algorithm Type is DF.
  DIIS enabled.
  MOM disabled.
  Fractional occupation disabled.
  Guess Type is READ.
  Energy threshold   = 1.00e-10
  Density threshold  = 1.00e-10
  Integral threshold = 0.00e+00

  ==> Primary Basis <==

  Basis Set: AUG-CC-PVTZ
    Number of shells: 274
    Number of basis function: 782
    Number of Cartesian functions: 890
    Spherical Harmonics?: true
    Max angular momentum: 3

  ==> Pre-Iterations <==

   -------------------------------------------------------
    Irrep   Nso     Nmo     Nalpha   Nbeta   Ndocc  Nsocc
   -------------------------------------------------------
     A        782     782       0       0       0       0
   -------------------------------------------------------
    Total     782     782      33      33      33       0
   -------------------------------------------------------

  ==> Integral Setup <==

  ==> DFJK: Density-Fitted J/K Matrices <==

    J tasked:                  Yes
    K tasked:                  Yes
    wK tasked:                  No
    OpenMP threads:             12
    Integrals threads:          12
    Memory (MB):             21457
    Algorithm:                Core
    Integral Cache:           NONE
    Schwarz Cutoff:          1E-12
    Fitting Condition:       1E-12

   => Auxiliary Basis Set <=

  Basis Set: 
    Number of shells: 492
    Number of basis function: 1660
    Number of Cartesian functions: 2038
    Spherical Harmonics?: true
    Max angular momentum: 4

  Minimum eigenvalue in the overlap matrix is 1.8011821987E-06.
  Using Symmetric Orthogonalization.
  SCF Guess: Reading in previously saved MOs, projecting if necessary.

  Using orbitals from previous SCF, no projection.
  Recomputing DOCC and SOCC from number of alpha and beta electrons from previous calculation.
              A 
    DOCC [    33 ]

  ==> Iterations <==

                           Total Energy        Delta E     RMS |[F,P]|

   @DF-RHF iter   0:  -313.53694992781590   -3.13537e+02   2.99319e-07 
   @DF-RHF iter   1:  -313.53701162625811   -6.16984e-05   6.27257e-08 
   @DF-RHF iter   2:  -313.53701162845761   -2.19950e-09   2.56312e-08 DIIS
   @DF-RHF iter   3:  -313.53701162877320   -3.15595e-10   1.08592e-08 DIIS
   @DF-RHF iter   4:  -313.53701162884244   -6.92353e-11   1.13524e-09 DIIS
   @DF-RHF iter   5:  -313.53701162884266   -2.27374e-13   3.74112e-10 DIIS
   @DF-RHF iter   6:  -313.53701162884289   -2.27374e-13   1.02791e-10 DIIS
   @DF-RHF iter   7:  -313.53701162884278    1.13687e-13   1.98550e-11 DIIS

  ==> Post-Iterations <==

    Orbital Energies (a.u.)
    -----------------------

    Doubly Occupied:                                                      

       1A    -11.213092     2A    -11.212568     3A    -11.210536  
       4A    -11.209884     5A    -11.209520     6A    -11.208620  
       7A    -11.207029     8A    -11.206246     9A     -1.093892  
      10A     -1.059930    11A     -1.006011    12A     -0.943744  
      13A     -0.893033    14A     -0.827656    15A     -0.783328  
      16A     -0.759563    17A     -0.636044    18A     -0.631103  
      19A     -0.618543    20A     -0.596944    21A     -0.569961  
      22A     -0.568019    23A     -0.542238    24A     -0.528851  
      25A     -0.511842    26A     -0.504789    27A     -0.495499  
      28A     -0.469686    29A     -0.463495    30A     -0.462150  
      31A     -0.443525    32A     -0.436840    33A     -0.435204  

    Virtual:                                                              

      34A      0.029828    35A      0.033172    36A      0.034045  
      37A      0.035324    38A      0.046076    39A      0.047146  
      40A      0.049300    41A      0.054445    42A      0.054944  
      43A      0.066873    44A      0.069000    45A      0.070678  
      46A      0.074721    47A      0.075555    48A      0.085547  
      49A      0.093196    50A      0.096561    51A      0.102161  
      52A      0.113465    53A      0.117401    54A      0.122157  
      55A      0.125045    56A      0.126855    57A      0.129883  
      58A      0.132053    59A      0.136205    60A      0.138317  
      61A      0.143866    62A      0.146738    63A      0.151377  
      64A      0.154204    65A      0.156944    66A      0.163178  
      67A      0.164929    68A      0.169820    69A      0.173531  
      70A      0.175566    71A      0.176911    72A      0.183356  
      73A      0.184680    74A      0.186596    75A      0.194843  
      76A      0.197746    77A      0.209162    78A      0.220289  
      79A      0.229878    80A      0.232334    81A      0.238802  
      82A      0.244769    83A      0.250804    84A      0.253726  
      85A      0.263928    86A      0.271596    87A      0.281300  
      88A      0.293427    89A      0.296747    90A      0.301404  
      91A      0.304086    92A      0.304884    93A      0.309075  
      94A      0.315442    95A      0.320190    96A      0.322362  
      97A      0.325962    98A      0.330299    99A      0.333090  
     100A      0.336984   101A      0.340647   102A      0.342240  
     103A      0.345337   104A      0.349617   105A      0.355277  
     106A      0.356977   107A      0.359309   108A      0.362626  
     109A      0.365464   110A      0.367879   111A      0.372605  
     112A      0.376171   113A      0.377506   114A      0.385052  
     115A      0.389365   116A      0.392155   117A      0.394580  
     118A      0.402056   119A      0.404946   120A      0.407329  
     121A      0.415445   122A      0.420876   123A      0.425009  
     124A      0.430375   125A      0.436790   126A      0.437816  
     127A      0.443140   128A      0.444289   129A      0.447979  
     130A      0.451407   131A      0.459361   132A      0.462970  
     133A      0.464481   134A      0.467426   135A      0.472744  
     136A      0.478432   137A      0.479102   138A      0.482364  
     139A      0.484184   140A      0.486561   141A      0.492042  
     142A      0.494580   143A      0.499771   144A      0.504451  
     145A      0.507691   146A      0.512740   147A      0.518170  
     148A      0.520703   149A      0.524199   150A      0.525901  
     151A      0.532124   152A      0.539257   153A      0.543414  
     154A      0.550172   155A      0.554004   156A      0.556452  
     157A      0.565435   158A      0.566313   159A      0.569972  
     160A      0.573615   161A      0.575912   162A      0.582438  
     163A      0.585921   164A      0.588874   165A      0.589403  
     166A      0.595911   167A      0.599782   168A      0.606341  
     169A      0.608293   170A      0.615580   171A      0.617514  
     172A      0.625595   173A      0.631405   174A      0.634500  
     175A      0.643521   176A      0.647738   177A      0.648755  
     178A      0.654381   179A      0.663037   180A      0.665922  
     181A      0.669729   182A      0.672905   183A      0.678938  
     184A      0.686052   185A      0.691639   186A      0.696045  
     187A      0.701292   188A      0.707000   189A      0.708816  
     190A      0.721902   191A      0.722088   192A      0.728213  
     193A      0.731833   194A      0.746901   195A      0.752903  
     196A      0.762665   197A      0.770695   198A      0.770836  
     199A      0.781224   200A      0.789206   201A      0.791084  
     202A      0.807808   203A      0.816928   204A      0.822155  
     205A      0.832197   206A      0.843454   207A      0.846961  
     208A      0.849101   209A      0.851918   210A      0.860996  
     211A      0.865794   212A      0.870977   213A      0.874224  
     214A      0.879248   215A      0.881737   216A      0.888712  
     217A      0.894197   218A      0.903881   219A      0.908571  
     220A      0.910332   221A      0.914693   222A      0.924938  
     223A      0.929878   224A      0.931977   225A      0.938694  
     226A      0.943155   227A      0.949138   228A      0.955726  
     229A      0.961656   230A      0.963754   231A      0.967903  
     232A      0.975260   233A      0.977754   234A      0.985147  
     235A      0.987713   236A      0.993991   237A      0.997506  
     238A      1.002270   239A      1.009599   240A      1.010962  
     241A      1.014412   242A      1.019906   243A      1.023203  
     244A      1.028335   245A      1.032914   246A      1.039565  
     247A      1.046564   248A      1.051183   249A      1.057270  
     250A      1.061703   251A      1.064323   252A      1.076526  
     253A      1.081075   254A      1.084082   255A      1.097011  
     256A      1.098969   257A      1.105901   258A      1.110708  
     259A      1.113192   260A      1.120201   261A      1.123884  
     262A      1.129630   263A      1.131218   264A      1.138158  
     265A      1.143098   266A      1.146315   267A      1.150609  
     268A      1.159538   269A      1.163433   270A      1.170255  
     271A      1.172465   272A      1.177970   273A      1.182473  
     274A      1.187725   275A      1.197072   276A      1.202585  
     277A      1.203077   278A      1.210855   279A      1.216104  
     280A      1.219441   281A      1.226369   282A      1.232676  
     283A      1.234443   284A      1.237580   285A      1.243905  
     286A      1.252295   287A      1.255195   288A      1.259646  
     289A      1.265300   290A      1.272526   291A      1.278822  
[...]
	   Coordinate                Previous        Force       Change         New 
	   ----------                --------       ------       ------       ------
	    1 R(1,2)          =      1.089883    -0.000004    -0.000000     1.089883
	    2 R(1,3)          =      1.091285    -0.000004    -0.000000     1.091285
	    3 R(1,4)          =      1.089951    -0.000002    -0.000000     1.089951
	    4 R(1,9)          =      1.524547    -0.000001    -0.000000     1.524547
	    5 R(5,6)          =      1.089275    -0.000005    -0.000000     1.089275
	    6 R(5,7)          =      1.091422    -0.000005    -0.000000     1.091422
	    7 R(5,8)          =      1.089732    -0.000004    -0.000000     1.089732
	    8 R(5,12)         =      1.525027     0.000000     0.000000     1.525028
	    9 R(9,10)         =      1.093586    -0.000003    -0.000000     1.093586
	   10 R(9,11)         =      1.092560    -0.000002    -0.000000     1.092560
	   11 R(9,15)         =      1.528434     0.000001    -0.000000     1.528434
	   12 R(12,13)        =      1.092307    -0.000006    -0.000000     1.092307
	   13 R(12,14)        =      1.093638    -0.000007    -0.000000     1.093638
	   14 R(12,24)        =      1.526828    -0.000000     0.000000     1.526828
	   15 R(15,16)        =      1.091867    -0.000002     0.000000     1.091867
	   16 R(15,17)        =      1.094238    -0.000005     0.000000     1.094238
	   17 R(15,18)        =      1.536601     0.000002     0.000000     1.536602
	   18 R(18,19)        =      1.094005    -0.000006    -0.000000     1.094005
	   19 R(18,20)        =      1.093289    -0.000006    -0.000000     1.093289
	   20 R(18,21)        =      1.530709    -0.000004    -0.000000     1.530709
	   21 R(21,22)        =      1.092187    -0.000008    -0.000000     1.092187
	   22 R(21,23)        =      1.093643    -0.000011    -0.000000     1.093642
	   23 R(21,24)        =      1.525858    -0.000005    -0.000000     1.525858
	   24 R(24,25)        =      1.093143    -0.000009    -0.000000     1.093143
	   25 R(24,26)        =      1.095197    -0.000010    -0.000000     1.095197
	   26 B(1,9,10)       =    109.284558    -0.000000     0.000007   109.284566
	   27 B(1,9,11)       =    109.201576    -0.000000    -0.000013   109.201563
	   28 B(1,9,15)       =    113.995670     0.000000     0.000012   113.995682
	   29 B(2,1,3)        =    107.848472     0.000000     0.000003   107.848475
	   30 B(2,1,4)        =    107.608163    -0.000000    -0.000002   107.608161
	   31 B(2,1,9)        =    111.465424    -0.000000    -0.000002   111.465422
	   32 B(3,1,4)        =    107.895024    -0.000000    -0.000000   107.895024
	   33 B(3,1,9)        =    110.873479    -0.000000    -0.000004   110.873475
	   34 B(4,1,9)        =    110.991217     0.000000     0.000005   110.991223
	   35 B(5,12,13)      =    109.209592    -0.000000    -0.000010   109.209582
	   36 B(5,12,14)      =    109.569440     0.000000     0.000003   109.569443
	   37 B(5,12,24)      =    113.295084     0.000000     0.000015   113.295098
	   38 B(6,5,7)        =    107.825933     0.000000    -0.000001   107.825933
	   39 B(6,5,8)        =    107.623889    -0.000000    -0.000004   107.623885
	   40 B(6,5,12)       =    111.556075    -0.000000     0.000006   111.556081
	   41 B(7,5,8)        =    107.875659    -0.000000    -0.000003   107.875657
	   42 B(7,5,12)       =    110.610527    -0.000000    -0.000003   110.610524
	   43 B(8,5,12)       =    111.188060     0.000000     0.000004   111.188064
	   44 B(9,15,16)      =    108.282370    -0.000000    -0.000025   108.282345
	   45 B(9,15,17)      =    109.041810    -0.000000    -0.000012   109.041798
	   46 B(9,15,18)      =    113.556632     0.000000     0.000042   113.556674
	   47 B(10,9,11)      =    106.452251     0.000000    -0.000002   106.452249
	   48 B(10,9,15)      =    108.666140    -0.000000     0.000004   108.666144
	   49 B(11,9,15)      =    108.968384    -0.000000    -0.000009   108.968374
	   50 B(12,24,21)     =    113.724419     0.000000    -0.000008   113.724411
	   51 B(12,24,25)     =    108.979180    -0.000000     0.000002   108.979181
	   52 B(12,24,26)     =    109.329188     0.000000     0.000009   109.329197
	   53 B(13,12,14)     =    106.482572     0.000000    -0.000005   106.482567
	   54 B(13,12,24)     =    109.049939    -0.000000    -0.000013   109.049926
	   55 B(14,12,24)     =    109.006731    -0.000000     0.000009   109.006741
	   56 B(15,18,19)     =    108.758859     0.000000    -0.000001   108.758857
	   57 B(15,18,20)     =    109.916533     0.000000    -0.000020   109.916513
	   58 B(15,18,21)     =    114.081726    -0.000000     0.000005   114.081731
	   59 B(16,15,17)     =    106.141531     0.000000    -0.000001   106.141530
	   60 B(16,15,18)     =    109.889041     0.000000    -0.000007   109.889034
	   61 B(17,15,18)     =    109.653751    -0.000000     0.000000   109.653751
	   62 B(18,21,22)     =    109.247904     0.000000    -0.000018   109.247886
	   63 B(18,21,23)     =    109.901443     0.000000    -0.000001   109.901442
	   64 B(18,21,24)     =    112.338496    -0.000000     0.000051   112.338547
	   65 B(19,18,20)     =    106.043451    -0.000000     0.000005   106.043456
	   66 B(19,18,21)     =    109.838984     0.000000     0.000002   109.838986
	   67 B(20,18,21)     =    107.896568     0.000000     0.000009   107.896578
	   68 B(21,24,25)     =    109.344701    -0.000000     0.000011   109.344713
	   69 B(21,24,26)     =    108.823186    -0.000000    -0.000001   108.823185
	   70 B(22,21,23)     =    106.699713    -0.000000     0.000002   106.699715
	   71 B(22,21,24)     =    109.389613     0.000000    -0.000015   109.389597
	   72 B(23,21,24)     =    109.102547    -0.000000    -0.000022   109.102525
	   73 B(25,24,26)     =    106.381270     0.000000    -0.000013   106.381257
	   74 D(1,9,15,16)    =    177.191910    -0.000000    -0.000109   177.191801
	   75 D(1,9,15,17)    =     62.119276     0.000000    -0.000088    62.119188
	   76 D(1,9,15,18)    =    -60.471125     0.000000    -0.000108   -60.471233
	   77 D(2,1,9,10)     =    -59.289610     0.000000     0.000270   -59.289340
	   78 D(2,1,9,11)     =   -175.366979     0.000000     0.000276  -175.366704
	   79 D(2,1,9,15)     =     62.507036     0.000000     0.000289    62.507325
	   80 D(3,1,9,10)     =   -179.450040     0.000000     0.000270  -179.449770
	   81 D(3,1,9,11)     =     64.472591     0.000000     0.000276    64.472866
	   82 D(3,1,9,15)     =    -57.653393     0.000000     0.000289   -57.653105
	   83 D(4,1,9,10)     =     60.646133    -0.000000     0.000270    60.646403
	   84 D(4,1,9,11)     =    -55.431236     0.000000     0.000275   -55.430961
	   85 D(4,1,9,15)     =   -177.557220     0.000000     0.000289  -177.556932
	   86 D(5,12,24,21)   =    -62.053741    -0.000000    -0.000063   -62.053804
	   87 D(5,12,24,25)   =    175.685389    -0.000000    -0.000074   175.685316
	   88 D(5,12,24,26)   =     59.792336    -0.000000    -0.000064    59.792272
	   89 D(6,5,12,13)    =   -173.857786    -0.000000     0.000165  -173.857621
	   90 D(6,5,12,14)    =    -57.579541    -0.000000     0.000154   -57.579387
	   91 D(6,5,12,24)    =     64.384150    -0.000000     0.000178    64.384329
	   92 D(7,5,12,13)    =     66.127380     0.000000     0.000164    66.127544
	   93 D(7,5,12,14)    =   -177.594375     0.000000     0.000153  -177.594222
	   94 D(7,5,12,24)    =    -55.630684     0.000000     0.000178   -55.630506
	   95 D(8,5,12,13)    =    -53.707518     0.000000     0.000167   -53.707351
	   96 D(8,5,12,14)    =     62.570727     0.000000     0.000156    62.570883
	   97 D(8,5,12,24)    =   -175.465582     0.000000     0.000180  -175.465401
	   98 D(9,15,18,19)   =    -24.695982     0.000000    -0.000199   -24.696181
	   99 D(9,15,18,20)   =   -140.385333     0.000000    -0.000193  -140.385526
	  100 D(9,15,18,21)   =     98.286209     0.000000    -0.000194    98.286016
	  101 D(10,9,15,16)   =    -60.670709    -0.000000    -0.000089   -60.670797
	  102 D(10,9,15,17)   =   -175.743343     0.000000    -0.000068  -175.743410
	  103 D(10,9,15,18)   =     61.666256     0.000000    -0.000088    61.666169
	  104 D(11,9,15,16)   =     54.937756    -0.000000    -0.000094    54.937662
	  105 D(11,9,15,17)   =    -60.134878     0.000000    -0.000073   -60.134951
	  106 D(11,9,15,18)   =    177.274721     0.000000    -0.000093   177.274628
	  107 D(12,24,21,18)  =   -172.574131     0.000000    -0.000292  -172.574423
	  108 D(12,24,21,22)  =     65.928842     0.000000    -0.000293    65.928549
	  109 D(12,24,21,23)  =    -50.448302     0.000000    -0.000275   -50.448577
	  110 D(13,12,24,21)  =    176.098890    -0.000000    -0.000051   176.098838
	  111 D(13,12,24,25)  =     53.838020    -0.000000    -0.000062    53.837958
	  112 D(13,12,24,26)  =    -62.055033    -0.000000    -0.000052   -62.055085
	  113 D(14,12,24,21)  =     60.223630     0.000000    -0.000043    60.223587
	  114 D(14,12,24,25)  =    -62.037240    -0.000000    -0.000053   -62.037293
	  115 D(14,12,24,26)  =   -177.930293    -0.000000    -0.000043  -177.930336
	  116 D(15,18,21,22)  =   -164.083237    -0.000000     0.000018  -164.083219
	  117 D(15,18,21,23)  =    -47.332455     0.000000     0.000010   -47.332445
	  118 D(15,18,21,24)  =     74.338788    -0.000000     0.000016    74.338804
	  119 D(16,15,18,19)  =     96.747495     0.000000    -0.000207    96.747288
	  120 D(16,15,18,20)  =    -18.941857     0.000000    -0.000201   -18.942058
	  121 D(16,15,18,21)  =   -140.270314     0.000000    -0.000202  -140.270516
	  122 D(17,15,18,19)  =   -146.948074     0.000000    -0.000213  -146.948287
	  123 D(17,15,18,20)  =     97.362575     0.000000    -0.000207    97.362368
	  124 D(17,15,18,21)  =    -23.965883     0.000000    -0.000207   -23.966090
	  125 D(18,21,24,25)  =    -50.515273     0.000000    -0.000287   -50.515560
	  126 D(18,21,24,26)  =     65.299609    -0.000000    -0.000297    65.299311
	  127 D(19,18,21,22)  =    -41.690498    -0.000000     0.000022   -41.690476
	  128 D(19,18,21,23)  =     75.060284     0.000000     0.000014    75.060297
	  129 D(19,18,21,24)  =   -163.268473    -0.000000     0.000020  -163.268454
	  130 D(20,18,21,22)  =     73.476060     0.000000     0.000034    73.476094
	  131 D(20,18,21,23)  =   -169.773158     0.000000     0.000026  -169.773133
	  132 D(20,18,21,24)  =    -48.101915     0.000000     0.000032   -48.101883
	  133 D(22,21,24,25)  =   -172.012301     0.000000    -0.000288  -172.012589
	  134 D(22,21,24,26)  =    -56.197419    -0.000000    -0.000298   -56.197717
	  135 D(23,21,24,25)  =     71.610555     0.000000    -0.000270    71.610286
	  136 D(23,21,24,26)  =   -172.574563    -0.000000    -0.000280  -172.574843
	  137 R(1,21)         =      3.423846     0.000001    -0.000001     3.423845
	 ---------------------------------------------------------------------------

  ==> Convergence Check <==

  Measures of convergence in internal coordinates in au.
  Criteria marked as inactive (o), active & met (*), and active & unmet ( ).
  ---------------------------------------------------------------------------------------------
   Step     Total Energy     Delta E     MAX Force     RMS Force      MAX Disp      RMS Disp   
  ---------------------------------------------------------------------------------------------
    Convergence Criteria             o    2.00e-06 *    1.00e-06 *    6.00e-06 *    4.00e-06 *
  ---------------------------------------------------------------------------------------------
     33    -314.97982918    1.13e-09 o    1.30e-06 *    2.94e-07 *    5.20e-06 *    2.21e-06 *  ~
  ---------------------------------------------------------------------------------------------


  **** Optimization is complete! (in 33 steps) ****

  ==> Optimization Summary <==

  Measures of convergence in internal coordinates in au.
  --------------------------------------------------------------------------------------------------------------- ~
   Step         Total Energy             Delta E       MAX Force       RMS Force        MAX Disp        RMS Disp  ~
  --------------------------------------------------------------------------------------------------------------- ~
      1    -314.979829183094   -314.979829183094      0.00000097      0.00000028      0.00010246      0.00003380  ~
      2    -314.979829184118     -0.000000001024      0.00000160      0.00000035      0.00008622      0.00002609  ~
      3    -314.979829181569      0.000000002549      0.00000265      0.00000062      0.00003817      0.00001318  ~
      4    -314.979829185350     -0.000000003781      0.00000170      0.00000043      0.00003887      0.00001200  ~
      5    -314.979829185377     -0.000000000027      0.00000088      0.00000020      0.00004584      0.00001520  ~
      6    -314.979829182915      0.000000002462      0.00000148      0.00000044      0.00003300      0.00001025  ~
      7    -314.979829183138     -0.000000000223      0.00000091      0.00000021      0.00004644      0.00001810  ~
      8    -314.979829179435      0.000000003704      0.00000248      0.00000056      0.00009417      0.00002446  ~
      9    -314.979829187900     -0.000000008466      0.00000115      0.00000035      0.00003702      0.00001134  ~
     10    -314.979829186319      0.000000001582      0.00000077      0.00000021      0.00008452      0.00002500  ~
     11    -314.979829181647      0.000000004672      0.00000199      0.00000044      0.00005302      0.00001418  ~
     12    -314.979829185059     -0.000000003412      0.00000096      0.00000024      0.00001018      0.00000354  ~
     13    -314.979829185309     -0.000000000251      0.00000064      0.00000016      0.00001363      0.00000411  ~
     14    -314.979829187534     -0.000000002224      0.00000034      0.00000011      0.00003685      0.00001472  ~
     15    -314.979829182325      0.000000005209      0.00000095      0.00000021      0.00002889      0.00001032  ~
     16    -314.979829184259     -0.000000001934      0.00000077      0.00000018      0.00000790      0.00000283  ~
     17    -314.979829186511     -0.000000002252      0.00000066      0.00000016      0.00001019      0.00000348  ~
     18    -314.979829181154      0.000000005356      0.00000091      0.00000022      0.00007452      0.00002204  ~
     19    -314.979829183568     -0.000000002413      0.00000165      0.00000025      0.00003941      0.00001262  ~
     20    -314.979829185017     -0.000000001449      0.00000052      0.00000011      0.00007793      0.00002248  ~
     21    -314.979829184996      0.000000000021      0.00000139      0.00000031      0.00002205      0.00000722  ~
     22    -314.979829181189      0.000000003807      0.00000208      0.00000033      0.00007724      0.00002230  ~
     23    -314.979829182712     -0.000000001522      0.00000053      0.00000012      0.00000714      0.00000243  ~
     24    -314.979829186143     -0.000000003432      0.00000061      0.00000014      0.00001712      0.00000483  ~
     25    -314.979829183762      0.000000002382      0.00000288      0.00000067      0.00002943      0.00000845  ~
     26    -314.979829184703     -0.000000000941      0.00000133      0.00000023      0.00000850      0.00000254  ~
     27    -314.979829185166     -0.000000000463      0.00000058      0.00000012      0.00000880      0.00000296  ~
     28    -314.979829183794      0.000000001372      0.00000046      0.00000010      0.00000810      0.00000329  ~
     29    -314.979829185971     -0.000000002177      0.00000165      0.00000041      0.00003272      0.00001539  ~
     30    -314.979829183439      0.000000002532      0.00000280      0.00000052      0.00003236      0.00001364  ~
     31    -314.979829181882      0.000000001556      0.00000076      0.00000019      0.00001011      0.00000290  ~
     32    -314.979829183490     -0.000000001608      0.00000146      0.00000033      0.00001107      0.00000338  ~
     33    -314.979829182356      0.000000001134      0.00000130      0.00000029      0.00000520      0.00000221  ~
  --------------------------------------------------------------------------------------------------------------- ~

	Writing optimization data to binary file.
	Final energy is   -314.9798291823565
	Final (previous) structure:
	Cartesian Geometry (in Angstrom)
	    C     2.5494185934  -1.4814376677  -0.0404111342
	    H     1.9496498235  -1.5729708072  -0.9458080807
	    H     1.9652586013  -1.8821495499   0.7897030339
	    H     3.4309968557  -2.1103720408  -0.1639179038
	    C    -3.4638031357  -0.6312496658  -0.4849666315
	    H    -2.8957124718  -1.1724407403  -1.2405496309
	    H    -3.8396772103   0.2855514325  -0.9425657820
	    H    -4.3218184388  -1.2460263584  -0.2140878011
	    C     2.9446205115  -0.0327396830   0.2229028520
	    H     3.5192048324   0.3451400778  -0.6273859583
	    H     3.6104535931   0.0064873993   1.0882435566
	    C    -2.6083387078  -0.3101773530   0.7360174038
	    H    -3.2389604095   0.1323254292   1.5103827760
	    H    -2.2060843858  -1.2366747941   1.1553478962
	    C     1.7589260793   0.9007011806   0.4656530658
	    H     2.1471444867   1.8957121079   0.6923972744
	    H     1.2231728979   0.5718130532   1.3612856690
	    C     0.7848535122   0.9773662863  -0.7202849681
	    H     1.3244805511   0.7185845114  -1.6360810874
	    H     0.4401676679   2.0063482398  -0.8532095012
	    C    -0.4488972558   0.0831990357  -0.5740157761
	    H    -0.9322357862  -0.0254834208  -1.5473833141
	    H    -0.1466487131  -0.9196854099  -0.2594962543
	    C    -1.4530257242   0.6402450170   0.4308069368
	    H    -0.9360662240   0.8823455346   1.3630634153
	    H    -1.8524321122   1.5842038969   0.0449670886
	Saving final (previous) structure.
			--------------------------
			 OPTKING Finished Execution 
			--------------------------

    Final optimized geometry and variables:
    Molecular point group: c1
    Full point group: C1

    Geometry (in Angstrom), charge = 0, multiplicity = 1:

    C            2.549418593387    -1.481437667728    -0.040411134162
    H            1.949649823499    -1.572970807223    -0.945808080652
    H            1.965258601264    -1.882149549935     0.789703033861
    H            3.430996855656    -2.110372040755    -0.163917903778
    C           -3.463803135738    -0.631249665804    -0.484966631465
    H           -2.895712471757    -1.172440740259    -1.240549630932
    H           -3.839677210256     0.285551432545    -0.942565782026
    H           -4.321818438754    -1.246026358431    -0.214087801118
    C            2.944620511517    -0.032739682973     0.222902852041
    H            3.519204832353     0.345140077820    -0.627385958300
    H            3.610453593139     0.006487399267     1.088243556646
    C           -2.608338707778    -0.310177353004     0.736017403794
    H           -3.238960409506     0.132325429151     1.510382775968
    H           -2.206084385839    -1.236674794063     1.155347896170
    C            1.758926079327     0.900701180594     0.465653065770
    H            2.147144486695     1.895712107904     0.692397274382
    H            1.223172897865     0.571813053161     1.361285669009
    C            0.784853512220     0.977366286292    -0.720284968115
    H            1.324480551109     0.718584511431    -1.636081087427
    H            0.440167667932     2.006348239807    -0.853209501216
    C           -0.448897255827     0.083199035652    -0.574015776099
    H           -0.932235786196    -0.025483420800    -1.547383314137
    H           -0.146648713109    -0.919685409917    -0.259496254260
    C           -1.453025724243     0.640245016972     0.430806936799
    H           -0.936066224008     0.882345534645     1.363063415335
    H           -1.852432112220     1.584203896860     0.044967088614

	Cleaning optimization helper files.

*** Psi4 exiting successfully. Buy a developer a beer!
