    -----------------------------------------------------------------------
          Psi4: An Open-Source Ab Initio Electronic Structure Package
                              Psi4 1.0.0 Driver

                          Git: Rev {master} 6a9a71b dirty

    J. M. Turney, A. C. Simmonett, R. M. Parrish, E. G. Hohenstein,
    F. A. Evangelista, J. T. Fermann, B. J. Mintz, L. A. Burns, J. J. Wilke,
    M. L. Abrams, N. J. Russ, M. L. Leininger, C. L. Janssen, E. T. Seidl,
    W. D. Allen, H. F. Schaefer, R. A. King, E. F. Valeev, C. D. Sherrill,
    and T. D. Crawford, WIREs Comput. Mol. Sci. 2, 556-565 (2012)
    (doi: 10.1002/wcms.93)

                         Additional Contributions by
    A. E. DePrince, U. Bozkaya, A. Yu. Sokolov, D. G. A. Smith, R. Di Remigio,
    R. M. Richard, J. F. Gonthier, H. R. McAlexander, M. Saitow, and
    B. P. Pritchard
    -----------------------------------------------------------------------


    Psi4 started on: Tue Sep 20 21:20:17 2016

    Process ID:  15041
    PSI4DATADIR: /usr/local/hpc5/psi4conda/share/psi4
    Memory level set to 256.000 MB

  ==> Input File <==

--------------------------------------------------------------------------
memory 30 Gb

molecule molecule_88_psi {
0 1
symmetry c1
    C            2.289410587679    -0.114587970961    -1.756632958590
    H            1.729246654047    -0.991722922274    -2.077417252190
    H            3.293595761059    -0.442957646863    -1.492324845399
    H            2.367637508801     0.563201643091    -2.603631441533
    C           -2.289410394882     0.114594208965    -1.756630675768
    H           -2.367640001126    -0.563194666899    -2.603629897000
    H           -1.729242656983     0.991727175089    -2.077414417448
    H           -3.293594595411     0.442967687489    -1.492322377382
    C            1.611408289111     0.544068130825    -0.570215922419
    H            0.610782525155     0.863890802805    -0.853298739344
    H            2.152856842276     1.447999816650    -0.285737231732
    C           -1.611410431355    -0.544066666678    -0.570214383246
    H           -2.152863370552    -1.447996920471    -0.285737342188
    H           -0.610785429633    -0.863892702063    -0.853298324669
    C            1.551291631425    -0.379619267819     0.636068933183
    H            2.576983965998    -0.568342568564     0.958880721902
    H            1.149852406513    -1.350498950520     0.336817703953
    C            0.743839799567     0.165685475944     1.810833441867
    H            0.863177679344     1.251613552436     1.847859943893
    H            1.166293927997    -0.220173504279     2.739339407795
    C           -0.743838406515    -0.165691944172     1.810833695517
    H           -0.863176806952    -1.251620092167     1.847857189832
    H           -1.166291586332     0.220164480279     2.739340946272
    C           -1.551291094322     0.379617637804     0.636072658907
    H           -2.576982483305     0.568342345215     0.958886807291
    H           -1.149850111183     1.350497187238     0.336823485525
}

set globals {
  reference rhf
  g_convergence gau_verytight
  basis aug-cc-pvtz
  freeze_core true
  scf_type df
  mp_type df
}
optimize('mp2')
--------------------------------------------------------------------------
/usr/local/hpc5/psi4conda/lib/python2.7/site-packages/v2rdm_casscf/v2rdm_casscf.so loaded.

  Memory set to  30.000 GiB by Python script.
gradient() will perform analytic gradient computation.

*** tstart() called on wr39
*** at Tue Sep 20 21:20:18 2016


         ---------------------------------------------------------
                                   SCF
            by Justin Turney, Rob Parrish, and Andy Simmonett
                              RHF Reference
                       12 Threads,  30000 MiB Core
         ---------------------------------------------------------

  ==> Geometry <==

    Molecular point group: c1
    Full point group: C1

    Geometry (in Angstrom), charge = 0, multiplicity = 1:

       Center              X                  Y                   Z               Mass       
    ------------   -----------------  -----------------  -----------------  -----------------
           C          2.289410587679    -0.114587970961    -1.756632958590    12.000000000000
           H          1.729246654047    -0.991722922274    -2.077417252190     1.007825032070
           H          3.293595761059    -0.442957646863    -1.492324845399     1.007825032070
           H          2.367637508801     0.563201643091    -2.603631441533     1.007825032070
           C         -2.289410394882     0.114594208965    -1.756630675768    12.000000000000
           H         -2.367640001126    -0.563194666899    -2.603629897000     1.007825032070
           H         -1.729242656983     0.991727175089    -2.077414417448     1.007825032070
           H         -3.293594595411     0.442967687489    -1.492322377382     1.007825032070
           C          1.611408289111     0.544068130825    -0.570215922419    12.000000000000
           H          0.610782525155     0.863890802805    -0.853298739344     1.007825032070
           H          2.152856842276     1.447999816650    -0.285737231732     1.007825032070
           C         -1.611410431355    -0.544066666678    -0.570214383246    12.000000000000
           H         -2.152863370552    -1.447996920471    -0.285737342188     1.007825032070
           H         -0.610785429633    -0.863892702063    -0.853298324669     1.007825032070
           C          1.551291631425    -0.379619267819     0.636068933183    12.000000000000
           H          2.576983965998    -0.568342568564     0.958880721902     1.007825032070
           H          1.149852406513    -1.350498950520     0.336817703953     1.007825032070
           C          0.743839799567     0.165685475944     1.810833441867    12.000000000000
           H          0.863177679344     1.251613552436     1.847859943893     1.007825032070
           H          1.166293927997    -0.220173504279     2.739339407795     1.007825032070
           C         -0.743838406515    -0.165691944172     1.810833695517    12.000000000000
           H         -0.863176806952    -1.251620092167     1.847857189832     1.007825032070
           H         -1.166291586332     0.220164480279     2.739340946272     1.007825032070
           C         -1.551291094322     0.379617637804     0.636072658907    12.000000000000
           H         -2.576982483305     0.568342345215     0.958886807291     1.007825032070
           H         -1.149850111183     1.350497187238     0.336823485525     1.007825032070

  Running in c1 symmetry.

  Rotational constants: A =      0.06725  B =      0.04727  C =      0.03056 [cm^-1]
  Rotational constants: A =   2015.98514  B =   1417.23270  C =    916.20816 [MHz]
  Nuclear repulsion =  408.511305236603903

  Charge       = 0
  Multiplicity = 1
  Electrons    = 66
  Nalpha       = 33
  Nbeta        = 33

  ==> Algorithm <==

  SCF Algorithm Type is DF.
  DIIS enabled.
  MOM disabled.
  Fractional occupation disabled.
  Guess Type is SAD.
  Energy threshold   = 1.00e-10
  Density threshold  = 1.00e-10
  Integral threshold = 0.00e+00

  ==> Primary Basis <==

  Basis Set: AUG-CC-PVTZ
    Number of shells: 274
    Number of basis function: 782
    Number of Cartesian functions: 890
    Spherical Harmonics?: true
    Max angular momentum: 3

  ==> Pre-Iterations <==

   -------------------------------------------------------
    Irrep   Nso     Nmo     Nalpha   Nbeta   Ndocc  Nsocc
   -------------------------------------------------------
     A        782     782       0       0       0       0
   -------------------------------------------------------
    Total     782     782      33      33      33       0
   -------------------------------------------------------

  ==> Integral Setup <==

  ==> DFJK: Density-Fitted J/K Matrices <==

    J tasked:                  Yes
    K tasked:                  Yes
    wK tasked:                  No
    OpenMP threads:             12
    Integrals threads:          12
    Memory (MB):             21457
    Algorithm:                Core
    Integral Cache:           NONE
    Schwarz Cutoff:          1E-12
    Fitting Condition:       1E-12

   => Auxiliary Basis Set <=

  Basis Set: 
    Number of shells: 492
    Number of basis function: 1660
    Number of Cartesian functions: 2038
    Spherical Harmonics?: true
    Max angular momentum: 4

  Minimum eigenvalue in the overlap matrix is 1.4983233647E-06.
  Using Symmetric Orthogonalization.
  SCF Guess: Superposition of Atomic Densities via on-the-fly atomic UHF.

  ==> Iterations <==

                           Total Energy        Delta E     RMS |[F,P]|

   @DF-RHF iter   0:  -317.34514078368613   -3.17345e+02   7.21321e-03 
   @DF-RHF iter   1:  -313.30914670361972    4.03599e+00   6.80168e-04 
   @DF-RHF iter   2:  -313.50628984904677   -1.97143e-01   2.43305e-04 DIIS
   @DF-RHF iter   3:  -313.52955321388640   -2.32634e-02   9.69364e-05 DIIS
   @DF-RHF iter   4:  -313.53403842573573   -4.48521e-03   1.59823e-05 DIIS
   @DF-RHF iter   5:  -313.53419791978718   -1.59494e-04   4.62108e-06 DIIS
   @DF-RHF iter   6:  -313.53420966416274   -1.17444e-05   1.29015e-06 DIIS
   @DF-RHF iter   7:  -313.53421059432435   -9.30162e-07   2.78520e-07 DIIS
   @DF-RHF iter   8:  -313.53421064666509   -5.23407e-08   7.93900e-08 DIIS
   @DF-RHF iter   9:  -313.53421065050634   -3.84125e-09   2.23787e-08 DIIS
   @DF-RHF iter  10:  -313.53421065083717   -3.30829e-10   5.82679e-09 DIIS
   @DF-RHF iter  11:  -313.53421065086320   -2.60343e-11   1.35848e-09 DIIS
   @DF-RHF iter  12:  -313.53421065086434   -1.13687e-12   3.68697e-10 DIIS
   @DF-RHF iter  13:  -313.53421065086536   -1.02318e-12   1.04555e-10 DIIS
   @DF-RHF iter  14:  -313.53421065086491    4.54747e-13   2.92680e-11 DIIS

  ==> Post-Iterations <==

    Orbital Energies (a.u.)
    -----------------------

    Doubly Occupied:                                                      

       1A    -11.209786     2A    -11.209751     3A    -11.209624  
       4A    -11.209119     5A    -11.208447     6A    -11.208369  
       7A    -11.206146     8A    -11.206146     9A     -1.097488  
      10A     -1.059228    11A     -1.015747    12A     -0.950064  
      13A     -0.886077    14A     -0.821452    15A     -0.789181  
      16A     -0.770044    17A     -0.659944    18A     -0.615238  
      19A     -0.603994    20A     -0.600327    21A     -0.578312  
      22A     -0.558306    23A     -0.556447    24A     -0.530991  
      25A     -0.522662    26A     -0.501316    27A     -0.483170  
      28A     -0.472402    29A     -0.469067    30A     -0.462184  
      31A     -0.454074    32A     -0.433481    33A     -0.432139  

    Virtual:                                                              

      34A      0.028449    35A      0.032709    36A      0.034073  
      37A      0.034393    38A      0.046742    39A      0.048258  
      40A      0.050996    41A      0.053742    42A      0.056384  
      43A      0.069736    44A      0.069762    45A      0.071858  
      46A      0.075686    47A      0.078638    48A      0.079941  
      49A      0.087067    50A      0.092561    51A      0.099942  
      52A      0.114185    53A      0.114470    54A      0.119391  
      55A      0.126144    56A      0.132649    57A      0.136585  
      58A      0.138557    59A      0.139931    60A      0.141955  
      61A      0.144783    62A      0.149437    63A      0.149947  
      64A      0.153287    65A      0.154378    66A      0.157146  
      67A      0.164511    68A      0.168676    69A      0.174396  
      70A      0.175727    71A      0.181284    72A      0.183698  
      73A      0.183860    74A      0.184298    75A      0.200279  
      76A      0.205351    77A      0.205777    78A      0.219904  
      79A      0.228839    80A      0.236205    81A      0.244683  
      82A      0.248079    83A      0.254906    84A      0.266022  
      85A      0.266591    86A      0.269509    87A      0.271423  
      88A      0.288714    89A      0.291105    90A      0.295365  
      91A      0.297687    92A      0.308651    93A      0.310032  
      94A      0.314440    95A      0.317074    96A      0.319298  
      97A      0.324991    98A      0.333758    99A      0.338431  
     100A      0.338479   101A      0.342732   102A      0.344591  
     103A      0.346967   104A      0.357441   105A      0.360021  
     106A      0.361979   107A      0.365291   108A      0.366653  
     109A      0.372828   110A      0.377017   111A      0.379321  
     112A      0.379896   113A      0.388258   114A      0.394389  
     115A      0.394902   116A      0.399065   117A      0.403445  
     118A      0.407762   119A      0.411347   120A      0.416123  
     121A      0.418282   122A      0.427495   123A      0.428396  
     124A      0.431783   125A      0.433581   126A      0.442288  
     127A      0.446701   128A      0.447441   129A      0.453054  
     130A      0.455737   131A      0.457810   132A      0.463332  
     133A      0.468130   134A      0.469661   135A      0.477851  
     136A      0.487112   137A      0.487301   138A      0.491446  
     139A      0.492024   140A      0.495640   141A      0.499338  
     142A      0.499625   143A      0.509729   144A      0.513466  
     145A      0.517189   146A      0.519327   147A      0.526388  
     148A      0.526474   149A      0.531693   150A      0.534490  
     151A      0.535629   152A      0.538625   153A      0.541062  
     154A      0.550350   155A      0.552695   156A      0.553138  
     157A      0.564956   158A      0.565845   159A      0.580165  
     160A      0.582780   161A      0.585060   162A      0.589848  
     163A      0.594036   164A      0.596450   165A      0.598542  
     166A      0.605530   167A      0.611013   168A      0.614152  
     169A      0.622564   170A      0.631142   171A      0.631687  
     172A      0.636267   173A      0.641156   174A      0.653753  
     175A      0.655334   176A      0.658392   177A      0.661802  
     178A      0.666214   179A      0.668286   180A      0.672790  
     181A      0.685031   182A      0.685367   183A      0.692641  
     184A      0.696063   185A      0.697000   186A      0.702379  
     187A      0.710465   188A      0.716178   189A      0.722423  
     190A      0.722943   191A      0.724350   192A      0.734255  
     193A      0.746331   194A      0.749006   195A      0.753394  
     196A      0.775861   197A      0.784154   198A      0.785042  
     199A      0.788504   200A      0.797718   201A      0.806494  
     202A      0.815644   203A      0.818534   204A      0.827796  
     205A      0.834558   206A      0.839044   207A      0.842694  
     208A      0.862935   209A      0.864582   210A      0.865669  
     211A      0.873863   212A      0.884185   213A      0.887814  
     214A      0.896706   215A      0.900450   216A      0.904833  
     217A      0.908838   218A      0.913334   219A      0.916771  
     220A      0.917853   221A      0.926967   222A      0.927334  
     223A      0.933359   224A      0.936113   225A      0.941349  
     226A      0.943069   227A      0.954384   228A      0.955819  
     229A      0.959265   230A      0.967644   231A      0.973562  
     232A      0.977561   233A      0.979681   234A      0.981164  
     235A      0.993238   236A      0.993881   237A      1.000644  
     238A      1.001007   239A      1.014266   240A      1.018534  
     241A      1.019639   242A      1.027946   243A      1.037039  
     244A      1.038198   245A      1.043077   246A      1.048058  
     247A      1.054089   248A      1.056602   249A      1.069925  
     250A      1.076321   251A      1.082795   252A      1.084585  
     253A      1.095993   254A      1.102757   255A      1.104436  
     256A      1.111181   257A      1.111654   258A      1.120399  
     259A      1.124982   260A      1.130975   261A      1.138598  
     262A      1.140769   263A      1.150603   264A      1.153126  
     265A      1.153459   266A      1.159090   267A      1.174363  
     268A      1.176945   269A      1.179673   270A      1.184509  
     271A      1.192753   272A      1.205098   273A      1.207780  
     274A      1.210959   275A      1.211037   276A      1.215648  
     277A      1.224701   278A      1.234363   279A      1.235060  
     280A      1.239961   281A      1.243484   282A      1.243653  
     283A      1.247811   284A      1.258486   285A      1.262884  
     286A      1.264620   287A      1.271743   288A      1.280200  
     289A      1.284744   290A      1.291753   291A      1.292860  
     292A      1.305211   293A      1.314813   294A      1.316500  
     295A      1.333145   296A      1.333319   297A      1.345026  
     298A      1.347234   299A      1.347475   300A      1.353731  
     301A      1.369914   302A      1.375110   303A      1.380293  
     304A      1.390197   305A      1.391042   306A      1.398053  
     307A      1.404035   308A      1.408262   309A      1.414512  
     310A      1.424603   311A      1.426701   312A      1.434646  
     313A      1.435348   314A      1.445611   315A      1.451601  
     316A      1.456342   317A      1.461493   318A      1.472206  
     319A      1.472351   320A      1.484768   321A      1.485810  
     322A      1.500121   323A      1.503070   324A      1.508976  
     325A      1.511099   326A      1.533312   327A      1.536924  
     328A      1.549129   329A      1.553988   330A      1.568336  
     331A      1.587393   332A      1.589954   333A      1.595333  
     334A      1.599600   335A      1.608481   336A      1.613945  
     337A      1.615680   338A      1.629959   339A      1.652308  
     340A      1.654527   341A      1.656335   342A      1.662669  
     343A      1.669167   344A      1.672181   345A      1.675913  
     346A      1.680151   347A      1.688584   348A      1.693542  
     349A      1.701889   350A      1.707926   351A      1.713095  
     352A      1.718502   353A      1.719681   354A      1.730841  
     355A      1.733949   356A      1.735400   357A      1.736232  
     358A      1.750382   359A      1.763106   360A      1.767145  
     361A      1.774963   362A      1.776156   363A      1.786796  
     364A      1.788548   365A      1.788771   366A      1.799652  
     367A      1.801423   368A      1.815164   369A      1.815321  
     370A      1.825194   371A      1.831311   372A      1.835795  
     373A      1.841254   374A      1.850041   375A      1.855437  
     376A      1.860340   377A      1.871514   378A      1.874948  
     379A      1.880218   380A      1.888784   381A      1.898357  
     382A      1.906943   383A      1.910252   384A      1.916101  
     385A      1.921632   386A      1.922872   387A      1.930015  
     388A      1.941418   389A      1.948594   390A      1.948680  
     391A      1.953451   392A      1.970449   393A      1.972691  
     394A      1.972860   395A      1.975924   396A      1.987749  
     397A      1.989885   398A      1.992190   399A      2.001570  
     400A      2.007905   401A      2.014349   402A      2.026826  
     403A      2.036658   404A      2.039061   405A      2.044866  
     406A      2.059318   407A      2.070532   408A      2.073995  
     409A      2.076500   410A      2.086995   411A      2.100556  
     412A      2.103605   413A      2.134055   414A      2.135827  
     415A      2.139886   416A      2.146061   417A      2.146072  
     418A      2.163480   419A      2.165629   420A      2.181658  
     421A      2.182499   422A      2.191328   423A      2.196013  
     424A      2.208480   425A      2.222611   426A      2.224268  
     427A      2.232023   428A      2.246928   429A      2.253403  
     430A      2.257037   431A      2.258333   432A      2.277982  
     433A      2.281905   434A      2.292683   435A      2.302471  
     436A      2.306422   437A      2.318116   438A      2.320491  
     439A      2.323550   440A      2.336213   441A      2.337014  
     442A      2.353326   443A      2.357854   444A      2.372494  
     445A      2.375839   446A      2.380746   447A      2.396248  
     448A      2.401199   449A      2.420511   450A      2.428971  
     451A      2.432532   452A      2.435227   453A      2.454724  
     454A      2.460807   455A      2.480271   456A      2.480558  
     457A      2.487034   458A      2.507756   459A      2.509082  
     460A      2.518398   461A      2.521316   462A      2.536062  
     463A      2.551998   464A      2.553430   465A      2.580822  
     466A      2.590167   467A      2.597967   468A      2.613554  
     469A      2.618071   470A      2.639800   471A      2.647625  
     472A      2.683656   473A      2.686574   474A      2.708634  
     475A      2.717834   476A      2.723435   477A      2.731126  
     478A      2.734818   479A      2.752951   480A      2.771960  
     481A      2.785219   482A      2.809885   483A      2.821954  
     484A      2.833499   485A      2.979297   486A      3.006558  
     487A      3.065465   488A      3.106322   489A      3.113210  
     490A      3.161923   491A      3.242941   492A      3.264083  
     493A      3.316339   494A      3.344947   495A      3.379719  
     496A      3.449877   497A      3.452949   498A      3.498861  
     499A      3.502042   500A      3.506753   501A      3.511639  
     502A      3.522911   503A      3.524049   504A      3.541364  
     505A      3.547868   506A      3.572587   507A      3.573589  
     508A      3.585767   509A      3.596453   510A      3.611195  
     511A      3.640771   512A      3.659280   513A      3.662117  
     514A      3.667269   515A      3.667787   516A      3.687965  
     517A      3.691185   518A      3.702039   519A      3.717196  
     520A      3.717808   521A      3.729179   522A      3.739414  
     523A      3.747551   524A      3.759706   525A      3.760022  
     526A      3.763825   527A      3.774526   528A      3.781643  
     529A      3.795513   530A      3.808442   531A      3.818962  
     532A      3.823083   533A      3.832778   534A      3.841275  
     535A      3.860614   536A      3.867179   537A      3.873796  
     538A      3.882692   539A      3.884590   540A      3.894915  
     541A      3.905132   542A      3.912239   543A      3.916635  
     544A      3.935812   545A      3.942683   546A      3.945211  
     547A      3.951382   548A      3.959456   549A      3.959637  
     550A      3.971275   551A      3.974099   552A      3.978513  
     553A      3.982839   554A      3.997567   555A      4.002404  
     556A      4.007288   557A      4.009949   558A      4.017758  
     559A      4.024400   560A      4.041686   561A      4.045733  
     562A      4.055404   563A      4.063705   564A      4.076431  
     565A      4.082904   566A      4.094951   567A      4.101352  
     568A      4.106119   569A      4.110779   570A      4.119573  
     571A      4.135935   572A      4.139981   573A      4.157754  
     574A      4.158780   575A      4.169273   576A      4.174827  
     577A      4.195268   578A      4.209843   579A      4.211527  
     580A      4.223115   581A      4.229999   582A      4.242840  
     583A      4.259536   584A      4.266746   585A      4.267161  
     586A      4.284007   587A      4.287274   588A      4.306507  
     589A      4.318466   590A      4.321609   591A      4.321723  
     592A      4.325668   593A      4.327416   594A      4.336975  
     595A      4.343520   596A      4.351873   597A      4.362936  
     598A      4.367063   599A      4.374656   600A      4.386124  
     601A      4.405543   602A      4.407737   603A      4.420226  
     604A      4.432789   605A      4.437981   606A      4.449567  
     607A      4.459644   608A      4.475105   609A      4.499637  
     610A      4.518719   611A      4.531139   612A      4.533952  
     613A      4.561852   614A      4.565974   615A      4.585909  
     616A      4.591640   617A      4.602929   618A      4.604797  
     619A      4.618224   620A      4.637338   621A      4.657082  
     622A      4.667636   623A      4.684952   624A      4.698362  
     625A      4.698926   626A      4.701884   627A      4.728481  
     628A      4.735326   629A      4.737336   630A      4.738802  
     631A      4.746075   632A      4.769273   633A      4.790535  
     634A      4.805132   635A      4.821779   636A      4.824747  
     637A      4.844014   638A      4.851858   639A      4.856046  
     640A      4.862503   641A      4.875829   642A      4.893443  
     643A      4.906627   644A      4.907561   645A      4.921180  
     646A      4.929764   647A      4.941932   648A      4.943489  
     649A      4.951541   650A      4.961669   651A      4.967937  
     652A      4.975636   653A      4.990612   654A      4.992632  
     655A      5.021865   656A      5.044016   657A      5.065198  
     658A      5.066218   659A      5.072144   660A      5.086906  
     661A      5.098324   662A      5.114664   663A      5.118279  
     664A      5.138338   665A      5.151182   666A      5.160390  
     667A      5.189013   668A      5.191978   669A      5.198609  
     670A      5.199904   671A      5.213278   672A      5.222146  
     673A      5.252671   674A      5.259159   675A      5.261284  
     676A      5.284646   677A      5.294169   678A      5.300995  
     679A      5.303601   680A      5.308805   681A      5.326879  
     682A      5.328661   683A      5.340974   684A      5.350040  
     685A      5.353003   686A      5.381354   687A      5.382562  
     688A      5.404105   689A      5.407063   690A      5.428017  
     691A      5.433180   692A      5.437498   693A      5.457762  
     694A      5.467175   695A      5.483178   696A      5.502094  
     697A      5.504281   698A      5.514756   699A      5.517359  
     700A      5.525480   701A      5.525803   702A      5.561832  
     703A      5.563517   704A      5.577437   705A      5.578097  
     706A      5.612803   707A      5.616164   708A      5.629998  
     709A      5.636475   710A      5.663267   711A      5.672653  
     712A      5.694998   713A      5.713853   714A      5.727018  
     715A      5.728769   716A      5.737441   717A      5.751237  
     718A      5.757388   719A      5.766653   720A      5.791992  
     721A      5.796590   722A      5.798848   723A      5.804707  
     724A      5.841927   725A      5.851083   726A      5.876103  
     727A      5.883416   728A      5.889873   729A      5.913589  
     730A      5.939397   731A      5.957689   732A      5.997407  
     733A      6.010970   734A      6.044470   735A      6.050036  
     736A      6.072607   737A      6.091849   738A      6.096337  
     739A      6.104714   740A      6.180460   741A      6.180815  
     742A      6.205126   743A      6.229387   744A      6.247049  
     745A      6.257020   746A      6.276506   747A      6.288751  
     748A      6.291092   749A      6.309684   750A      6.345639  
     751A      6.365125   752A      6.371219   753A      6.376681  
     754A      6.391142   755A      6.444842   756A      6.451394  
     757A      6.499033   758A      6.510379   759A      6.646689  
     760A      6.654321   761A      6.684743   762A      6.752467  
     763A      6.789761   764A      6.808457   765A      6.878485  
     766A      6.884214   767A      6.906547   768A      6.908385  
     769A      6.958039   770A      7.033984   771A      7.072966  
     772A      7.138704   773A      7.158305   774A      7.187913  
     775A     18.341878   776A     18.396280   777A     18.711275  
     778A     18.846090   779A     18.953258   780A     19.527256  
     781A     19.997803   782A     20.050730  

    Final Occupation by Irrep:
              A 
    DOCC [    33 ]

  Energy converged.

  @DF-RHF Final Energy:  -313.53421065086491

   => Energetics <=

    Nuclear Repulsion Energy =            408.5113052366039028
    One-Electron Energy =               -1232.1095881965570698
    Two-Electron Energy =                 510.0640723090880897
    DFT Exchange-Correlation Energy =       0.0000000000000000
    Empirical Dispersion Energy =           0.0000000000000000
    PCM Polarization Energy =               0.0000000000000000
    EFP Energy =                            0.0000000000000000
    Total Energy =                       -313.5342106508650772


  Saving occupied orbitals to File 180.

*** tstop() called on wr39 at Tue Sep 20 21:21:44 2016
Module time:
	user time   =     872.33 seconds =      14.54 minutes
	system time =      11.78 seconds =       0.20 minutes
	total time  =         86 seconds =       1.43 minutes
Total time:
	user time   =     872.33 seconds =      14.54 minutes
	system time =      11.78 seconds =       0.20 minutes
	total time  =         86 seconds =       1.43 minutes


Properties will be evaluated at   0.000000,   0.000000,   0.000000 Bohr

Properties computed using the SCF density matrix

  Nuclear Dipole Moment: (a.u.)
     X:     0.0000      Y:     0.0000      Z:    -2.6802

  Electronic Dipole Moment: (a.u.)
     X:    -0.0000      Y:    -0.0000      Z:     2.7303

  Dipole Moment: (a.u.)
     X:    -0.0000      Y:     0.0000      Z:     0.0500     Total:     0.0500

  Dipole Moment: (Debye)
     X:    -0.0000      Y:     0.0000      Z:     0.1272     Total:     0.1272


  //>>>>>>>>>>>>>>>>>>>>>>>>>>>>>>>>>>>//
  //               DFMP2               //
  //<<<<<<<<<<<<<<<<<<<<<<<<<<<<<<<<<<<//


*** tstart() called on wr39
*** at Tue Sep 20 21:21:44 2016


*** tstop() called on wr39 at Tue Sep 20 21:21:45 2016
Module time:
	user time   =       5.19 seconds =       0.09 minutes
	system time =       0.14 seconds =       0.00 minutes
	total time  =          1 seconds =       0.02 minutes
Total time:
	user time   =     877.71 seconds =      14.63 minutes
	system time =      11.92 seconds =       0.20 minutes
	total time  =         87 seconds =       1.45 minutes
	 --------------------------------------------------------
	                          DF-MP2                         
	      2nd-Order Density-Fitted Moller-Plesset Theory     
	              RMP2 Wavefunction,  12 Threads             
	                                                         
	        Rob Parrish, Justin Turney, Andy Simmonett,      
	           Ed Hohenstein, and C. David Sherrill          
	 --------------------------------------------------------

   => Auxiliary Basis Set <=

  Basis Set: 
    Number of shells: 476
    Number of basis function: 1676
    Number of Cartesian functions: 2078
    Spherical Harmonics?: true
    Max angular momentum: 4

	 --------------------------------------------------------
	                 NBF =   782, NAUX =  1676
	 --------------------------------------------------------
	   CLASS    FOCC     OCC    AOCC    AVIR     VIR    FVIR
	   PAIRS       8      33      25     749     749       0
	 --------------------------------------------------------

DGAS Warning! /src/lib/libfock/apps.cc:80 is not currently checking restricted

         ------------------------------------------------------------
                                     CPHF                           
                                  Rob Parrish                       
         ------------------------------------------------------------

  ==> Geometry <==

    Molecular point group: c1
    Full point group: C1

    Geometry (in Angstrom), charge = 0, multiplicity = 1:

       Center              X                  Y                   Z               Mass       
    ------------   -----------------  -----------------  -----------------  -----------------
           C          2.289410587679    -0.114587970961    -1.756632958590    12.000000000000
           H          1.729246654047    -0.991722922274    -2.077417252190     1.007825032070
           H          3.293595761059    -0.442957646863    -1.492324845399     1.007825032070
           H          2.367637508801     0.563201643091    -2.603631441533     1.007825032070
           C         -2.289410394882     0.114594208965    -1.756630675768    12.000000000000
           H         -2.367640001126    -0.563194666899    -2.603629897000     1.007825032070
           H         -1.729242656983     0.991727175089    -2.077414417448     1.007825032070
           H         -3.293594595411     0.442967687489    -1.492322377382     1.007825032070
           C          1.611408289111     0.544068130825    -0.570215922419    12.000000000000
           H          0.610782525155     0.863890802805    -0.853298739344     1.007825032070
           H          2.152856842276     1.447999816650    -0.285737231732     1.007825032070
           C         -1.611410431355    -0.544066666678    -0.570214383246    12.000000000000
           H         -2.152863370552    -1.447996920471    -0.285737342188     1.007825032070
           H         -0.610785429633    -0.863892702063    -0.853298324669     1.007825032070
           C          1.551291631425    -0.379619267819     0.636068933183    12.000000000000
           H          2.576983965998    -0.568342568564     0.958880721902     1.007825032070
           H          1.149852406513    -1.350498950520     0.336817703953     1.007825032070
           C          0.743839799567     0.165685475944     1.810833441867    12.000000000000
           H          0.863177679344     1.251613552436     1.847859943893     1.007825032070
           H          1.166293927997    -0.220173504279     2.739339407795     1.007825032070
           C         -0.743838406515    -0.165691944172     1.810833695517    12.000000000000
           H         -0.863176806952    -1.251620092167     1.847857189832     1.007825032070
           H         -1.166291586332     0.220164480279     2.739340946272     1.007825032070
           C         -1.551291094322     0.379617637804     0.636072658907    12.000000000000
           H         -2.576982483305     0.568342345215     0.958886807291     1.007825032070
           H         -1.149850111183     1.350497187238     0.336823485525     1.007825032070

  Nuclear repulsion =  408.511305236603903
  Reference energy  = -313.534210650864907

  ==> Basis Set <==

  Basis Set: AUG-CC-PVTZ
    Number of shells: 274
    Number of basis function: 782
    Number of Cartesian functions: 890
    Spherical Harmonics?: true
    Max angular momentum: 3

  ==> CGRSolver (by Rob Parrish) <==

   Number of roots    =         1
   Preconditioning    =    JACOBI
   Convergence cutoff =     1E-06
   Maximum iterations =       100

  ==> CPHFRHamiltonian (by Rob Parrish) <== 

  ==> DFJK: Density-Fitted J/K Matrices <==

    J tasked:                  Yes
    K tasked:                  Yes
    wK tasked:                  No
    OpenMP threads:             12
    Integrals threads:          12
    Memory (MB):             21457
    Algorithm:                Core
    Integral Cache:           NONE
    Schwarz Cutoff:          1E-12
    Fitting Condition:       1E-12

   => Auxiliary Basis Set <=

  Basis Set: 
    Number of shells: 492
    Number of basis function: 1660
    Number of Cartesian functions: 2038
    Spherical Harmonics?: true
    Max angular momentum: 4

  ==> CPHF Iterations <==

  => Iterations <=

             Iter  Converged  Remaining    Residual
  CGR           1          0          1   9.192E-02
  CGR           2          0          1   1.375E-02
  CGR           3          0          1   4.373E-03
  CGR           4          0          1   8.968E-04
  CGR           5          0          1   2.170E-04
  CGR           6          0          1   4.849E-05
  CGR           7          0          1   1.266E-05
  CGR           8          0          1   3.221E-06
  CGR           9          1          0   8.268E-07

    CGRSolver converged.

  ==> DFCorrGrad: Density-Fitted Correlated Gradients <==

    OpenMP threads:             12
    Integrals threads:          12
    Memory (MB):             21457
    Schwarz Cutoff:          0E+00
    Fitting Condition:       1E-12

   => Auxiliary Basis Set <=

  Basis Set: 
    Number of shells: 492
    Number of basis function: 1660
    Number of Cartesian functions: 2038
    Spherical Harmonics?: true
    Max angular momentum: 4

	-----------------------------------------------------------
	 ==================> DF-MP2 Energies <==================== 
	-----------------------------------------------------------
	 Reference Energy          =    -313.5342106508649067 [Eh]
	 Singles Energy            =      -0.0000000000000000 [Eh]
	 Same-Spin Energy          =      -0.3179912867336394 [Eh]
	 Opposite-Spin Energy      =      -1.1269832140646234 [Eh]
	 Correlation Energy        =      -1.4449745007982628 [Eh]
	 Total Energy              =    -314.9791851516631596 [Eh]
	-----------------------------------------------------------
	 ================> DF-SCS-MP2 Energies <================== 
	-----------------------------------------------------------
	 SCS Same-Spin Scale       =       0.3333333333333333 [-]
	 SCS Opposite-Spin Scale   =       1.2000000000000000 [-]
	 SCS Same-Spin Energy      =      -0.1059970955778798 [Eh]
	 SCS Opposite-Spin Energy  =      -1.3523798568775480 [Eh]
	 SCS Correlation Energy    =      -1.4583769524554278 [Eh]
	 SCS Total Energy          =    -314.9925876033203167 [Eh]
	-----------------------------------------------------------


  -Total Gradient:
     Atom            X                  Y                   Z
    ------   -----------------  -----------------  -----------------
       1       -0.000910610720     0.000409206492     0.001036545150
       2        0.000599918485     0.001244113404     0.000755971052
       3       -0.001334356738     0.000471067088     0.000010649398
       4       -0.000247959745    -0.000666741916     0.001277442832
       5        0.000910552503    -0.000408927639     0.001036559923
       6        0.000247986873     0.000666703957     0.001277453142
       7       -0.000599969958    -0.001244219792     0.000755993701
       8        0.001334402747    -0.000471109125     0.000010616979
       9        0.000142868050    -0.001792473707    -0.000193904030
      10        0.001381020997    -0.000811198558     0.000572873794
      11       -0.000451097107    -0.001305773312    -0.000154153747
      12       -0.000142626725     0.001792392317    -0.000193791920
      13        0.000451043659     0.001305708235    -0.000154066649
      14       -0.001381044007     0.000811290654     0.000572784708
      15       -0.000926939073     0.001746102820    -0.000140531876
      16       -0.001330872872     0.000311591950    -0.000250802936
      17        0.000375084202     0.001580545077     0.000206149169
      18       -0.001027041461    -0.001132928130    -0.001312074837
      19       -0.000533553141    -0.001364860011    -0.000493548016
      20       -0.000396032296     0.000218708464    -0.001314646436
      21        0.001026945200     0.001132804060    -0.001312066715
      22        0.000533547395     0.001364973357    -0.000493533727
      23        0.000396026512    -0.000218721568    -0.001314840440
      24        0.000926968463    -0.001745794871    -0.000140530235
      25        0.001331059693    -0.000311542528    -0.000250765312
      26       -0.000375320936    -0.001580916719     0.000206217030


			-----------------------------------------
			 OPTKING 2.0: for geometry optimizations 
			  - R.A. King,  Bethel University        
			-----------------------------------------

	Internal coordinates to be generated automatically.
	Detected frag 1 with atoms:  1 2 3 4 5 6 7 8 9 10 11 12 13 14 15 16 17 18 19 20
	 21 22 23 24 25 26
	---Fragment 1 Bond Connectivity---
	 1 : 2 3 4 9
	 2 : 1
	 3 : 1
	 4 : 1
	 5 : 6 7 8 12
	 6 : 5
	 7 : 5
	 8 : 5
	 9 : 1 10 11 15
	 10 : 9
	 11 : 9
	 12 : 5 13 14 24
	 13 : 12
	 14 : 12
	 15 : 9 16 17 18
	 16 : 15
	 17 : 15
	 18 : 15 19 20 21
	 19 : 18
	 20 : 18
	 21 : 18 22 23 24
	 22 : 21
	 23 : 21
	 24 : 12 21 25 26
	 25 : 24
	 26 : 24

	---Fragment 1 Geometry and Gradient---
	 C           4.3263590164       -0.2165398832       -3.3195552077
	 H           3.2678025924       -1.8740847228       -3.9257496704
	 H           6.2239939808       -0.8370686410       -2.8200852591
	 H           4.4741864736        1.0642968630       -4.9201503755
	 C          -4.3263586521        0.2165516714       -3.3195508938
	 H          -4.4741911834       -1.0642836799       -4.9201474567
	 H          -3.2677950390        1.8740927595       -3.9257443135
	 H          -6.2239917781        0.8370876151       -2.8200805952
	 C           3.0451203547        1.0281397649       -1.0775519300
	 H           1.1542116993        1.6325170260       -1.6125009269
	 H           4.0683098352        2.7363230939       -0.5399651139
	 C          -3.0451244029       -1.0281369981       -1.0775490214
	 H          -4.0683221719       -2.7363176210       -0.5399653227
	 H          -1.1542171880       -1.6325206151       -1.6125001433
	 C           2.9315163356       -0.7173764509        1.2019960854
	 H           4.8697939446       -1.0740118042        1.8120219585
	 H           2.1729061415       -2.5520731592        0.6364932172
	 C           1.4056535079        0.3131001737        3.4219792774
	 H           1.6311694180        2.3652068383        3.4919492259
	 H           2.2039761144       -0.4160676248        5.1766012658
	 C          -1.4056508754       -0.3131123969        3.4219797567
	 H          -1.6311677694       -2.3652191966        3.4919440215
	 H          -2.2039716893        0.4160505719        5.1766041731
	 C          -2.9315153207        0.7173733707        1.2020031260
	 H          -4.8697911427        1.0740113822        1.8120334582
	 H          -2.1729018040        2.5520698271        0.6365041428
	            -0.0009106107        0.0004092065        0.0010365452
	             0.0005999185        0.0012441134        0.0007559711
	            -0.0013343567        0.0004710671        0.0000106494
	            -0.0002479597       -0.0006667419        0.0012774428
	             0.0009105525       -0.0004089276        0.0010365599
	             0.0002479869        0.0006667040        0.0012774531
	            -0.0005999700       -0.0012442198        0.0007559937
	             0.0013344027       -0.0004711091        0.0000106170
	             0.0001428681       -0.0017924737       -0.0001939040
	             0.0013810210       -0.0008111986        0.0005728738
	            -0.0004510971       -0.0013057733       -0.0001541537
	            -0.0001426267        0.0017923923       -0.0001937919
	             0.0004510437        0.0013057082       -0.0001540666
	            -0.0013810440        0.0008112907        0.0005727847
	            -0.0009269391        0.0017461028       -0.0001405319
	            -0.0013308729        0.0003115920       -0.0002508029
	             0.0003750842        0.0015805451        0.0002061492
	            -0.0010270415       -0.0011329281       -0.0013120748
	            -0.0005335531       -0.0013648600       -0.0004935480
	            -0.0003960323        0.0002187085       -0.0013146464
	             0.0010269452        0.0011328041       -0.0013120667
	             0.0005335474        0.0013649734       -0.0004935337
	             0.0003960265       -0.0002187216       -0.0013148404
	             0.0009269685       -0.0017457949       -0.0001405302
	             0.0013310597       -0.0003115425       -0.0002507653
	            -0.0003753209       -0.0015809167        0.0002062170

	Previous optimization step data not found.  Starting new optimization.

	---Fragment 1 Intrafragment Coordinates---
	 - Coordinate -           - BOHR/RAD -       - ANG/DEG -
	 R(1,2)           =         2.058025	       1.089060
	 R(1,3)           =         2.058044	       1.089070
	 R(1,4)           =         2.055310	       1.087623
	 R(1,9)           =         2.866597	       1.516938
	 R(5,6)           =         2.055311	       1.087624
	 R(5,7)           =         2.058026	       1.089060
	 R(5,8)           =         2.058044	       1.089070
	 R(5,12)          =         2.866598	       1.516938
	 R(9,10)          =         2.055962	       1.087968
	 R(9,11)          =         2.062476	       1.091415
	 R(9,15)          =         2.873338	       1.520505
	 R(12,13)         =         2.062477	       1.091416
	 R(12,14)         =         2.055963	       1.087969
	 R(12,24)         =         2.873338	       1.520505
	 R(15,16)         =         2.063066	       1.091727
	 R(15,17)         =         2.064315	       1.092388
	 R(15,18)         =         2.884175	       1.526240
	 R(18,19)         =         2.065646	       1.093093
	 R(18,20)         =         2.060996	       1.090632
	 R(18,21)         =         2.880204	       1.524138
	 R(21,22)         =         2.065646	       1.093093
	 R(21,23)         =         2.060995	       1.090632
	 R(21,24)         =         2.884174	       1.526239
	 R(24,25)         =         2.063066	       1.091727
	 R(24,26)         =         2.064315	       1.092388
	 B(1,9,10)        =         1.912625	     109.585369
	 B(1,9,11)        =         1.919564	     109.982894
	 B(1,9,15)        =         1.954530	     111.986319
	 B(2,1,3)         =         1.878540	     107.632442
	 B(2,1,4)         =         1.885490	     108.030639
	 B(2,1,9)         =         1.928567	     110.498757
	 B(3,1,4)         =         1.886598	     108.094109
	 B(3,1,9)         =         1.931811	     110.684589
	 B(4,1,9)         =         1.950493	     111.755025
	 B(5,12,13)       =         1.919563	     109.982859
	 B(5,12,14)       =         1.912625	     109.585343
	 B(5,12,24)       =         1.954530	     111.986340
	 B(6,5,7)         =         1.885490	     108.030633
	 B(6,5,8)         =         1.886598	     108.094102
	 B(6,5,12)        =         1.950492	     111.754979
	 B(7,5,8)         =         1.878541	     107.632459
	 B(7,5,12)        =         1.928567	     110.498774
	 B(8,5,12)        =         1.931811	     110.684615
	 B(9,15,16)       =         1.878060	     107.604926
	 B(9,15,17)       =         1.914646	     109.701142
	 B(9,15,18)       =         1.998208	     114.488900
	 B(10,9,11)       =         1.855241	     106.297483
	 B(10,9,15)       =         1.926915	     110.404114
	 B(11,9,15)       =         1.892266	     108.418840
	 B(12,24,21)      =         1.998207	     114.488849
	 B(12,24,25)      =         1.878061	     107.604983
	 B(12,24,26)      =         1.914646	     109.701139
	 B(13,12,14)      =         1.855242	     106.297529
	 B(13,12,24)      =         1.892265	     108.418792
	 B(14,12,24)      =         1.926916	     110.404157
	 B(15,18,19)      =         1.899967	     108.860113
	 B(15,18,20)      =         1.900709	     108.902618
	 B(15,18,21)      =         2.024959	     116.021598
	 B(16,15,17)      =         1.846914	     105.820402
	 B(16,15,18)      =         1.908386	     109.342470
	 B(17,15,18)      =         1.911323	     109.510717
	 B(18,21,22)      =         1.899227	     108.817677
	 B(18,21,23)      =         1.876705	     107.527296
	 B(18,21,24)      =         2.024959	     116.021582
	 B(19,18,20)      =         1.854954	     106.281012
	 B(19,18,21)      =         1.899226	     108.817647
	 B(20,18,21)      =         1.876705	     107.527297
	 B(21,24,25)      =         1.908386	     109.342481
	 B(21,24,26)      =         1.911322	     109.510702
	 B(22,21,23)      =         1.854954	     106.281009
	 B(22,21,24)      =         1.899968	     108.860159
	 B(23,21,24)      =         1.900708	     108.902563
	 B(25,24,26)      =         1.846915	     105.820408
	 D(1,9,15,16)     =         1.130189	      64.755045
	 D(1,9,15,17)     =        -0.871216	     -49.917002
	 D(1,9,15,18)     =        -3.027872	    -173.484305
	 D(2,1,9,10)      =        -1.061419	     -60.814814
	 D(2,1,9,11)      =        -3.094862	    -177.322513
	 D(2,1,9,15)      =         1.083055	      62.054500
	 D(3,1,9,10)      =        -3.140665	    -179.946831
	 D(3,1,9,11)      =         1.109078	      63.545471
	 D(3,1,9,15)      =        -0.996191	     -57.077516
	 D(4,1,9,10)      =         1.038740	      59.515417
	 D(4,1,9,11)      =        -0.994703	     -56.992282
	 D(4,1,9,15)      =        -3.099971	    -177.615268
	 D(5,12,24,21)    =        -3.027870	    -173.484159
	 D(5,12,24,25)    =         1.130191	      64.755170
	 D(5,12,24,26)    =        -0.871214	     -49.916914
	 D(6,5,12,13)     =        -0.994703	     -56.992271
	 D(6,5,12,14)     =         1.038740	      59.515447
	 D(6,5,12,24)     =        -3.099970	    -177.615188
	 D(7,5,12,13)     =        -3.094861	    -177.322475
	 D(7,5,12,14)     =        -1.061418	     -60.814757
	 D(7,5,12,24)     =         1.083057	      62.054608
	 D(8,5,12,13)     =         1.109077	      63.545459
	 D(8,5,12,14)     =        -3.140665	    -179.946823
	 D(8,5,12,24)     =        -0.996190	     -57.077457
	 D(9,15,18,19)    =        -0.591347	     -33.881715
	 D(9,15,18,20)    =        -2.606764	    -149.356561
	 D(9,15,18,21)    =         1.557123	      89.216581
	 D(10,9,15,16)    =        -3.016641	    -172.840823
	 D(10,9,15,17)    =         1.265139	      72.487129
	 D(10,9,15,18)    =        -0.891517	     -51.080174
	 D(11,9,15,16)    =        -0.990855	     -56.771813
	 D(11,9,15,17)    =        -2.992260	    -171.443860
	 D(11,9,15,18)    =         1.134269	      64.988837
	 D(12,24,21,18)   =         1.557125	      89.216685
	 D(12,24,21,22)   =        -0.591347	     -33.881676
	 D(12,24,21,23)   =        -2.606763	    -149.356512
	 D(13,12,24,21)   =         1.134273	      64.989047
	 D(13,12,24,25)   =        -0.990852	     -56.771625
	 D(13,12,24,26)   =        -2.992257	    -171.443709
	 D(14,12,24,21)   =        -0.891514	     -51.080015
	 D(14,12,24,25)   =        -3.016639	    -172.840686
	 D(14,12,24,26)   =         1.265141	      72.487230
	 D(15,18,21,22)   =         1.064319	      60.980958
	 D(15,18,21,23)   =         3.066603	     175.703405
	 D(15,18,21,24)   =        -1.084541	     -62.139629
	 D(16,15,18,19)   =         1.517101	      86.923508
	 D(16,15,18,20)   =        -0.498315	     -28.551337
	 D(16,15,18,21)   =        -2.617613	    -149.978195
	 D(17,15,18,19)   =        -2.749784	    -157.551040
	 D(17,15,18,20)   =         1.517985	      86.974115
	 D(17,15,18,21)   =        -0.601314	     -34.452743
	 D(18,21,24,25)   =        -2.617611	    -149.978045
	 D(18,21,24,26)   =        -0.601311	     -34.452587
	 D(19,18,21,22)   =        -3.070008	    -175.898528
	 D(19,18,21,23)   =        -1.067724	     -61.176081
	 D(19,18,21,24)   =         1.064317	      60.980885
	 D(20,18,21,22)   =        -1.067724	     -61.176092
	 D(20,18,21,23)   =         0.934560	      53.546355
	 D(20,18,21,24)   =         3.066601	     175.703321
	 D(22,21,24,25)   =         1.517103	      86.923595
	 D(22,21,24,26)   =        -2.749783	    -157.550948
	 D(23,21,24,25)   =        -0.498313	     -28.551242
	 D(23,21,24,26)   =         1.517986	      86.974216
	 R(9,12)          =         6.428013	       3.401558
	 R(9,24)          =         6.404149	       3.388930
	 R(12,15)         =         6.404150	       3.388930

	Current energy   :      -314.9791851517

	Generating empirical Hessian (Schlegel '84) for each fragment.
	Taking RFO optimization step.
	Going to follow RFO solution 1.
	Using RFO vector 1.
	Norm of target step-size    0.13774
	Projected energy change by RFO approximation:        -0.0005753988

	Back-transformation to cartesian coordinates...
	Successfully converged to displaced geometry.

	--- Internal Coordinate Step in ANG or DEG, aJ/ANG or AJ/DEG ---
	 ---------------------------------------------------------------------------
	   Coordinate                Previous        Force       Change         New 
	   ----------                --------       ------       ------       ------
	    1 R(1,2)          =      1.089060     0.012632     0.002320     1.091380
	    2 R(1,3)          =      1.089070     0.011285     0.002072     1.091142
	    3 R(1,4)          =      1.087623     0.011766     0.002150     1.089774
	    4 R(1,9)          =      1.516938     0.032035     0.006698     1.523636
	    5 R(5,6)          =      1.087624     0.011766     0.002150     1.089774
	    6 R(5,7)          =      1.089060     0.012633     0.002320     1.091380
	    7 R(5,8)          =      1.089070     0.011286     0.002072     1.091143
	    8 R(5,12)         =      1.516938     0.032035     0.006698     1.523636
	    9 R(9,10)         =      1.087968     0.013657     0.002499     1.090467
	   10 R(9,11)         =      1.091415     0.011085     0.002051     1.093467
	   11 R(9,15)         =      1.520505     0.031887     0.006969     1.527474
	   12 R(12,13)        =      1.091416     0.011084     0.002051     1.093467
	   13 R(12,14)        =      1.087969     0.013657     0.002499     1.090467
	   14 R(12,24)        =      1.520505     0.031888     0.006969     1.527474
	   15 R(15,16)        =      1.091727     0.011356     0.002104     1.093831
	   16 R(15,17)        =      1.092388     0.013174     0.002446     1.094834
	   17 R(15,18)        =      1.526240     0.028447     0.006952     1.533192
	   18 R(18,19)        =      1.093093     0.011789     0.002194     1.095287
	   19 R(18,20)        =      1.090632     0.011122     0.002053     1.092685
	   20 R(18,21)        =      1.524138     0.027085     0.007185     1.531323
	   21 R(21,22)        =      1.093093     0.011790     0.002194     1.095287
	   22 R(21,23)        =      1.090632     0.011124     0.002053     1.092685
	   23 R(21,24)        =      1.526239     0.028449     0.006952     1.533191
	   24 R(24,25)        =      1.091727     0.011358     0.002104     1.093832
	   25 R(24,26)        =      1.092388     0.013178     0.002447     1.094835
	   26 B(1,9,10)       =    109.585369    -0.000007     0.016219   109.601588
	   27 B(1,9,11)       =    109.982894    -0.000015    -0.128071   109.854823
	   28 B(1,9,15)       =    111.986319     0.000021     0.125794   112.112113
	   29 B(2,1,3)        =    107.632442    -0.000024    -0.079437   107.553005
	   30 B(2,1,4)        =    108.030639    -0.000028    -0.151088   107.879552
	   31 B(2,1,9)        =    110.498757     0.000028     0.140674   110.639432
	   32 B(3,1,4)        =    108.094109    -0.000028    -0.148070   107.946039
	   33 B(3,1,9)        =    110.684589     0.000027     0.139018   110.823607
	   34 B(4,1,9)        =    111.755025     0.000020     0.080012   111.835037
	   35 B(5,12,13)      =    109.982859    -0.000015    -0.128095   109.854764
	   36 B(5,12,14)      =    109.585343    -0.000007     0.016257   109.601600
	   37 B(5,12,24)      =    111.986340     0.000021     0.125823   112.112162
	   38 B(6,5,7)        =    108.030633    -0.000028    -0.151082   107.879551
	   39 B(6,5,8)        =    108.094102    -0.000028    -0.148070   107.946032
	   40 B(6,5,12)       =    111.754979     0.000020     0.080053   111.835033
	   41 B(7,5,8)        =    107.632459    -0.000024    -0.079454   107.553005
	   42 B(7,5,12)       =    110.498774     0.000028     0.140668   110.639442
	   43 B(8,5,12)       =    110.684615     0.000027     0.138992   110.823608
	   44 B(9,15,16)      =    107.604926     0.000002    -0.145439   107.459488
	   45 B(9,15,17)      =    109.701142     0.000024     0.177787   109.878929
	   46 B(9,15,18)      =    114.488900    -0.000034     0.069616   114.558515
	   47 B(10,9,11)      =    106.297483    -0.000010    -0.206150   106.091334
	   48 B(10,9,15)      =    110.404114     0.000007     0.151246   110.555360
	   49 B(11,9,15)      =    108.418840     0.000002     0.021250   108.440089
	   50 B(12,24,21)     =    114.488849    -0.000034     0.069623   114.558472
	   51 B(12,24,25)     =    107.604983     0.000002    -0.145485   107.459498
	   52 B(12,24,26)     =    109.701139     0.000024     0.177801   109.878941
	   53 B(13,12,14)     =    106.297529    -0.000010    -0.206189   106.091340
	   54 B(13,12,24)     =    108.418792     0.000002     0.021258   108.440051
	   55 B(14,12,24)     =    110.404157     0.000007     0.151230   110.555387
	   56 B(15,18,19)     =    108.860113     0.000006     0.018336   108.878449
	   57 B(15,18,20)     =    108.902618     0.000052     0.048557   108.951175
	   58 B(15,18,21)     =    116.021598    -0.000079     0.138875   116.160474
	   59 B(16,15,17)     =    105.820402    -0.000013    -0.136640   105.683762
	   60 B(16,15,18)     =    109.342470     0.000012    -0.079044   109.263426
	   61 B(17,15,18)     =    109.510717     0.000011     0.090011   109.600728
	   62 B(18,21,22)     =    108.817677     0.000041     0.142865   108.960542
	   63 B(18,21,23)     =    107.527296     0.000012    -0.118022   107.409275
	   64 B(18,21,24)     =    116.021582    -0.000079     0.138858   116.160440
	   65 B(19,18,20)     =    106.281012    -0.000028    -0.271786   106.009226
	   66 B(19,18,21)     =    108.817647     0.000041     0.142883   108.960530
	   67 B(20,18,21)     =    107.527297     0.000012    -0.118007   107.409290
	   68 B(21,24,25)     =    109.342481     0.000012    -0.078997   109.263483
	   69 B(21,24,26)     =    109.510702     0.000011     0.089957   109.600659
	   70 B(22,21,23)     =    106.281009    -0.000028    -0.271787   106.009222
	   71 B(22,21,24)     =    108.860159     0.000006     0.018321   108.878480
	   72 B(23,21,24)     =    108.902563     0.000052     0.048624   108.951186
	   73 B(25,24,26)     =    105.820408    -0.000013    -0.136604   105.683804
	   74 D(1,9,15,16)    =     64.755045    -0.000002    -1.471805    63.283240
	   75 D(1,9,15,17)    =    -49.917002    -0.000001    -1.323073   -51.240075
	   76 D(1,9,15,18)    =   -173.484305    -0.000003    -1.633736  -175.118041
	   77 D(2,1,9,10)     =    -60.814814    -0.000003    -0.104485   -60.919299
	   78 D(2,1,9,11)     =   -177.322513     0.000003     0.209384  -177.113129
	   79 D(2,1,9,15)     =     62.054500     0.000002     0.187116    62.241617
	   80 D(3,1,9,10)     =   -179.946831    -0.000004    -0.185108  -180.131939
	   81 D(3,1,9,11)     =     63.545471     0.000002     0.128762    63.674232
	   82 D(3,1,9,15)     =    -57.077516     0.000000     0.106494   -56.971023
	   83 D(4,1,9,10)     =     59.515417    -0.000003    -0.146498    59.368919
	   84 D(4,1,9,11)     =    -56.992282     0.000002     0.167371   -56.824910
	   85 D(4,1,9,15)     =   -177.615268     0.000001     0.145103  -177.470165
	   86 D(5,12,24,21)   =   -173.484159    -0.000003    -1.633395  -175.117554
	   87 D(5,12,24,25)   =     64.755170    -0.000002    -1.471495    63.283675
	   88 D(5,12,24,26)   =    -49.916914    -0.000001    -1.322788   -51.239702
	   89 D(6,5,12,13)    =    -56.992271     0.000002     0.167434   -56.824838
	   90 D(6,5,12,14)    =     59.515447    -0.000003    -0.146475    59.368972
	   91 D(6,5,12,24)    =   -177.615188     0.000001     0.145153  -177.470035
	   92 D(7,5,12,13)    =   -177.322475     0.000003     0.209415  -177.113059
	   93 D(7,5,12,14)    =    -60.814757    -0.000003    -0.104493   -60.919250
	   94 D(7,5,12,24)    =     62.054608     0.000002     0.187135    62.241743
	   95 D(8,5,12,13)    =     63.545459     0.000002     0.128834    63.674294
	   96 D(8,5,12,14)    =   -179.946823    -0.000004    -0.185074  -180.131897
	   97 D(8,5,12,24)    =    -57.077457     0.000000     0.106553   -56.970904
	   98 D(9,15,18,19)   =    -33.881715     0.000001    -0.749255   -34.630971
	   99 D(9,15,18,20)   =   -149.356561     0.000002    -0.462730  -149.819291
	  100 D(9,15,18,21)   =     89.216581     0.000002    -0.442840    88.773741
	  101 D(10,9,15,16)   =   -172.840823     0.000000    -1.254099  -174.094922
	  102 D(10,9,15,17)   =     72.487129     0.000001    -1.105367    71.381762
	  103 D(10,9,15,18)   =    -51.080174    -0.000001    -1.416030   -52.496204
	  104 D(11,9,15,16)   =    -56.771813    -0.000001    -1.406022   -58.177834
	  105 D(11,9,15,17)   =   -171.443860    -0.000001    -1.257289  -172.701150
	  106 D(11,9,15,18)   =     64.988837    -0.000002    -1.567953    63.420884
	  107 D(12,24,21,18)  =     89.216685     0.000002    -0.442737    88.773948
	  108 D(12,24,21,22)  =    -33.881676     0.000001    -0.749104   -34.630780
	  109 D(12,24,21,23)  =   -149.356512     0.000002    -0.462606  -149.819118
	  110 D(13,12,24,21)  =     64.989047    -0.000002    -1.567606    63.421441
	  111 D(13,12,24,25)  =    -56.771625    -0.000001    -1.405706   -58.177330
	  112 D(13,12,24,26)  =   -171.443709    -0.000001    -1.256998  -172.700707
	  113 D(14,12,24,21)  =    -51.080015    -0.000001    -1.415632   -52.495647
	  114 D(14,12,24,25)  =   -172.840686     0.000000    -1.253731  -174.094418
	  115 D(14,12,24,26)  =     72.487230     0.000001    -1.105024    71.382206
	  116 D(15,18,21,22)  =     60.980958     0.000005     0.951324    61.932283
	  117 D(15,18,21,23)  =    175.703405     0.000004     0.643660   176.347065
	  118 D(15,18,21,24)  =    -62.139629     0.000009     0.709868   -61.429761
	  119 D(16,15,18,19)  =     86.923508    -0.000002    -0.948269    85.975240
	  120 D(16,15,18,20)  =    -28.551337    -0.000001    -0.661743   -29.213080
	  121 D(16,15,18,21)  =   -149.978195    -0.000001    -0.641854  -150.620049
	  122 D(17,15,18,19)  =   -157.551040    -0.000002    -1.106167  -158.657207
	  123 D(17,15,18,20)  =     86.974115    -0.000002    -0.819642    86.154473
	  124 D(17,15,18,21)  =    -34.452743    -0.000002    -0.799752   -35.252495
	  125 D(18,21,24,25)  =   -149.978045    -0.000001    -0.641771  -150.619815
	  126 D(18,21,24,26)  =    -34.452587    -0.000002    -0.799630   -35.252217
	  127 D(19,18,21,22)  =   -175.898528     0.000002     1.192827  -174.705700
	  128 D(19,18,21,23)  =    -61.176081     0.000000     0.885163   -60.290918
	  129 D(19,18,21,24)  =     60.980885     0.000005     0.951371    61.932256
	  130 D(20,18,21,22)  =    -61.176092     0.000000     0.885180   -60.290911
	  131 D(20,18,21,23)  =     53.546355    -0.000001     0.577516    54.123871
	  132 D(20,18,21,24)  =    175.703321     0.000004     0.643724   176.347045
	  133 D(22,21,24,25)  =     86.923595    -0.000002    -0.948138    85.975457
	  134 D(22,21,24,26)  =   -157.550948    -0.000002    -1.105997  -158.656945
	  135 D(23,21,24,25)  =    -28.551242    -0.000001    -0.661640   -29.212882
	  136 D(23,21,24,26)  =     86.974216    -0.000002    -0.819499    86.154717
	  137 R(9,12)         =      3.401558    -0.001827     0.010141     3.411699
	  138 R(9,24)         =      3.388930     0.007683     0.011424     3.400353
	  139 R(12,15)        =      3.388930     0.007684     0.011426     3.400356
	 ---------------------------------------------------------------------------

  ==> Convergence Check <==

  Measures of convergence in internal coordinates in au.
  Criteria marked as inactive (o), active & met (*), and active & unmet ( ).
  --------------------------------------------------------------------------------------------- ~
   Step     Total Energy     Delta E     MAX Force     RMS Force      MAX Disp      RMS Disp    ~
  --------------------------------------------------------------------------------------------- ~
    Convergence Criteria             o    2.00e-06 *    1.00e-06 *    6.00e-06 *    4.00e-06 *  ~
  --------------------------------------------------------------------------------------------- ~
      1    -314.97918515   -3.15e+02 o    3.89e-03      1.01e-03      2.85e-02      1.17e-02    ~
  ---------------------------------------------------------------------------------------------

	Writing optimization data to binary file.
	Structure for next step:
	Cartesian Geometry (in Angstrom)
	    C     2.3287589803  -0.1221008457  -1.7580382307
	    H     1.7831146493  -1.0056692266  -2.0937298203
	    H     3.3344130348  -0.4420238077  -1.4807284244
	    H     2.4145505500   0.5595740605  -2.6039495084
	    C    -2.3287643336   0.1221077280  -1.7580248812
	    H    -2.4145661973  -0.5595673044  -2.6039353769
	    H    -1.7831113392   1.0056701222  -2.0937193590
	    H    -3.3344143860   0.4420420099  -1.4807120464
	    C     1.6219237226   0.5284629645  -0.5754070393
	    H     0.6213643499   0.8421932078  -0.8746928345
	    H     2.1503647846   1.4398302656  -0.2824413292
	    C    -1.6219321857  -0.5284628693  -0.5753950894
	    H    -2.1503825577  -1.4398249052  -0.2824282774
	    H    -0.6213763081  -0.8422038677  -0.8746835607
	    C     1.5530514884  -0.4004565154   0.6351882151
	    H     2.5798904121  -0.5974698729   0.9565202777
	    H     1.1449116579  -1.3714988576   0.3365905425
	    C     0.7502075448   0.1530818231   1.8182829399
	    H     0.8920124169   1.2380959500   1.8661253550
	    H     1.1653765031  -0.2463254350   2.7467596263
	    C    -0.7501961337  -0.1530878706   1.8182878749
	    H    -0.8920008997  -1.2381023182   1.8661278938
	    H    -1.1653581320   0.2463164739   2.7467690150
	    C    -1.5530478823   0.4004550354   0.6352008190
	    H    -2.5798839836   0.5974718285   0.9565407801
	    H    -1.1449055454   1.3714965468   0.3366015653
			--------------------------
			 OPTKING Finished Execution 
			--------------------------

    Structure for next step:
    Molecular point group: c1
    Full point group: C1

    Geometry (in Angstrom), charge = 0, multiplicity = 1:

    C            2.328758862765    -0.122100830877    -1.758036287209
    H            1.783114531803    -1.005669211823    -2.093727876760
    H            3.334412917302    -0.442023792860    -1.480726480904
    H            2.414550432474     0.559574075289    -2.603947564874
    C           -2.328764451111     0.122107742788    -1.758022937652
    H           -2.414566314747    -0.559567289600    -2.603933433427
    H           -1.783111456640     1.005670137050    -2.093717415494
    H           -3.334414503478     0.442042024741    -1.480710102937
    C            1.621923605084     0.528462979354    -0.575405095766
    H            0.621364232394     0.842193222604    -0.874690890979
    H            2.150364667101     1.439830280425    -0.282439385741
    C           -1.621932303149    -0.528462854463    -0.575393145892
    H           -2.150382675162    -1.439824890388    -0.282426333862
    H           -0.621376425590    -0.842203852867    -0.874681617234
    C            1.553051370889    -0.400456500537     0.635190158613
    H            2.579890294649    -0.597469858051     0.956522221205
    H            1.144911540441    -1.371498842733     0.336592486029
    C            0.750207427292     0.153081837883     1.818284883428
    H            0.892012299384     1.238095964852     1.866127298526
    H            1.165376385623    -0.246325420160     2.746761569843
    C           -0.750196251167    -0.153087855746     1.818289818417
    H           -0.892001017168    -1.238102303351     1.866129837300
    H           -1.165358249480     0.246316488711     2.746770958524
    C           -1.553047999823     0.400455050180     0.635202762538
    H           -2.579884101051     0.597471843329     0.956542723589
    H           -1.144905662922     1.371496561651     0.336603508799

gradient() will perform analytic gradient computation.

*** tstart() called on wr39
*** at Tue Sep 20 21:26:43 2016


         ---------------------------------------------------------
                                   SCF
            by Justin Turney, Rob Parrish, and Andy Simmonett
                              RHF Reference
                       12 Threads,  30000 MiB Core
         ---------------------------------------------------------

  ==> Geometry <==

    Molecular point group: c1
    Full point group: C1

    Geometry (in Angstrom), charge = 0, multiplicity = 1:

       Center              X                  Y                   Z               Mass       
    ------------   -----------------  -----------------  -----------------  -----------------
           C          2.328758862765    -0.122100830877    -1.758036287209    12.000000000000
           H          1.783114531803    -1.005669211823    -2.093727876760     1.007825032070
           H          3.334412917302    -0.442023792860    -1.480726480904     1.007825032070
           H          2.414550432474     0.559574075289    -2.603947564874     1.007825032070
           C         -2.328764451111     0.122107742788    -1.758022937652    12.000000000000
           H         -2.414566314747    -0.559567289600    -2.603933433427     1.007825032070
           H         -1.783111456640     1.005670137050    -2.093717415494     1.007825032070
           H         -3.334414503478     0.442042024741    -1.480710102937     1.007825032070
           C          1.621923605084     0.528462979354    -0.575405095766    12.000000000000
           H          0.621364232394     0.842193222604    -0.874690890979     1.007825032070
           H          2.150364667101     1.439830280425    -0.282439385741     1.007825032070
           C         -1.621932303149    -0.528462854463    -0.575393145892    12.000000000000
           H         -2.150382675162    -1.439824890388    -0.282426333862     1.007825032070
           H         -0.621376425590    -0.842203852867    -0.874681617234     1.007825032070
           C          1.553051370889    -0.400456500537     0.635190158613    12.000000000000
           H          2.579890294649    -0.597469858051     0.956522221205     1.007825032070
           H          1.144911540441    -1.371498842733     0.336592486029     1.007825032070
           C          0.750207427292     0.153081837883     1.818284883428    12.000000000000
           H          0.892012299384     1.238095964852     1.866127298526     1.007825032070
           H          1.165376385623    -0.246325420160     2.746761569843     1.007825032070
           C         -0.750196251167    -0.153087855746     1.818289818417    12.000000000000
           H         -0.892001017168    -1.238102303351     1.866129837300     1.007825032070
           H         -1.165358249480     0.246316488711     2.746770958524     1.007825032070
           C         -1.553047999823     0.400455050180     0.635202762538    12.000000000000
           H         -2.579884101051     0.597471843329     0.956542723589     1.007825032070
           H         -1.144905662922     1.371496561651     0.336603508799     1.007825032070

  Running in c1 symmetry.

  Rotational constants: A =      0.06691  B =      0.04636  C =      0.03011 [cm^-1]
  Rotational constants: A =   2005.91489  B =   1389.85308  C =    902.73210 [MHz]
  Nuclear repulsion =  406.474924585653241

  Charge       = 0
  Multiplicity = 1
  Electrons    = 66
  Nalpha       = 33
  Nbeta        = 33

  ==> Algorithm <==

  SCF Algorithm Type is DF.
  DIIS enabled.
  MOM disabled.
  Fractional occupation disabled.
  Guess Type is READ.
  Energy threshold   = 1.00e-10
  Density threshold  = 1.00e-10
  Integral threshold = 0.00e+00

  ==> Primary Basis <==

  Basis Set: AUG-CC-PVTZ
    Number of shells: 274
    Number of basis function: 782
    Number of Cartesian functions: 890
    Spherical Harmonics?: true
    Max angular momentum: 3

  ==> Pre-Iterations <==

   -------------------------------------------------------
    Irrep   Nso     Nmo     Nalpha   Nbeta   Ndocc  Nsocc
   -------------------------------------------------------
     A        782     782       0       0       0       0
   -------------------------------------------------------
    Total     782     782      33      33      33       0
   -------------------------------------------------------

  ==> Integral Setup <==

  ==> DFJK: Density-Fitted J/K Matrices <==

    J tasked:                  Yes
    K tasked:                  Yes
    wK tasked:                  No
    OpenMP threads:             12
    Integrals threads:          12
    Memory (MB):             21457
    Algorithm:                Core
    Integral Cache:           NONE
    Schwarz Cutoff:          1E-12
    Fitting Condition:       1E-12

   => Auxiliary Basis Set <=

  Basis Set: 
    Number of shells: 492
    Number of basis function: 1660
    Number of Cartesian functions: 2038
    Spherical Harmonics?: true
    Max angular momentum: 4

  Minimum eigenvalue in the overlap matrix is 1.5983923694E-06.
  Using Symmetric Orthogonalization.
  SCF Guess: Reading in previously saved MOs, projecting if necessary.

  Using orbitals from previous SCF, no projection.
  Recomputing DOCC and SOCC from number of alpha and beta electrons from previous calculation.
              A 
    DOCC [    33 ]

  ==> Iterations <==

                           Total Energy        Delta E     RMS |[F,P]|

   @DF-RHF iter   0:  -313.48550118899271   -3.13486e+02   9.28139e-05 
   @DF-RHF iter   1:  -313.53436633662528   -4.88651e-02   2.11813e-05 
   @DF-RHF iter   2:  -313.53453499950211   -1.68663e-04   1.09475e-05 DIIS
   @DF-RHF iter   3:  -313.53457449730860   -3.94978e-05   2.43805e-06 DIIS
   @DF-RHF iter   4:  -313.53457886698897   -4.36968e-06   3.31870e-07 DIIS
   @DF-RHF iter   5:  -313.53457893888941   -7.19004e-08   1.08075e-07 DIIS
   @DF-RHF iter   6:  -313.53457894518402   -6.29461e-09   2.46192e-08 DIIS
   @DF-RHF iter   7:  -313.53457894561592   -4.31896e-10   4.97300e-09 DIIS
   @DF-RHF iter   8:  -313.53457894563149   -1.55751e-11   1.58320e-09 DIIS
   @DF-RHF iter   9:  -313.53457894563286   -1.36424e-12   3.73422e-10 DIIS
   @DF-RHF iter  10:  -313.53457894563297   -1.13687e-13   9.42015e-11 DIIS

  ==> Post-Iterations <==

    Orbital Energies (a.u.)
    -----------------------

    Doubly Occupied:                                                      

       1A    -11.211855     2A    -11.211733     3A    -11.211664  
       4A    -11.211261     5A    -11.210609     6A    -11.210537  
       7A    -11.207646     8A    -11.207646     9A     -1.093687  
      10A     -1.056141    11A     -1.013158    12A     -0.948466  
      13A     -0.885243    14A     -0.820990    15A     -0.789158  
      16A     -0.768862    17A     -0.656891    18A     -0.613696  
      19A     -0.601583    20A     -0.598730    21A     -0.576467  
      22A     -0.556758    23A     -0.555402    24A     -0.530162  
      25A     -0.521811    26A     -0.501329    27A     -0.482746  
      28A     -0.471627    29A     -0.467806    30A     -0.462175  
      31A     -0.453733    32A     -0.433780    33A     -0.432081  

    Virtual:                                                              

      34A      0.028419    35A      0.032679    36A      0.034143  
      37A      0.034436    38A      0.046777    39A      0.048275  
      40A      0.051163    41A      0.053598    42A      0.056345  
      43A      0.069587    44A      0.069634    45A      0.071775  
      46A      0.075416    47A      0.078442    48A      0.080073  
      49A      0.086840    50A      0.093014    51A      0.099556  
      52A      0.114168    53A      0.114653    54A      0.119656  
      55A      0.125960    56A      0.132808    57A      0.136185  
      58A      0.138648    59A      0.139957    60A      0.142496  
      61A      0.144720    62A      0.149421    63A      0.150497  
      64A      0.153025    65A      0.154167    66A      0.156859  
      67A      0.164514    68A      0.168736    69A      0.173939  
      70A      0.175525    71A      0.180933    72A      0.183533  
      73A      0.183561    74A      0.184290    75A      0.199985  
      76A      0.204694    77A      0.205917    78A      0.220353  
      79A      0.227999    80A      0.236544    81A      0.244043  
      82A      0.247876    83A      0.254651    84A      0.264406  
      85A      0.265660    86A      0.268734    87A      0.270791  
      88A      0.288736    89A      0.289930    90A      0.293580  
      91A      0.297697    92A      0.307559    93A      0.309607  
      94A      0.314490    95A      0.317041    96A      0.317598  
      97A      0.325367    98A      0.333257    99A      0.337633  
     100A      0.339085   101A      0.342516   102A      0.343413  
     103A      0.346401   104A      0.356963   105A      0.359352  
     106A      0.362040   107A      0.365124   108A      0.365126  
     109A      0.372618   110A      0.375980   111A      0.379340  
     112A      0.379750   113A      0.387352   114A      0.393453  
     115A      0.394570   116A      0.397852   117A      0.402465  
     118A      0.406448   119A      0.410487   120A      0.415050  
     121A      0.418187   122A      0.425110   123A      0.426104  
     124A      0.430556   125A      0.432282   126A      0.441688  
     127A      0.445715   128A      0.446402   129A      0.451170  
     130A      0.455717   131A      0.456944   132A      0.461954  
     133A      0.467219   134A      0.468607   135A      0.474702  
     136A      0.485438   137A      0.486533   138A      0.490299  
     139A      0.490514   140A      0.493388   141A      0.498419  
     142A      0.499368   143A      0.508376   144A      0.512037  
     145A      0.515351   146A      0.518017   147A      0.523784  
     148A      0.524556   149A      0.531719   150A      0.532264  
     151A      0.532691   152A      0.536134   153A      0.539139  
     154A      0.549480   155A      0.551750   156A      0.552204  
     157A      0.562868   158A      0.563739   159A      0.578628  
     160A      0.580786   161A      0.581884   162A      0.587349  
     163A      0.591563   164A      0.595758   165A      0.596248  
     166A      0.604001   167A      0.609232   168A      0.613752  
     169A      0.621883   170A      0.628762   171A      0.630775  
     172A      0.634206   173A      0.638377   174A      0.651989  
     175A      0.653864   176A      0.657369   177A      0.660016  
     178A      0.664317   179A      0.665437   180A      0.668953  
     181A      0.683187   182A      0.683333   183A      0.690454  
     184A      0.695274   185A      0.695450   186A      0.699813  
     187A      0.706054   188A      0.712926   189A      0.720472  
     190A      0.721366   191A      0.723593   192A      0.732878  
     193A      0.744093   194A      0.750702   195A      0.751657  
     196A      0.771730   197A      0.782167   198A      0.786376  
     199A      0.788144   200A      0.796917   201A      0.805614  
     202A      0.811285   203A      0.817103   204A      0.826183  
     205A      0.834238   206A      0.836394   207A      0.842602  
     208A      0.859524   209A      0.862914   210A      0.863951  
     211A      0.874208   212A      0.883485   213A      0.887039  
     214A      0.895452   215A      0.898901   216A      0.902404  
     217A      0.908666   218A      0.910095   219A      0.913692  
     220A      0.917728   221A      0.925062   222A      0.925923  
     223A      0.933750   224A      0.934551   225A      0.938859  
     226A      0.939177   227A      0.952666   228A      0.954614  
     229A      0.960454   230A      0.964660   231A      0.974063  
     232A      0.975572   233A      0.977258   234A      0.979203  
     235A      0.993201   236A      0.993388   237A      0.998167  
     238A      0.999527   239A      1.014036   240A      1.016402  
     241A      1.016884   242A      1.025639   243A      1.034156  
     244A      1.037746   245A      1.042318   246A      1.046882  
     247A      1.051200   248A      1.055498   249A      1.069961  
     250A      1.074331   251A      1.080549   252A      1.081149  
     253A      1.093906   254A      1.097716   255A      1.102241  
     256A      1.110541   257A      1.111975   258A      1.117891  
     259A      1.118532   260A      1.128228   261A      1.134556  
     262A      1.141085   263A      1.147231   264A      1.149844  
[...]
	 Skipping Hessian update for step 13.
	Denominators (dg)(dq) or (dq)(dq) are very small.
	 Skipping Hessian update for step 12.
	Denominators (dg)(dq) or (dq)(dq) are very small.
	 Skipping Hessian update for step 11.
	Denominators (dg)(dq) or (dq)(dq) are very small.
	 Skipping Hessian update for step 10.
	Denominators (dg)(dq) or (dq)(dq) are very small.
	 Skipping Hessian update for step 9.
	Denominators (dg)(dq) or (dq)(dq) are very small.
	 Skipping Hessian update for step 8.
	Denominators (dg)(dq) or (dq)(dq) are very small.
	 Skipping Hessian update for step 7.
	Denominators (dg)(dq) or (dq)(dq) are very small.
	 Skipping Hessian update for step 6.
	Steps to be used in Hessian update: 5 4
	Taking RFO optimization step.
	Going to follow RFO solution 1.
	Using RFO vector 1.
	Norm of target step-size    0.00002
	Projected energy change by RFO approximation:        -0.0000000000

	Back-transformation to cartesian coordinates...
	Successfully converged to displaced geometry.

	--- Internal Coordinate Step in ANG or DEG, aJ/ANG or AJ/DEG ---
	 ---------------------------------------------------------------------------
	   Coordinate                Previous        Force       Change         New 
	   ----------                --------       ------       ------       ------
	    1 R(1,2)          =      1.091280     0.000000     0.000000     1.091280
	    2 R(1,3)          =      1.091027     0.000000     0.000000     1.091027
	    3 R(1,4)          =      1.089776     0.000000    -0.000000     1.089776
	    4 R(1,9)          =      1.523289     0.000000     0.000000     1.523289
	    5 R(5,6)          =      1.089776    -0.000001    -0.000000     1.089776
	    6 R(5,7)          =      1.091280    -0.000002    -0.000000     1.091279
	    7 R(5,8)          =      1.091026    -0.000002    -0.000000     1.091026
	    8 R(5,12)         =      1.523289     0.000000     0.000000     1.523289
	    9 R(9,10)         =      1.090747    -0.000001    -0.000000     1.090747
	   10 R(9,11)         =      1.093366    -0.000001    -0.000000     1.093366
	   11 R(9,15)         =      1.526756     0.000001     0.000000     1.526757
	   12 R(12,13)        =      1.093366    -0.000001    -0.000000     1.093365
	   13 R(12,14)        =      1.090746    -0.000002    -0.000000     1.090746
	   14 R(12,24)        =      1.526756     0.000000     0.000000     1.526757
	   15 R(15,16)        =      1.093793    -0.000001    -0.000000     1.093793
	   16 R(15,17)        =      1.094651    -0.000001    -0.000000     1.094650
	   17 R(15,18)        =      1.532822    -0.000005    -0.000001     1.532821
	   18 R(18,19)        =      1.095081    -0.000004    -0.000001     1.095080
	   19 R(18,20)        =      1.092715    -0.000003    -0.000001     1.092715
	   20 R(18,21)        =      1.531115     0.000000     0.000000     1.531115
	   21 R(21,22)        =      1.095081    -0.000003    -0.000000     1.095080
	   22 R(21,23)        =      1.092715    -0.000002    -0.000000     1.092715
	   23 R(21,24)        =      1.532822    -0.000002    -0.000000     1.532822
	   24 R(24,25)        =      1.093793    -0.000001    -0.000000     1.093792
	   25 R(24,26)        =      1.094650    -0.000002    -0.000000     1.094650
	   26 B(1,9,10)       =    109.565155    -0.000000    -0.000006   109.565150
	   27 B(1,9,11)       =    109.885707    -0.000000    -0.000034   109.885672
	   28 B(1,9,15)       =    112.012428     0.000000     0.000052   112.012481
	   29 B(2,1,3)        =    107.616297    -0.000000    -0.000011   107.616286
	   30 B(2,1,4)        =    107.910812    -0.000000    -0.000001   107.910811
	   31 B(2,1,9)        =    110.638942     0.000000     0.000004   110.638946
	   32 B(3,1,4)        =    107.987146    -0.000000    -0.000005   107.987142
	   33 B(3,1,9)        =    110.786484    -0.000000    -0.000012   110.786472
	   34 B(4,1,9)        =    111.745228     0.000000     0.000024   111.745251
	   35 B(5,12,13)      =    109.885736     0.000000     0.000012   109.885748
	   36 B(5,12,14)      =    109.565143    -0.000000    -0.000032   109.565111
	   37 B(5,12,24)      =    112.012426    -0.000000    -0.000000   112.012425
	   38 B(6,5,7)        =    107.910808    -0.000000     0.000002   107.910810
	   39 B(6,5,8)        =    107.987155     0.000000     0.000001   107.987156
	   40 B(6,5,12)       =    111.745243     0.000000     0.000017   111.745259
	   41 B(7,5,8)        =    107.616292     0.000000     0.000001   107.616293
	   42 B(7,5,12)       =    110.638933    -0.000000    -0.000006   110.638927
	   43 B(8,5,12)       =    110.786479    -0.000000    -0.000015   110.786464
	   44 B(9,15,16)      =    107.463802     0.000000     0.000045   107.463847
	   45 B(9,15,17)      =    109.854650     0.000000     0.000064   109.854715
	   46 B(9,15,18)      =    114.468237     0.000000    -0.000024   114.468213
	   47 B(10,9,11)      =    106.227042    -0.000000    -0.000041   106.227001
	   48 B(10,9,15)      =    110.505717    -0.000000     0.000008   110.505725
	   49 B(11,9,15)      =    108.473423     0.000000     0.000015   108.473438
	   50 B(12,24,21)     =    114.468237     0.000000     0.000060   114.468297
	   51 B(12,24,25)     =    107.463809     0.000000    -0.000009   107.463800
	   52 B(12,24,26)     =    109.854639     0.000000     0.000049   109.854688
	   53 B(13,12,14)     =    106.227025    -0.000000    -0.000012   106.227013
	   54 B(13,12,24)     =    108.473438     0.000000     0.000040   108.473478
	   55 B(14,12,24)     =    110.505705     0.000000    -0.000008   110.505697
	   56 B(15,18,19)     =    108.865617    -0.000000    -0.000049   108.865568
	   57 B(15,18,20)     =    108.899574    -0.000000    -0.000012   108.899562
	   58 B(15,18,21)     =    116.253628    -0.000000    -0.000004   116.253624
	   59 B(16,15,17)     =    105.843552     0.000000     0.000020   105.843573
	   60 B(16,15,18)     =    109.244291    -0.000000    -0.000014   109.244277
	   61 B(17,15,18)     =    109.591298    -0.000000    -0.000086   109.591212
	   62 B(18,21,22)     =    108.959944    -0.000000    -0.000028   108.959916
	   63 B(18,21,23)     =    107.303473     0.000000     0.000065   107.303538
	   64 B(18,21,24)     =    116.253652     0.000000     0.000051   116.253703
	   65 B(19,18,20)     =    106.086836    -0.000000     0.000004   106.086839
	   66 B(19,18,21)     =    108.959959     0.000000    -0.000007   108.959952
	   67 B(20,18,21)     =    107.303461     0.000000     0.000070   107.303530
	   68 B(21,24,25)     =    109.244269    -0.000000    -0.000046   109.244222
	   69 B(21,24,26)     =    109.591339    -0.000000    -0.000044   109.591294
	   70 B(22,21,23)     =    106.086840     0.000000    -0.000005   106.086834
	   71 B(22,21,24)     =    108.865580    -0.000000    -0.000063   108.865517
	   72 B(23,21,24)     =    108.899585    -0.000000    -0.000022   108.899563
	   73 B(25,24,26)     =    105.843535     0.000000    -0.000014   105.843521
	   74 D(1,9,15,16)    =     63.046846     0.000000     0.000218    63.047064
	   75 D(1,9,15,17)    =    -51.654927    -0.000000     0.000137   -51.654791
	   76 D(1,9,15,18)    =   -175.434332     0.000000     0.000217  -175.434114
	   77 D(2,1,9,10)     =    -61.004128    -0.000000     0.000024   -61.004104
	   78 D(2,1,9,11)     =   -177.358694     0.000000     0.000097  -177.358598
	   79 D(2,1,9,15)     =     61.998534    -0.000000     0.000066    61.998600
	   80 D(3,1,9,10)     =    179.728428    -0.000000     0.000043   179.728471
	   81 D(3,1,9,11)     =     63.373862     0.000000     0.000116    63.373977
	   82 D(3,1,9,15)     =    -57.268910     0.000000     0.000085   -57.268824
	   83 D(4,1,9,10)     =     59.263266    -0.000000     0.000041    59.263307
	   84 D(4,1,9,11)     =    -57.091300     0.000000     0.000113   -57.091187
	   85 D(4,1,9,15)     =   -177.734072     0.000000     0.000083  -177.733989
	   86 D(5,12,24,21)   =   -175.434821     0.000000    -0.000187  -175.435009
	   87 D(5,12,24,25)   =     63.046380     0.000000    -0.000160    63.046220
	   88 D(5,12,24,26)   =    -51.655372    -0.000000    -0.000163   -51.655535
	   89 D(6,5,12,13)    =    -57.091323     0.000000    -0.000010   -57.091333
	   90 D(6,5,12,14)    =     59.263233    -0.000000    -0.000036    59.263196
	   91 D(6,5,12,24)    =   -177.734132    -0.000000    -0.000070  -177.734201
	   92 D(7,5,12,13)    =   -177.358715     0.000000    -0.000020  -177.358735
	   93 D(7,5,12,14)    =    -61.004160    -0.000000    -0.000046   -61.004205
	   94 D(7,5,12,24)    =     61.998476    -0.000000    -0.000079    61.998397
	   95 D(8,5,12,13)    =     63.373857     0.000000    -0.000008    63.373849
	   96 D(8,5,12,14)    =    179.728412    -0.000000    -0.000034   179.728378
	   97 D(8,5,12,24)    =    -57.268952    -0.000000    -0.000067   -57.269019
	   98 D(9,15,18,19)   =    -34.061698     0.000000     0.000106   -34.061591
	   99 D(9,15,18,20)   =   -149.307364     0.000000     0.000135  -149.307230
	  100 D(9,15,18,21)   =     89.400216    -0.000000     0.000054    89.400270
	  101 D(10,9,15,16)   =   -174.484035     0.000000     0.000253  -174.483782
	  102 D(10,9,15,17)   =     70.814191    -0.000000     0.000172    70.814363
	  103 D(10,9,15,18)   =    -52.965213     0.000000     0.000252   -52.964960
	  104 D(11,9,15,16)   =    -58.411883     0.000000     0.000217   -58.411666
	  105 D(11,9,15,17)   =   -173.113657    -0.000000     0.000136  -173.113521
	  106 D(11,9,15,18)   =     63.106939     0.000000     0.000217    63.107156
	  107 D(12,24,21,18)  =     89.400121    -0.000000    -0.000193    89.399928
	  108 D(12,24,21,22)  =    -34.061760    -0.000000    -0.000141   -34.061901
	  109 D(12,24,21,23)  =   -149.307418     0.000000    -0.000089  -149.307507
	  110 D(13,12,24,21)  =     63.106405     0.000000    -0.000230    63.106175
	  111 D(13,12,24,25)  =    -58.412394     0.000000    -0.000203   -58.412597
	  112 D(13,12,24,26)  =   -173.114146    -0.000000    -0.000206  -173.114352
	  113 D(14,12,24,21)  =    -52.965728    -0.000000    -0.000235   -52.965963
	  114 D(14,12,24,25)  =   -174.484527    -0.000000    -0.000208  -174.484735
	  115 D(14,12,24,26)  =     70.813721    -0.000000    -0.000211    70.813510
	  116 D(15,18,21,22)  =     61.795409    -0.000000     0.000012    61.795420
	  117 D(15,18,21,23)  =    176.245708    -0.000000     0.000026   176.245734
	  118 D(15,18,21,24)  =    -61.617509     0.000000     0.000082   -61.617427
	  119 D(16,15,18,19)  =     86.475052     0.000000     0.000138    86.475190
	  120 D(16,15,18,20)  =    -28.770615     0.000000     0.000166   -28.770449
	  121 D(16,15,18,21)  =   -150.063034     0.000000     0.000086  -150.062948
	  122 D(17,15,18,19)  =   -157.981870    -0.000000     0.000107  -157.981763
	  123 D(17,15,18,20)  =     86.772463    -0.000000     0.000135    86.772598
	  124 D(17,15,18,21)  =    -34.519956    -0.000000     0.000055   -34.519901
	  125 D(18,21,24,25)  =   -150.063137    -0.000000    -0.000198  -150.063336
	  126 D(18,21,24,26)  =    -34.520069    -0.000000    -0.000266   -34.520335
	  127 D(19,18,21,22)  =   -174.791630    -0.000000    -0.000062  -174.791692
	  128 D(19,18,21,23)  =    -60.341330    -0.000000    -0.000048   -60.341378
	  129 D(19,18,21,24)  =     61.795453    -0.000000     0.000008    61.795461
	  130 D(20,18,21,22)  =    -60.341334    -0.000000    -0.000025   -60.341359
	  131 D(20,18,21,23)  =     54.108966     0.000000    -0.000011    54.108955
	  132 D(20,18,21,24)  =    176.245749     0.000000     0.000045   176.245794
	  133 D(22,21,24,25)  =     86.474982     0.000000    -0.000147    86.474835
	  134 D(22,21,24,26)  =   -157.981950    -0.000000    -0.000214  -157.982164
	  135 D(23,21,24,25)  =    -28.770676     0.000000    -0.000095   -28.770770
	  136 D(23,21,24,26)  =     86.772392     0.000000    -0.000162    86.772230
	  137 R(9,12)         =      3.442844     0.000000    -0.000001     3.442843
	  138 R(9,24)         =      3.414062    -0.000001     0.000000     3.414063
	  139 R(12,15)        =      3.414061     0.000000    -0.000002     3.414059
	 ---------------------------------------------------------------------------

  ==> Convergence Check <==

  Measures of convergence in internal coordinates in au.
  Criteria marked as inactive (o), active & met (*), and active & unmet ( ).
  ---------------------------------------------------------------------------------------------
   Step     Total Energy     Delta E     MAX Force     RMS Force      MAX Disp      RMS Disp   
  ---------------------------------------------------------------------------------------------
    Convergence Criteria             o    2.00e-06 *    1.00e-06 *    6.00e-06 *    4.00e-06 *
  ---------------------------------------------------------------------------------------------
     22    -314.97946536   -2.77e-09 o    5.89e-07 *    1.06e-07 *    4.64e-06 *    1.76e-06 *  ~
  ---------------------------------------------------------------------------------------------


  **** Optimization is complete! (in 22 steps) ****

  ==> Optimization Summary <==

  Measures of convergence in internal coordinates in au.
  --------------------------------------------------------------------------------------------------------------- ~
   Step         Total Energy             Delta E       MAX Force       RMS Force        MAX Disp        RMS Disp  ~
  --------------------------------------------------------------------------------------------------------------- ~
      1    -314.979185151663   -314.979185151663      0.00388838      0.00101299      0.02851407      0.01168257  ~
      2    -314.979439978605     -0.000254826942      0.00070373      0.00015487      0.06156107      0.00959227  ~
      3    -314.979391532302      0.000048446303      0.00073218      0.00022437      0.02442361      0.00747087  ~
      4    -314.979462202329     -0.000070670027      0.00014679      0.00005047      0.01024959      0.00191917  ~
      5    -314.979464776147     -0.000002573818      0.00005572      0.00001520      0.00761037      0.00124659  ~
      6    -314.979465336271     -0.000000560124      0.00001874      0.00000535      0.00098768      0.00019207  ~
      7    -314.979465359646     -0.000000023375      0.00000808      0.00000129      0.00008424      0.00002946  ~
      8    -314.979465359803     -0.000000000156      0.00000233      0.00000040      0.00001540      0.00000621  ~
      9    -314.979465364164     -0.000000004362      0.00000147      0.00000030      0.00001647      0.00000484  ~
     10    -314.979465358902      0.000000005262      0.00000039      0.00000009      0.00000965      0.00000309  ~
     11    -314.979465361501     -0.000000002599      0.00000227      0.00000056      0.00003518      0.00001062  ~
     12    -314.979465360301      0.000000001200      0.00000198      0.00000043      0.00002657      0.00000824  ~
     13    -314.979465361599     -0.000000001298      0.00000114      0.00000022      0.00001535      0.00000487  ~
     14    -314.979465360299      0.000000001300      0.00000085      0.00000019      0.00001883      0.00000553  ~
     15    -314.979465362093     -0.000000001794      0.00000086      0.00000017      0.00001853      0.00000566  ~
     16    -314.979465357406      0.000000004687      0.00000106      0.00000021      0.00001433      0.00000519  ~
     17    -314.979465360725     -0.000000003318      0.00000078      0.00000019      0.00001021      0.00000315  ~
     18    -314.979465360118      0.000000000606      0.00000063      0.00000013      0.00001046      0.00000321  ~
     19    -314.979465356614      0.000000003505      0.00000038      0.00000008      0.00000880      0.00000236  ~
     20    -314.979465363793     -0.000000007179      0.00000187      0.00000041      0.00001923      0.00000748  ~
     21    -314.979465358975      0.000000004818      0.00000194      0.00000049      0.00002310      0.00000808  ~
     22    -314.979465361748     -0.000000002772      0.00000059      0.00000011      0.00000464      0.00000176  ~
  --------------------------------------------------------------------------------------------------------------- ~

	Writing optimization data to binary file.
	Final energy is   -314.9794653617479
	Final (previous) structure:
	Cartesian Geometry (in Angstrom)
	    C     2.3518140469  -0.1145912017  -1.7513790825
	    H     1.8086528296  -0.9974260642  -2.0926561215
	    H     3.3555950985  -0.4339007541  -1.4671182896
	    H     2.4425350860   0.5698197032  -2.5945658256
	    C    -2.3518251986   0.1145802757  -1.7513703888
	    H    -2.4425458034  -0.5698333891  -2.5945545512
	    H    -1.8086742067   0.9974188672  -2.0926533272
	    H    -3.3556068582   0.4338817190  -1.4671036745
	    C     1.6366577624   0.5335252028  -0.5728599113
	    H     0.6386841657   0.8490273155  -0.8798388609
	    H     2.1649892268   1.4419774543  -0.2711485365
	    C    -1.6366553772  -0.5335262434  -0.5728545181
	    H    -2.1649762672  -1.4419819294  -0.2711365641
	    H    -0.6386817739  -0.8490204876  -0.8798394717
	    C     1.5552000353  -0.4013244786   0.6314681677
	    H     2.5788816651  -0.6063223394   0.9577111002
	    H     1.1401238285  -1.3668291570   0.3252455300
	    C     0.7501111246   0.1530277440   1.8121755037
	    H     0.8919303474   1.2378666333   1.8592298614
	    H     1.1634105165  -0.2469448632   2.7412781304
	    C    -0.7501048192  -0.1530185521   1.8121777946
	    H    -0.8919236270  -1.2378571407   1.8592365869
	    H    -1.1634022839   0.2469575293   2.7412796878
	    C    -1.5551967874   0.4013280532   0.6314698800
	    H    -2.5788778360   0.6063253019   0.9577142572
	    H    -1.1401234778   1.3668320762   0.3252425922
	Saving final (previous) structure.
			--------------------------
			 OPTKING Finished Execution 
			--------------------------

    Final optimized geometry and variables:
    Molecular point group: c1
    Full point group: C1

    Geometry (in Angstrom), charge = 0, multiplicity = 1:

    C            2.351814046912    -0.114591201734    -1.751379082459
    H            1.808652829628    -0.997426064207    -2.092656121478
    H            3.355595098473    -0.433900754149    -1.467118289556
    H            2.442535085988     0.569819703239    -2.594565825629
    C           -2.351825198560     0.114580275680    -1.751370388849
    H           -2.442545803370    -0.569833389054    -2.594554551221
    H           -1.808674206728     0.997418867173    -2.092653327206
    H           -3.355606858241     0.433881719041    -1.467103674543
    C            1.636657762443     0.533525202802    -0.572859911291
    H            0.638684165738     0.849027315505    -0.879838860944
    H            2.164989226824     1.441977454326    -0.271148536487
    C           -1.636655377204    -0.533526243413    -0.572854518115
    H           -2.164976267221    -1.441981929357    -0.271136564131
    H           -0.638681773867    -0.849020487606    -0.879839471692
    C            1.555200035307    -0.401324478591     0.631468167719
    H            2.578881665059    -0.606322339402     0.957711100245
    H            1.140123828542    -1.366829157019     0.325245530026
    C            0.750111124585     0.153027744025     1.812175503748
    H            0.891930347351     1.237866633265     1.859229861396
    H            1.163410516538    -0.246944863222     2.741278130442
    C           -0.750104819180    -0.153018552062     1.812177794560
    H           -0.891923627034    -1.237857140728     1.859236586898
    H           -1.163402283867     0.246957529295     2.741279687807
    C           -1.555196787360     0.401328053243     0.631469880027
    H           -2.578877835959     0.606325301875     0.957714257225
    H           -1.140123477841     1.366832076166     0.325242592225

	Cleaning optimization helper files.

*** Psi4 exiting successfully. Buy a developer a beer!
