    -----------------------------------------------------------------------
          Psi4: An Open-Source Ab Initio Electronic Structure Package
                              Psi4 1.0.0 Driver

                          Git: Rev {master} 6a9a71b dirty

    J. M. Turney, A. C. Simmonett, R. M. Parrish, E. G. Hohenstein,
    F. A. Evangelista, J. T. Fermann, B. J. Mintz, L. A. Burns, J. J. Wilke,
    M. L. Abrams, N. J. Russ, M. L. Leininger, C. L. Janssen, E. T. Seidl,
    W. D. Allen, H. F. Schaefer, R. A. King, E. F. Valeev, C. D. Sherrill,
    and T. D. Crawford, WIREs Comput. Mol. Sci. 2, 556-565 (2012)
    (doi: 10.1002/wcms.93)

                         Additional Contributions by
    A. E. DePrince, U. Bozkaya, A. Yu. Sokolov, D. G. A. Smith, R. Di Remigio,
    R. M. Richard, J. F. Gonthier, H. R. McAlexander, M. Saitow, and
    B. P. Pritchard
    -----------------------------------------------------------------------


    Psi4 started on: Wed Sep 21 04:57:33 2016

    Process ID:  35588
    PSI4DATADIR: /usr/local/hpc5/psi4conda/share/psi4
    Memory level set to 256.000 MB

  ==> Input File <==

--------------------------------------------------------------------------
memory 60 Gb

molecule molecule_78_psi {
0 1
C           -4.039254839129    -0.267972426639     0.478882907519
H           -4.350748077490    -0.773005552864    -0.436407337881
H           -4.454869743166     0.740240906749     0.458827663321
H           -4.483198791474    -0.797764967790     1.321328555944
C            4.039255624325     0.267970521989     0.478869465941
H            4.483201112402     0.797761393238     1.321314954129
H            4.350748888202     0.773003579285    -0.436420209263
H            4.454868098856    -0.740243289887     0.458813268051
C           -2.519257964514    -0.224152434754     0.578719456095
H           -2.129740479706    -1.242568094633     0.632008744897
H           -2.222918477778     0.272113494492     1.507528129993
C            2.519258868324     0.224153361985     0.578706946084
H            2.222919117876    -0.272111709812     1.507515468171
H            2.129743723231     1.242569433872     0.631995228468
C           -1.888694275107     0.510136622055    -0.599357245715
H           -2.347958965582     1.499767582746    -0.680794509391
H           -2.131961902578    -0.021797548061    -1.525108859822
C           -0.373920232491     0.665244022192    -0.489416321069
H           -0.141050155682     1.223866629170     0.421118178757
H           -0.011235145905     1.269377152701    -1.327036758182
C            0.373919404824    -0.665243890791    -0.489422164801
H            0.141054285772    -1.223872475699     0.421109664555
H            0.011230630651    -1.269371957585    -1.327044285237
C            1.888693374437    -0.510135617189    -0.599369011699
H            2.347958387565    -1.499765655498    -0.680808560990
H            2.131957963115     0.021799188198    -1.525120306494
}

set globals {
  reference rhf
  g_convergence gau_verytight
  basis aug-cc-pvtz
  freeze_core true
  scf_type df
  mp_type df
}
optimize('mp2')
--------------------------------------------------------------------------
/usr/local/hpc5/psi4conda/lib/python2.7/site-packages/v2rdm_casscf/v2rdm_casscf.so loaded.

  Memory set to  60.000 GiB by Python script.
gradient() will perform analytic gradient computation.

*** tstart() called on wr36
*** at Wed Sep 21 04:57:34 2016


         ---------------------------------------------------------
                                   SCF
            by Justin Turney, Rob Parrish, and Andy Simmonett
                              RHF Reference
                       12 Threads,  60000 MiB Core
         ---------------------------------------------------------

  ==> Geometry <==

    Molecular point group: c1
    Full point group: C1

    Geometry (in Angstrom), charge = 0, multiplicity = 1:

       Center              X                  Y                   Z               Mass       
    ------------   -----------------  -----------------  -----------------  -----------------
           C         -4.039254839129    -0.267972426639     0.478882907519    12.000000000000
           H         -4.350748077490    -0.773005552864    -0.436407337881     1.007825032070
           H         -4.454869743166     0.740240906749     0.458827663321     1.007825032070
           H         -4.483198791474    -0.797764967790     1.321328555944     1.007825032070
           C          4.039255624325     0.267970521989     0.478869465941    12.000000000000
           H          4.483201112402     0.797761393238     1.321314954129     1.007825032070
           H          4.350748888202     0.773003579285    -0.436420209263     1.007825032070
           H          4.454868098856    -0.740243289887     0.458813268051     1.007825032070
           C         -2.519257964514    -0.224152434754     0.578719456095    12.000000000000
           H         -2.129740479706    -1.242568094633     0.632008744897     1.007825032070
           H         -2.222918477778     0.272113494492     1.507528129993     1.007825032070
           C          2.519258868324     0.224153361985     0.578706946084    12.000000000000
           H          2.222919117876    -0.272111709812     1.507515468171     1.007825032070
           H          2.129743723231     1.242569433872     0.631995228468     1.007825032070
           C         -1.888694275107     0.510136622055    -0.599357245715    12.000000000000
           H         -2.347958965582     1.499767582746    -0.680794509391     1.007825032070
           H         -2.131961902578    -0.021797548061    -1.525108859822     1.007825032070
           C         -0.373920232491     0.665244022192    -0.489416321069    12.000000000000
           H         -0.141050155682     1.223866629170     0.421118178757     1.007825032070
           H         -0.011235145905     1.269377152701    -1.327036758182     1.007825032070
           C          0.373919404824    -0.665243890791    -0.489422164801    12.000000000000
           H          0.141054285772    -1.223872475699     0.421109664555     1.007825032070
           H          0.011230630651    -1.269371957585    -1.327044285237     1.007825032070
           C          1.888693374437    -0.510135617189    -0.599369011699    12.000000000000
           H          2.347958387565    -1.499765655498    -0.680808560990     1.007825032070
           H          2.131957963115     0.021799188198    -1.525120306494     1.007825032070

  Running in c1 symmetry.

  Rotational constants: A =      0.19991  B =      0.02035  C =      0.02011 [cm^-1]
  Rotational constants: A =   5993.11862  B =    610.06749  C =    602.80298 [MHz]
  Nuclear repulsion =  386.663163597187008

  Charge       = 0
  Multiplicity = 1
  Electrons    = 66
  Nalpha       = 33
  Nbeta        = 33

  ==> Algorithm <==

  SCF Algorithm Type is DF.
  DIIS enabled.
  MOM disabled.
  Fractional occupation disabled.
  Guess Type is SAD.
  Energy threshold   = 1.00e-10
  Density threshold  = 1.00e-10
  Integral threshold = 0.00e+00

  ==> Primary Basis <==

  Basis Set: AUG-CC-PVTZ
    Number of shells: 274
    Number of basis function: 782
    Number of Cartesian functions: 890
    Spherical Harmonics?: true
    Max angular momentum: 3

  ==> Pre-Iterations <==

   -------------------------------------------------------
    Irrep   Nso     Nmo     Nalpha   Nbeta   Ndocc  Nsocc
   -------------------------------------------------------
     A        782     782       0       0       0       0
   -------------------------------------------------------
    Total     782     782      33      33      33       0
   -------------------------------------------------------

  ==> Integral Setup <==

  ==> DFJK: Density-Fitted J/K Matrices <==

    J tasked:                  Yes
    K tasked:                  Yes
    wK tasked:                  No
    OpenMP threads:             12
    Integrals threads:          12
    Memory (MB):             42915
    Algorithm:                Core
    Integral Cache:           NONE
    Schwarz Cutoff:          1E-12
    Fitting Condition:       1E-12

   => Auxiliary Basis Set <=

  Basis Set: 
    Number of shells: 492
    Number of basis function: 1660
    Number of Cartesian functions: 2038
    Spherical Harmonics?: true
    Max angular momentum: 4

  Minimum eigenvalue in the overlap matrix is 1.7289543908E-06.
  Using Symmetric Orthogonalization.
  SCF Guess: Superposition of Atomic Densities via on-the-fly atomic UHF.

  ==> Iterations <==

                           Total Energy        Delta E     RMS |[F,P]|

   @DF-RHF iter   0:  -316.57925551856033   -3.16579e+02   6.81589e-03 
   @DF-RHF iter   1:  -313.25540108043378    3.32385e+00   8.12660e-04 
   @DF-RHF iter   2:  -313.50035226454838   -2.44951e-01   3.20440e-04 DIIS
   @DF-RHF iter   3:  -313.53795881198573   -3.76065e-02   1.03068e-04 DIIS
   @DF-RHF iter   4:  -313.54374077375326   -5.78196e-03   1.66724e-05 DIIS
   @DF-RHF iter   5:  -313.54391390567878   -1.73132e-04   5.26474e-06 DIIS
   @DF-RHF iter   6:  -313.54392849151213   -1.45858e-05   1.29493e-06 DIIS
   @DF-RHF iter   7:  -313.54392959838083   -1.10687e-06   2.57244e-07 DIIS
   @DF-RHF iter   8:  -313.54392964002602   -4.16452e-08   8.24070e-08 DIIS
   @DF-RHF iter   9:  -313.54392964331646   -3.29044e-09   1.85567e-08 DIIS
   @DF-RHF iter  10:  -313.54392964352724   -2.10775e-10   4.50550e-09 DIIS
   @DF-RHF iter  11:  -313.54392964354270   -1.54614e-11   9.31797e-10 DIIS
   @DF-RHF iter  12:  -313.54392964354372   -1.02318e-12   2.67510e-10 DIIS
   @DF-RHF iter  13:  -313.54392964354327    4.54747e-13   8.36904e-11 DIIS

  ==> Post-Iterations <==

    Orbital Energies (a.u.)
    -----------------------

    Doubly Occupied:                                                      

       1A    -11.211854     2A    -11.211854     3A    -11.210521  
       4A    -11.210354     5A    -11.209924     6A    -11.209469  
       7A    -11.206856     8A    -11.206856     9A     -1.094283  
      10A     -1.060935    11A     -1.009518    12A     -0.950122  
      13A     -0.873459    14A     -0.831389    15A     -0.793756  
      16A     -0.759074    17A     -0.644034    18A     -0.629178  
      19A     -0.606974    20A     -0.594865    21A     -0.573879  
      22A     -0.564151    23A     -0.550974    24A     -0.530530  
      25A     -0.510866    26A     -0.494762    27A     -0.493011  
      28A     -0.474650    29A     -0.467365    30A     -0.461531  
      31A     -0.444427    32A     -0.439265    33A     -0.437409  

    Virtual:                                                              

      34A      0.031094    35A      0.032239    36A      0.034937  
      37A      0.035715    38A      0.044334    39A      0.048034  
      40A      0.048446    41A      0.055100    42A      0.055246  
      43A      0.065521    44A      0.065559    45A      0.066762  
      46A      0.073711    47A      0.080994    48A      0.087608  
      49A      0.088972    50A      0.099779    51A      0.107330  
      52A      0.111741    53A      0.116002    54A      0.119794  
      55A      0.120403    56A      0.122146    57A      0.125797  
      58A      0.136103    59A      0.140014    60A      0.140249  
      61A      0.143116    62A      0.147445    63A      0.153706  
      64A      0.155299    65A      0.155728    66A      0.160932  
      67A      0.162117    68A      0.168040    69A      0.171763  
      70A      0.173142    71A      0.176737    72A      0.181543  
      73A      0.191153    74A      0.197016    75A      0.206920  
      76A      0.209072    77A      0.217311    78A      0.223274  
      79A      0.231929    80A      0.237765    81A      0.244523  
      82A      0.259377    83A      0.262194    84A      0.264595  
      85A      0.265546    86A      0.269688    87A      0.271184  
      88A      0.273741    89A      0.278933    90A      0.282635  
      91A      0.284734    92A      0.303427    93A      0.303556  
      94A      0.306896    95A      0.317001    96A      0.317234  
      97A      0.323155    98A      0.332285    99A      0.332755  
     100A      0.336290   101A      0.342578   102A      0.345453  
     103A      0.346007   104A      0.355038   105A      0.355275  
     106A      0.356215   107A      0.360398   108A      0.364201  
     109A      0.365743   110A      0.373340   111A      0.375617  
     112A      0.376643   113A      0.380039   114A      0.385236  
     115A      0.390547   116A      0.391810   117A      0.395926  
     118A      0.399206   119A      0.401510   120A      0.401832  
     121A      0.413320   122A      0.415991   123A      0.416949  
     124A      0.420717   125A      0.431175   126A      0.434411  
     127A      0.438116   128A      0.442804   129A      0.443305  
     130A      0.450786   131A      0.451270   132A      0.456538  
     133A      0.458408   134A      0.462022   135A      0.469465  
     136A      0.475837   137A      0.476422   138A      0.478674  
     139A      0.483672   140A      0.485534   141A      0.487532  
     142A      0.490961   143A      0.491297   144A      0.497374  
     145A      0.500553   146A      0.505613   147A      0.507418  
     148A      0.515877   149A      0.517485   150A      0.520975  
     151A      0.521643   152A      0.523956   153A      0.528919  
     154A      0.531153   155A      0.534472   156A      0.547140  
     157A      0.550766   158A      0.555003   159A      0.557575  
     160A      0.568690   161A      0.569559   162A      0.570981  
     163A      0.572459   164A      0.575887   165A      0.579073  
     166A      0.580122   167A      0.586327   168A      0.587750  
     169A      0.594072   170A      0.614841   171A      0.615670  
     172A      0.627988   173A      0.628010   174A      0.631125  
     175A      0.633696   176A      0.637709   177A      0.640868  
     178A      0.645119   179A      0.654523   180A      0.666165  
     181A      0.666676   182A      0.669317   183A      0.670731  
     184A      0.684782   185A      0.686844   186A      0.698118  
     187A      0.700523   188A      0.701847   189A      0.710506  
     190A      0.715437   191A      0.721031   192A      0.728591  
     193A      0.730661   194A      0.740525   195A      0.747769  
     196A      0.767002   197A      0.784725   198A      0.787944  
     199A      0.794037   200A      0.799114   201A      0.810409  
     202A      0.810716   203A      0.811361   204A      0.825471  
     205A      0.827827   206A      0.835514   207A      0.840201  
     208A      0.844435   209A      0.848567   210A      0.854376  
     211A      0.865761   212A      0.868851   213A      0.871469  
     214A      0.874460   215A      0.879038   216A      0.881940  
     217A      0.884521   218A      0.895338   219A      0.901859  
     220A      0.910568   221A      0.912957   222A      0.917991  
     223A      0.918838   224A      0.927161   225A      0.927507  
     226A      0.934823   227A      0.936404   228A      0.940423  
     229A      0.942501   230A      0.951367   231A      0.952111  
     232A      0.958464   233A      0.961845   234A      0.968107  
     235A      0.968866   236A      0.971045   237A      0.986879  
     238A      0.989926   239A      0.997794   240A      1.001526  
     241A      1.008430   242A      1.010164   243A      1.010883  
     244A      1.023576   245A      1.029412   246A      1.032944  
     247A      1.033989   248A      1.041258   249A      1.051891  
     250A      1.055740   251A      1.057398   252A      1.061902  
     253A      1.068984   254A      1.078826   255A      1.084789  
     256A      1.085477   257A      1.091934   258A      1.103188  
     259A      1.105635   260A      1.106874   261A      1.117568  
     262A      1.120874   263A      1.120876   264A      1.130076  
     265A      1.131570   266A      1.134740   267A      1.136568  
     268A      1.138421   269A      1.141270   270A      1.153396  
     271A      1.156434   272A      1.157178   273A      1.168224  
     274A      1.176221   275A      1.182065   276A      1.185499  
     277A      1.189451   278A      1.194535   279A      1.202857  
     280A      1.204303   281A      1.212814   282A      1.220151  
     283A      1.225675   284A      1.227406   285A      1.236188  
     286A      1.239979   287A      1.247001   288A      1.254625  
     289A      1.260993   290A      1.262416   291A      1.268085  
     292A      1.274240   293A      1.275084   294A      1.286178  
     295A      1.295347   296A      1.297387   297A      1.298782  
     298A      1.308277   299A      1.312118   300A      1.319063  
     301A      1.322214   302A      1.331192   303A      1.336169  
     304A      1.342955   305A      1.352255   306A      1.355683  
     307A      1.360473   308A      1.367424   309A      1.371875  
     310A      1.372586   311A      1.386606   312A      1.395400  
     313A      1.403291   314A      1.415525   315A      1.424029  
     316A      1.429874   317A      1.438356   318A      1.449831  
     319A      1.450626   320A      1.458751   321A      1.471041  
     322A      1.473078   323A      1.477779   324A      1.485873  
     325A      1.497146   326A      1.516051   327A      1.516669  
     328A      1.530149   329A      1.531081   330A      1.538065  
     331A      1.543820   332A      1.549456   333A      1.556197  
     334A      1.568691   335A      1.575117   336A      1.588915  
     337A      1.590094   338A      1.600281   339A      1.614431  
     340A      1.622233   341A      1.626204   342A      1.632826  
     343A      1.638252   344A      1.643029   345A      1.647851  
     346A      1.650757   347A      1.662244   348A      1.662510  
     349A      1.672044   350A      1.676465   351A      1.680127  
     352A      1.684222   353A      1.690811   354A      1.696356  
     355A      1.698841   356A      1.701995   357A      1.711252  
     358A      1.724358   359A      1.726151   360A      1.738095  
     361A      1.741382   362A      1.749631   363A      1.751336  
     364A      1.758617   365A      1.768659   366A      1.770431  
     367A      1.771986   368A      1.774635   369A      1.778892  
     370A      1.785727   371A      1.787510   372A      1.795295  
     373A      1.800170   374A      1.808751   375A      1.810692  
     376A      1.815968   377A      1.816381   378A      1.833668  
     379A      1.837994   380A      1.841086   381A      1.842770  
     382A      1.860250   383A      1.863382   384A      1.868994  
     385A      1.880480   386A      1.887553   387A      1.891090  
     388A      1.894419   389A      1.898882   390A      1.915431  
     391A      1.918208   392A      1.928296   393A      1.934182  
     394A      1.939865   395A      1.956534   396A      1.963955  
     397A      1.964976   398A      1.968033   399A      1.980473  
     400A      1.980527   401A      1.993985   402A      1.999958  
     403A      2.005351   404A      2.019751   405A      2.027110  
     406A      2.027903   407A      2.030570   408A      2.035476  
     409A      2.044840   410A      2.054475   411A      2.061790  
     412A      2.076629   413A      2.082011   414A      2.091691  
     415A      2.093764   416A      2.095118   417A      2.097867  
     418A      2.115612   419A      2.116194   420A      2.121498  
     421A      2.131508   422A      2.140180   423A      2.144046  
     424A      2.147298   425A      2.149111   426A      2.151802  
     427A      2.177345   428A      2.186256   429A      2.200435  
     430A      2.204399   431A      2.204422   432A      2.219479  
     433A      2.233162   434A      2.241823   435A      2.248032  
     436A      2.263288   437A      2.265629   438A      2.274145  
     439A      2.275832   440A      2.278973   441A      2.304577  
     442A      2.313257   443A      2.313842   444A      2.330498  
     445A      2.336475   446A      2.346786   447A      2.353530  
     448A      2.359006   449A      2.363978   450A      2.377053  
     451A      2.385623   452A      2.401215   453A      2.406767  
     454A      2.415777   455A      2.426451   456A      2.431782  
     457A      2.450443   458A      2.456881   459A      2.481734  
     460A      2.494443   461A      2.503952   462A      2.513125  
     463A      2.522513   464A      2.533004   465A      2.535627  
     466A      2.542435   467A      2.563096   468A      2.577941  
     469A      2.597186   470A      2.601021   471A      2.610974  
     472A      2.624240   473A      2.654995   474A      2.675190  
     475A      2.694561   476A      2.704925   477A      2.717754  
     478A      2.718933   479A      2.764358   480A      2.774609  
     481A      2.779817   482A      2.786052   483A      2.815878  
     484A      2.817956   485A      2.897386   486A      2.910213  
     487A      3.015139   488A      3.025368   489A      3.027612  
     490A      3.097379   491A      3.159891   492A      3.161890  
     493A      3.286309   494A      3.313198   495A      3.330416  
     496A      3.404143   497A      3.407603   498A      3.461099  
     499A      3.463408   500A      3.479927   501A      3.483087  
     502A      3.495237   503A      3.504065   504A      3.511155  
     505A      3.532865   506A      3.543080   507A      3.546819  
     508A      3.556862   509A      3.568223   510A      3.578425  
     511A      3.590920   512A      3.599658   513A      3.604388  
     514A      3.610528   515A      3.619769   516A      3.628554  
     517A      3.637319   518A      3.649866   519A      3.653971  
     520A      3.683951   521A      3.688526   522A      3.704960  
     523A      3.707637   524A      3.714899   525A      3.726739  
     526A      3.732249   527A      3.744746   528A      3.752277  
     529A      3.752988   530A      3.766243   531A      3.772751  
     532A      3.782230   533A      3.784225   534A      3.794999  
     535A      3.805312   536A      3.809881   537A      3.817169  
     538A      3.822904   539A      3.839584   540A      3.851698  
     541A      3.879186   542A      3.879416   543A      3.886711  
     544A      3.891560   545A      3.905478   546A      3.907016  
     547A      3.914891   548A      3.917471   549A      3.931508  
     550A      3.942943   551A      3.943234   552A      3.953787  
     553A      3.960601   554A      3.968512   555A      3.980258  
     556A      3.982479   557A      3.982970   558A      3.997745  
     559A      4.004437   560A      4.015125   561A      4.016751  
     562A      4.020020   563A      4.025791   564A      4.037010  
     565A      4.044786   566A      4.048438   567A      4.058030  
     568A      4.065389   569A      4.070034   570A      4.072876  
     571A      4.077674   572A      4.097961   573A      4.098650  
     574A      4.108621   575A      4.111331   576A      4.130956  
     577A      4.146151   578A      4.149034   579A      4.153627  
     580A      4.168025   581A      4.182477   582A      4.194064  
     583A      4.197065   584A      4.206401   585A      4.226367  
     586A      4.235702   587A      4.240542   588A      4.259094  
     589A      4.262702   590A      4.271760   591A      4.276123  
     592A      4.291748   593A      4.297695   594A      4.306175  
     595A      4.307736   596A      4.324469   597A      4.325201  
     598A      4.341573   599A      4.343399   600A      4.358225  
     601A      4.367394   602A      4.379507   603A      4.379575  
     604A      4.406247   605A      4.407465   606A      4.422269  
     607A      4.442971   608A      4.445034   609A      4.458390  
     610A      4.461287   611A      4.482406   612A      4.517595  
     613A      4.526573   614A      4.554038   615A      4.558558  
     616A      4.564738   617A      4.596742   618A      4.598165  
     619A      4.610164   620A      4.619781   621A      4.637131  
     622A      4.661900   623A      4.668751   624A      4.679518  
     625A      4.691604   626A      4.698829   627A      4.710441  
     628A      4.717049   629A      4.719560   630A      4.726769  
     631A      4.741245   632A      4.747203   633A      4.760925  
     634A      4.769173   635A      4.794150   636A      4.798672  
     637A      4.798754   638A      4.816246   639A      4.818731  
     640A      4.825087   641A      4.843423   642A      4.846134  
     643A      4.855523   644A      4.858118   645A      4.861298  
     646A      4.882993   647A      4.885402   648A      4.889360  
     649A      4.893345   650A      4.913514   651A      4.923323  
     652A      4.941831   653A      4.952898   654A      4.987754  
     655A      5.006921   656A      5.013038   657A      5.016864  
     658A      5.036197   659A      5.039379   660A      5.047923  
     661A      5.056123   662A      5.069794   663A      5.072309  
     664A      5.090480   665A      5.126870   666A      5.130561  
     667A      5.137322   668A      5.140894   669A      5.154432  
     670A      5.169048   671A      5.174865   672A      5.191831  
     673A      5.193841   674A      5.213832   675A      5.228640  
     676A      5.246482   677A      5.247913   678A      5.266700  
     679A      5.274819   680A      5.281972   681A      5.306223  
     682A      5.314270   683A      5.328349   684A      5.345574  
     685A      5.352018   686A      5.358397   687A      5.358626  
     688A      5.382175   689A      5.385983   690A      5.407344  
     691A      5.422036   692A      5.422729   693A      5.429827  
     694A      5.441882   695A      5.449673   696A      5.462591  
     697A      5.466598   698A      5.472852   699A      5.486399  
     700A      5.496897   701A      5.505834   702A      5.527798  
     703A      5.546553   704A      5.549111   705A      5.562861  
     706A      5.570184   707A      5.589267   708A      5.594984  
     709A      5.624175   710A      5.626316   711A      5.637476  
     712A      5.664428   713A      5.678691   714A      5.691641  
     715A      5.703425   716A      5.712016   717A      5.714908  
     718A      5.721304   719A      5.747051   720A      5.754158  
     721A      5.757862   722A      5.762138   723A      5.778122  
     724A      5.790136   725A      5.793834   726A      5.807211  
     727A      5.835949   728A      5.838398   729A      5.878402  
     730A      5.885795   731A      5.921892   732A      5.946414  
     733A      5.959387   734A      5.984311   735A      6.003557  
     736A      6.004017   737A      6.058504   738A      6.071327  
     739A      6.116186   740A      6.118807   741A      6.138027  
     742A      6.140336   743A      6.186573   744A      6.199599  
     745A      6.208896   746A      6.221323   747A      6.223302  
     748A      6.238614   749A      6.263315   750A      6.281524  
     751A      6.281854   752A      6.303262   753A      6.319782  
     754A      6.322131   755A      6.362156   756A      6.364155  
     757A      6.403746   758A      6.434672   759A      6.556645  
     760A      6.572204   761A      6.658392   762A      6.689876  
     763A      6.721051   764A      6.750301   765A      6.781761  
     766A      6.791597   767A      6.866471   768A      6.886114  
     769A      6.894107   770A      6.902662   771A      6.917410  
     772A      7.066574   773A      7.071687   774A      7.100667  
     775A     18.011236   776A     18.091684   777A     18.173334  
     778A     18.528320   779A     18.578869   780A     18.711222  
     781A     19.169669   782A     19.674920  

    Final Occupation by Irrep:
              A 
    DOCC [    33 ]

  Energy converged.

  @DF-RHF Final Energy:  -313.54392964354327

   => Energetics <=

    Nuclear Repulsion Energy =            386.6631635971870082
    One-Electron Energy =               -1188.4779917572816430
    Two-Electron Energy =                 488.2708985165512559
    DFT Exchange-Correlation Energy =       0.0000000000000000
    Empirical Dispersion Energy =           0.0000000000000000
    PCM Polarization Energy =               0.0000000000000000
    EFP Energy =                            0.0000000000000000
    Total Energy =                       -313.5439296435433789


  Saving occupied orbitals to File 180.

*** tstop() called on wr36 at Wed Sep 21 04:58:55 2016
Module time:
	user time   =     848.19 seconds =      14.14 minutes
	system time =      10.53 seconds =       0.18 minutes
	total time  =         81 seconds =       1.35 minutes
Total time:
	user time   =     848.19 seconds =      14.14 minutes
	system time =      10.53 seconds =       0.18 minutes
	total time  =         81 seconds =       1.35 minutes


Properties will be evaluated at   0.000000,   0.000000,   0.000000 Bohr

Properties computed using the SCF density matrix

  Nuclear Dipole Moment: (a.u.)
     X:     0.0000      Y:    -0.0000      Z:     0.6964

  Electronic Dipole Moment: (a.u.)
     X:    -0.0000      Y:     0.0000      Z:    -0.6813

  Dipole Moment: (a.u.)
     X:     0.0000      Y:     0.0000      Z:     0.0151     Total:     0.0151

  Dipole Moment: (Debye)
     X:     0.0000      Y:     0.0000      Z:     0.0384     Total:     0.0384


  //>>>>>>>>>>>>>>>>>>>>>>>>>>>>>>>>>>>//
  //               DFMP2               //
  //<<<<<<<<<<<<<<<<<<<<<<<<<<<<<<<<<<<//


*** tstart() called on wr36
*** at Wed Sep 21 04:58:56 2016


*** tstop() called on wr36 at Wed Sep 21 04:58:56 2016
Module time:
	user time   =       4.27 seconds =       0.07 minutes
	system time =       0.20 seconds =       0.00 minutes
	total time  =          0 seconds =       0.00 minutes
Total time:
	user time   =     853.03 seconds =      14.22 minutes
	system time =      10.76 seconds =       0.18 minutes
	total time  =         82 seconds =       1.37 minutes
	 --------------------------------------------------------
	                          DF-MP2                         
	      2nd-Order Density-Fitted Moller-Plesset Theory     
	              RMP2 Wavefunction,  12 Threads             
	                                                         
	        Rob Parrish, Justin Turney, Andy Simmonett,      
	           Ed Hohenstein, and C. David Sherrill          
	 --------------------------------------------------------

   => Auxiliary Basis Set <=

  Basis Set: 
    Number of shells: 476
    Number of basis function: 1676
    Number of Cartesian functions: 2078
    Spherical Harmonics?: true
    Max angular momentum: 4

	 --------------------------------------------------------
	                 NBF =   782, NAUX =  1676
	 --------------------------------------------------------
	   CLASS    FOCC     OCC    AOCC    AVIR     VIR    FVIR
	   PAIRS       8      33      25     749     749       0
	 --------------------------------------------------------

DGAS Warning! /src/lib/libfock/apps.cc:80 is not currently checking restricted

         ------------------------------------------------------------
                                     CPHF                           
                                  Rob Parrish                       
         ------------------------------------------------------------

  ==> Geometry <==

    Molecular point group: c1
    Full point group: C1

    Geometry (in Angstrom), charge = 0, multiplicity = 1:

       Center              X                  Y                   Z               Mass       
    ------------   -----------------  -----------------  -----------------  -----------------
           C         -4.039254839129    -0.267972426639     0.478882907519    12.000000000000
           H         -4.350748077490    -0.773005552864    -0.436407337881     1.007825032070
           H         -4.454869743166     0.740240906749     0.458827663321     1.007825032070
           H         -4.483198791474    -0.797764967790     1.321328555944     1.007825032070
           C          4.039255624325     0.267970521989     0.478869465941    12.000000000000
           H          4.483201112402     0.797761393238     1.321314954129     1.007825032070
           H          4.350748888202     0.773003579285    -0.436420209263     1.007825032070
           H          4.454868098856    -0.740243289887     0.458813268051     1.007825032070
           C         -2.519257964514    -0.224152434754     0.578719456095    12.000000000000
           H         -2.129740479706    -1.242568094633     0.632008744897     1.007825032070
           H         -2.222918477778     0.272113494492     1.507528129993     1.007825032070
           C          2.519258868324     0.224153361985     0.578706946084    12.000000000000
           H          2.222919117876    -0.272111709812     1.507515468171     1.007825032070
           H          2.129743723231     1.242569433872     0.631995228468     1.007825032070
           C         -1.888694275107     0.510136622055    -0.599357245715    12.000000000000
           H         -2.347958965582     1.499767582746    -0.680794509391     1.007825032070
           H         -2.131961902578    -0.021797548061    -1.525108859822     1.007825032070
           C         -0.373920232491     0.665244022192    -0.489416321069    12.000000000000
           H         -0.141050155682     1.223866629170     0.421118178757     1.007825032070
           H         -0.011235145905     1.269377152701    -1.327036758182     1.007825032070
           C          0.373919404824    -0.665243890791    -0.489422164801    12.000000000000
           H          0.141054285772    -1.223872475699     0.421109664555     1.007825032070
           H          0.011230630651    -1.269371957585    -1.327044285237     1.007825032070
           C          1.888693374437    -0.510135617189    -0.599369011699    12.000000000000
           H          2.347958387565    -1.499765655498    -0.680808560990     1.007825032070
           H          2.131957963115     0.021799188198    -1.525120306494     1.007825032070

  Nuclear repulsion =  386.663163597187008
  Reference energy  = -313.543929643543265

  ==> Basis Set <==

  Basis Set: AUG-CC-PVTZ
    Number of shells: 274
    Number of basis function: 782
    Number of Cartesian functions: 890
    Spherical Harmonics?: true
    Max angular momentum: 3

  ==> CGRSolver (by Rob Parrish) <==

   Number of roots    =         1
   Preconditioning    =    JACOBI
   Convergence cutoff =     1E-06
   Maximum iterations =       100

  ==> CPHFRHamiltonian (by Rob Parrish) <== 

  ==> DFJK: Density-Fitted J/K Matrices <==

    J tasked:                  Yes
    K tasked:                  Yes
    wK tasked:                  No
    OpenMP threads:             12
    Integrals threads:          12
    Memory (MB):             42915
    Algorithm:                Core
    Integral Cache:           NONE
    Schwarz Cutoff:          1E-12
    Fitting Condition:       1E-12

   => Auxiliary Basis Set <=

  Basis Set: 
    Number of shells: 492
    Number of basis function: 1660
    Number of Cartesian functions: 2038
    Spherical Harmonics?: true
    Max angular momentum: 4

  ==> CPHF Iterations <==

  => Iterations <=

             Iter  Converged  Remaining    Residual
  CGR           1          0          1   8.884E-02
  CGR           2          0          1   1.250E-02
  CGR           3          0          1   3.289E-03
  CGR           4          0          1   8.098E-04
  CGR           5          0          1   1.546E-04
  CGR           6          0          1   3.720E-05
  CGR           7          0          1   1.079E-05
  CGR           8          0          1   2.762E-06
  CGR           9          1          0   6.620E-07

    CGRSolver converged.

  ==> DFCorrGrad: Density-Fitted Correlated Gradients <==

    OpenMP threads:             12
    Integrals threads:          12
    Memory (MB):             42915
    Schwarz Cutoff:          0E+00
    Fitting Condition:       1E-12

   => Auxiliary Basis Set <=

  Basis Set: 
    Number of shells: 492
    Number of basis function: 1660
    Number of Cartesian functions: 2038
    Spherical Harmonics?: true
    Max angular momentum: 4

	-----------------------------------------------------------
	 ==================> DF-MP2 Energies <==================== 
	-----------------------------------------------------------
	 Reference Energy          =    -313.5439296435432652 [Eh]
	 Singles Energy            =      -0.0000000000000004 [Eh]
	 Same-Spin Energy          =      -0.3155614719772142 [Eh]
	 Opposite-Spin Energy      =      -1.1243522019656660 [Eh]
	 Correlation Energy        =      -1.4399136739428806 [Eh]
	 Total Energy              =    -314.9838433174861621 [Eh]
	-----------------------------------------------------------
	 ================> DF-SCS-MP2 Energies <================== 
	-----------------------------------------------------------
	 SCS Same-Spin Scale       =       0.3333333333333333 [-]
	 SCS Opposite-Spin Scale   =       1.2000000000000000 [-]
	 SCS Same-Spin Energy      =      -0.1051871573257381 [Eh]
	 SCS Opposite-Spin Energy  =      -1.3492226423587992 [Eh]
	 SCS Correlation Energy    =      -1.4544097996845378 [Eh]
	 SCS Total Energy          =    -314.9983394432277919 [Eh]
	-----------------------------------------------------------


  -Total Gradient:
     Atom            X                  Y                   Z
    ------   -----------------  -----------------  -----------------
       1       -0.000000031252    -0.000000030474     0.000000092257
       2        0.000000029664     0.000000111859     0.000000170747
       3        0.000000049759    -0.000000204333    -0.000000002579
       4        0.000000067773     0.000000124825    -0.000000195111
       5        0.000000518567    -0.000000038355    -0.000000034180
       6       -0.000000218306    -0.000000310043    -0.000000478015
       7       -0.000000219690    -0.000000309360     0.000000591774
       8       -0.000000296649     0.000000649092     0.000000017647
       9        0.000000124735    -0.000000074058     0.000000113366
      10       -0.000000147073     0.000000511525     0.000000018656
      11       -0.000000052463    -0.000000293508    -0.000000520314
      12       -0.000000617853     0.000000509567     0.000000610034
      13        0.000000174474     0.000000386946    -0.000000931541
      14        0.000000353530    -0.000000837565    -0.000000077452
      15        0.000000100946    -0.000000068711     0.000000050136
      16        0.000000205529    -0.000000299901    -0.000000073654
      17        0.000000087714     0.000000171310     0.000000410766
      18        0.000000025348     0.000000467386    -0.000000055012
      19       -0.000000122351    -0.000000408631    -0.000000424162
      20       -0.000000143088    -0.000000204304     0.000000434015
      21       -0.000000457270    -0.000000460587     0.000000149781
      22        0.000000305087     0.000000417646    -0.000000713042
      23        0.000000274357     0.000000330667     0.000000708599
      24        0.000000493409    -0.000000397656    -0.000000646763
      25       -0.000000384398     0.000000787709    -0.000000105137
      26       -0.000000120502    -0.000000531047     0.000000889188


			-----------------------------------------
			 OPTKING 2.0: for geometry optimizations 
			  - R.A. King,  Bethel University        
			-----------------------------------------

	Internal coordinates to be generated automatically.
	Detected frag 1 with atoms:  1 2 3 4 5 6 7 8 9 10 11 12 13 14 15 16 17 18 19 20
	 21 22 23 24 25 26
	---Fragment 1 Bond Connectivity---
	 1 : 2 3 4 9
	 2 : 1
	 3 : 1
	 4 : 1
	 5 : 6 7 8 12
	 6 : 5
	 7 : 5
	 8 : 5
	 9 : 1 10 11 15
	 10 : 9
	 11 : 9
	 12 : 5 13 14 24
	 13 : 12
	 14 : 12
	 15 : 9 16 17 18
	 16 : 15
	 17 : 15
	 18 : 15 19 20 21
	 19 : 18
	 20 : 18
	 21 : 18 22 23 24
	 22 : 21
	 23 : 21
	 24 : 12 21 25 26
	 25 : 24
	 26 : 24

	---Fragment 1 Geometry and Gradient---
	 C          -7.6330854269       -0.5063944975        0.9049575449
	 H          -8.2217223396       -1.4607687941       -0.8246903510
	 H          -8.4184837723        1.3988525861        0.8670586259
	 H          -8.4720179152       -1.5075573075        2.4969491023
	 C           7.6330869107        0.5063908982        0.9049321440
	 H           8.4720223011        1.5075505526        2.4969233986
	 H           8.2217238717        1.4607650646       -0.8247146744
	 H           8.4184806650       -1.3988570896        0.8670314228
	 C          -4.7607076110       -0.4235867137        1.0936212798
	 H          -4.0246262408       -2.3481134003        1.1943234414
	 H          -4.2007071387        0.5142199817        2.8488153033
	 C           4.7607093190        0.4235884659        1.0935976393
	 H           4.2007083483       -0.5142166091        2.8487913759
	 H           4.0246323701        2.3481159311        1.1942978991
	 C          -3.5691149287        0.9640185060       -1.1326210502
	 H          -4.4369994162        2.8341499944       -1.2865151755
	 H          -4.0288241216       -0.0411913962       -2.8820380679
	 C          -0.7066068350        1.2571290135       -0.9248628118
	 H          -0.2665461652        2.3127727523        0.7957980274
	 H          -0.0212313488        2.3987751779       -2.5077360412
	 C           0.7066052709       -1.2571287652       -0.9248738548
	 H           0.2665539700       -2.3127838006        0.7957819379
	 H           0.0212228162       -2.3987653606       -2.5077502653
	 C           3.5691132267       -0.9640166071       -1.1326432846
	 H           4.4369983239       -2.8341463524       -1.2865417292
	 H           4.0288166771        0.0411944956       -2.8820596990
	            -0.0000000313       -0.0000000305        0.0000000923
	             0.0000000297        0.0000001119        0.0000001707
	             0.0000000498       -0.0000002043       -0.0000000026
	             0.0000000678        0.0000001248       -0.0000001951
	             0.0000005186       -0.0000000384       -0.0000000342
	            -0.0000002183       -0.0000003100       -0.0000004780
	            -0.0000002197       -0.0000003094        0.0000005918
	            -0.0000002966        0.0000006491        0.0000000176
	             0.0000001247       -0.0000000741        0.0000001134
	            -0.0000001471        0.0000005115        0.0000000187
	            -0.0000000525       -0.0000002935       -0.0000005203
	            -0.0000006179        0.0000005096        0.0000006100
	             0.0000001745        0.0000003869       -0.0000009315
	             0.0000003535       -0.0000008376       -0.0000000775
	             0.0000001009       -0.0000000687        0.0000000501
	             0.0000002055       -0.0000002999       -0.0000000737
	             0.0000000877        0.0000001713        0.0000004108
	             0.0000000253        0.0000004674       -0.0000000550
	            -0.0000001224       -0.0000004086       -0.0000004242
	            -0.0000001431       -0.0000002043        0.0000004340
	            -0.0000004573       -0.0000004606        0.0000001498
	             0.0000003051        0.0000004176       -0.0000007130
	             0.0000002744        0.0000003307        0.0000007086
	             0.0000004934       -0.0000003977       -0.0000006468
	            -0.0000003844        0.0000007877       -0.0000001051
	            -0.0000001205       -0.0000005310        0.0000008892

	Previous optimization step data not found.  Starting new optimization.

	---Fragment 1 Intrafragment Coordinates---
	 - Coordinate -           - BOHR/RAD -       - ANG/DEG -
	 R(1,2)           =         2.061312	       1.090799
	 R(1,3)           =         2.061129	       1.090703
	 R(1,4)           =         2.059265	       1.089716
	 R(1,9)           =         2.879758	       1.523902
	 R(5,6)           =         2.059264	       1.089716
	 R(5,7)           =         2.061311	       1.090799
	 R(5,8)           =         2.061128	       1.090702
	 R(5,12)          =         2.879758	       1.523902
	 R(9,10)          =         2.062949	       1.091666
	 R(9,11)          =         2.067314	       1.093976
	 R(9,15)          =         2.881232	       1.524682
	 R(12,13)         =         2.067313	       1.093975
	 R(12,14)         =         2.062948	       1.091665
	 R(12,24)         =         2.881232	       1.524682
	 R(15,16)         =         2.067438	       1.094041
	 R(15,17)         =         2.069357	       1.095057
	 R(15,18)         =         2.884966	       1.526658
	 R(18,19)         =         2.066086	       1.093326
	 R(18,20)         =         2.068474	       1.094589
	 R(18,21)         =         2.884209	       1.526258
	 R(21,22)         =         2.066085	       1.093325
	 R(21,23)         =         2.068473	       1.094589
	 R(21,24)         =         2.884967	       1.526659
	 R(24,25)         =         2.067437	       1.094040
	 R(24,26)         =         2.069356	       1.095056
	 B(1,9,10)        =         1.909504	     109.406502
	 B(1,9,11)        =         1.916497	     109.807179
	 B(1,9,15)        =         1.955990	     112.069975
	 B(2,1,3)         =         1.879406	     107.682006
	 B(2,1,4)         =         1.883114	     107.894481
	 B(2,1,9)         =         1.931699	     110.678175
	 B(3,1,4)         =         1.884288	     107.961766
	 B(3,1,9)         =         1.933390	     110.775070
	 B(4,1,9)         =         1.949463	     111.696024
	 B(5,12,13)       =         1.916497	     109.807181
	 B(5,12,14)       =         1.909503	     109.406484
	 B(5,12,24)       =         1.955990	     112.069964
	 B(6,5,7)         =         1.883114	     107.894483
	 B(6,5,8)         =         1.884288	     107.961770
	 B(6,5,12)        =         1.949463	     111.696031
	 B(7,5,8)         =         1.879406	     107.682025
	 B(7,5,12)        =         1.931698	     110.678164
	 B(8,5,12)        =         1.933389	     110.775052
	 B(9,15,16)       =         1.896044	     108.635308
	 B(9,15,17)       =         1.904338	     109.110526
	 B(9,15,18)       =         1.986286	     113.805826
	 B(10,9,11)       =         1.859905	     106.564713
	 B(10,9,15)       =         1.917115	     109.842618
	 B(11,9,15)       =         1.902351	     108.996658
	 B(12,24,21)      =         1.986285	     113.805720
	 B(12,24,25)      =         1.896044	     108.635346
	 B(12,24,26)      =         1.904338	     109.110536
	 B(13,12,14)      =         1.859906	     106.564772
	 B(13,12,24)      =         1.902350	     108.996631
	 B(14,12,24)      =         1.917115	     109.842617
	 B(15,18,19)      =         1.899926	     108.857746
	 B(15,18,20)      =         1.906816	     109.252494
	 B(15,18,21)      =         1.979697	     113.428269
	 B(16,15,17)      =         1.857942	     106.452261
	 B(16,15,18)      =         1.907076	     109.267381
	 B(17,15,18)      =         1.907793	     109.308494
	 B(18,21,22)      =         1.918823	     109.940446
	 B(18,21,23)      =         1.895235	     108.588989
	 B(18,21,24)      =         1.979697	     113.428264
	 B(19,18,20)      =         1.859515	     106.542358
	 B(19,18,21)      =         1.918822	     109.940404
	 B(20,18,21)      =         1.895235	     108.588974
	 B(21,24,25)      =         1.907076	     109.267402
	 B(21,24,26)      =         1.907794	     109.308550
	 B(22,21,23)      =         1.859515	     106.542339
	 B(22,21,24)      =         1.899925	     108.857708
	 B(23,21,24)      =         1.906816	     109.252499
	 B(25,24,26)      =         1.857942	     106.452247
	 D(1,9,15,16)     =         0.940386	      53.880136
	 D(1,9,15,17)     =        -1.078409	     -61.788302
	 D(1,9,15,18)     =         3.069066	     175.844523
	 D(2,1,9,10)      =        -1.092176	     -62.577083
	 D(2,1,9,11)      =        -3.127677	    -179.202693
	 D(2,1,9,15)      =         1.038604	      59.507609
	 D(3,1,9,10)      =         3.107652	     178.055370
	 D(3,1,9,11)      =         1.072152	      61.429760
	 D(3,1,9,15)      =        -1.044753	     -59.859938
	 D(4,1,9,10)      =         1.006417	      57.663427
	 D(4,1,9,11)      =        -1.029084	     -58.962183
	 D(4,1,9,15)      =         3.137196	     179.748119
	 D(5,12,24,21)    =         3.069062	     175.844294
	 D(5,12,24,25)    =         0.940382	      53.879923
	 D(5,12,24,26)    =        -1.078413	     -61.788524
	 D(6,5,12,13)     =        -1.029083	     -58.962133
	 D(6,5,12,14)     =         1.006419	      57.663538
	 D(6,5,12,24)     =         3.137198	     179.748209
	 D(7,5,12,13)     =        -3.127676	    -179.202641
	 D(7,5,12,14)     =        -1.092174	     -62.576970
	 D(7,5,12,24)     =         1.038605	      59.507701
	 D(8,5,12,13)     =         1.072152	      61.429807
	 D(8,5,12,14)     =         3.107654	     178.055478
	 D(8,5,12,24)     =        -1.044751	     -59.859851
	 D(9,15,18,19)    =        -1.037981	     -59.471959
	 D(9,15,18,20)    =        -3.062139	    -175.447622
	 D(9,15,18,21)    =         1.104167	      63.264124
	 D(10,9,15,16)    =         3.066815	     175.715581
	 D(10,9,15,17)    =         1.048020	      60.047144
	 D(10,9,15,18)    =        -1.087690	     -62.320032
	 D(11,9,15,16)    =        -1.184642	     -67.874987
	 D(11,9,15,17)    =         3.079748	     176.456575
	 D(11,9,15,18)    =         0.944038	      54.089400
	 D(12,24,21,18)   =         1.104162	      63.263799
	 D(12,24,21,22)   =        -1.037988	     -59.472305
	 D(12,24,21,23)   =        -3.062144	    -175.447926
	 D(13,12,24,21)   =         0.944035	      54.089194
	 D(13,12,24,25)   =        -1.184645	     -67.875176
	 D(13,12,24,26)   =         3.079745	     176.456376
	 D(14,12,24,21)   =        -1.087694	     -62.320292
	 D(14,12,24,25)   =         3.066811	     175.715338
	 D(14,12,24,26)   =         1.048016	      60.046890
	 D(15,18,21,22)   =        -1.167050	     -66.867020
	 D(15,18,21,23)   =         0.861094	      49.337040
	 D(15,18,21,24)   =         2.984458	     170.996842
	 D(16,15,18,19)   =         1.084587	      62.142230
	 D(16,15,18,20)   =        -0.939571	     -53.833433
	 D(16,15,18,21)   =        -3.056450	    -175.121688
	 D(17,15,18,19)   =         3.111397	     178.269922
	 D(17,15,18,20)   =         1.087240	      62.294259
	 D(17,15,18,21)   =        -1.029639	     -58.993995
	 D(18,21,24,25)   =        -3.056456	    -175.122020
	 D(18,21,24,26)   =        -1.029645	     -58.994300
	 D(19,18,21,22)   =         0.964628	      55.269142
	 D(19,18,21,23)   =         2.992772	     171.473202
	 D(19,18,21,24)   =        -1.167049	     -66.866997
	 D(20,18,21,22)   =         2.992772	     171.473193
	 D(20,18,21,23)   =        -1.262270	     -72.322747
	 D(20,18,21,24)   =         0.861094	      49.337054
	 D(22,21,24,25)   =         1.084580	      62.141876
	 D(22,21,24,26)   =         3.111391	     178.269596
	 D(23,21,24,25)   =        -0.939576	     -53.833745
	 D(23,21,24,26)   =         1.087235	      62.293975

	Current energy   :      -314.9838433175

	Generating empirical Hessian (Schlegel '84) for each fragment.
	Taking RFO optimization step.
	Going to follow RFO solution 1.
	Using RFO vector 1.
	Norm of target step-size    0.00009
	Projected energy change by RFO approximation:        -0.0000000001

	Back-transformation to cartesian coordinates...
	Successfully converged to displaced geometry.

	--- Internal Coordinate Step in ANG or DEG, aJ/ANG or AJ/DEG ---
	 ---------------------------------------------------------------------------
	   Coordinate                Previous        Force       Change         New 
	   ----------                --------       ------       ------       ------
	    1 R(1,2)          =      1.090799     0.000002     0.000000     1.090799
	    2 R(1,3)          =      1.090703     0.000002     0.000000     1.090703
	    3 R(1,4)          =      1.089716     0.000002     0.000000     1.089716
	    4 R(1,9)          =      1.523902     0.000001     0.000000     1.523902
	    5 R(5,6)          =      1.089716     0.000005     0.000001     1.089717
	    6 R(5,7)          =      1.090799     0.000006     0.000001     1.090800
	    7 R(5,8)          =      1.090702     0.000006     0.000001     1.090703
	    8 R(5,12)         =      1.523902     0.000002     0.000000     1.523902
	    9 R(9,10)         =      1.091666     0.000004     0.000001     1.091667
	   10 R(9,11)         =      1.093976     0.000005     0.000001     1.093976
	   11 R(9,15)         =      1.524682     0.000003     0.000001     1.524683
	   12 R(12,13)        =      1.093975     0.000008     0.000002     1.093977
	   13 R(12,14)        =      1.091665     0.000008     0.000001     1.091667
	   14 R(12,24)        =      1.524682     0.000003     0.000001     1.524683
	   15 R(15,16)        =      1.094041     0.000003     0.000001     1.094041
	   16 R(15,17)        =      1.095057     0.000004     0.000001     1.095057
	   17 R(15,18)        =      1.526658     0.000004     0.000001     1.526659
	   18 R(18,19)        =      1.093326     0.000005     0.000001     1.093326
	   19 R(18,20)        =      1.094589     0.000004     0.000001     1.094590
	   20 R(18,21)        =      1.526258     0.000002     0.000000     1.526258
	   21 R(21,22)        =      1.093325     0.000007     0.000001     1.093327
	   22 R(21,23)        =      1.094589     0.000007     0.000001     1.094590
	   23 R(21,24)        =      1.526659     0.000003     0.000001     1.526659
	   24 R(24,25)        =      1.094040     0.000007     0.000001     1.094042
	   25 R(24,26)        =      1.095056     0.000009     0.000002     1.095058
	   26 B(1,9,10)       =    109.406502     0.000000    -0.000024   109.406478
	   27 B(1,9,11)       =    109.807179    -0.000000    -0.000021   109.807158
	   28 B(1,9,15)       =    112.069975    -0.000000    -0.000045   112.069931
	   29 B(2,1,3)        =    107.682006     0.000000     0.000017   107.682023
	   30 B(2,1,4)        =    107.894481     0.000000     0.000007   107.894488
	   31 B(2,1,9)        =    110.678175    -0.000000    -0.000009   110.678166
	   32 B(3,1,4)        =    107.961766     0.000000     0.000011   107.961777
	   33 B(3,1,9)        =    110.775070    -0.000000    -0.000009   110.775061
	   34 B(4,1,9)        =    111.696024    -0.000000    -0.000014   111.696010
	   35 B(5,12,13)      =    109.807181    -0.000000    -0.000002   109.807179
	   36 B(5,12,14)      =    109.406484     0.000000    -0.000024   109.406460
	   37 B(5,12,24)      =    112.069964    -0.000000    -0.000033   112.069931
	   38 B(6,5,7)        =    107.894483     0.000000    -0.000001   107.894482
	   39 B(6,5,8)        =    107.961770     0.000000     0.000002   107.961772
	   40 B(6,5,12)       =    111.696031    -0.000000    -0.000023   111.696008
	   41 B(7,5,8)        =    107.682025    -0.000000    -0.000007   107.682018
	   42 B(7,5,12)       =    110.678164     0.000000     0.000010   110.678174
	   43 B(8,5,12)       =    110.775052     0.000000     0.000018   110.775069
	   44 B(9,15,16)      =    108.635308    -0.000000    -0.000038   108.635270
	   45 B(9,15,17)      =    109.110526     0.000000     0.000019   109.110546
	   46 B(9,15,18)      =    113.805826    -0.000000    -0.000019   113.805807
	   47 B(10,9,11)      =    106.564713     0.000000     0.000045   106.564759
	   48 B(10,9,15)      =    109.842618     0.000000     0.000006   109.842625
	   49 B(11,9,15)      =    108.996658     0.000000     0.000043   108.996700
	   50 B(12,24,21)     =    113.805720     0.000000     0.000136   113.805857
	   51 B(12,24,25)     =    108.635346    -0.000000    -0.000106   108.635240
	   52 B(12,24,26)     =    109.110536    -0.000000     0.000015   109.110551
	   53 B(13,12,14)     =    106.564772    -0.000000    -0.000017   106.564754
	   54 B(13,12,24)     =    108.996631     0.000000     0.000100   108.996731
	   55 B(14,12,24)     =    109.842617     0.000000    -0.000022   109.842595
	   56 B(15,18,19)     =    108.857746    -0.000000     0.000017   108.857763
	   57 B(15,18,20)     =    109.252494    -0.000000    -0.000037   109.252457
	   58 B(15,18,21)     =    113.428269     0.000000     0.000010   113.428279
	   59 B(16,15,17)     =    106.452261    -0.000000     0.000011   106.452271
	   60 B(16,15,18)     =    109.267381     0.000000     0.000040   109.267421
	   61 B(17,15,18)     =    109.308494    -0.000000    -0.000011   109.308483
	   62 B(18,21,22)     =    109.940446    -0.000000     0.000007   109.940453
	   63 B(18,21,23)     =    108.588989    -0.000000    -0.000094   108.588895
	   64 B(18,21,24)     =    113.428264     0.000000     0.000005   113.428269
	   65 B(19,18,20)     =    106.542358    -0.000000    -0.000009   106.542350
	   66 B(19,18,21)     =    109.940404     0.000000     0.000063   109.940468
	   67 B(20,18,21)     =    108.588974    -0.000000    -0.000047   108.588927
	   68 B(21,24,25)     =    109.267402    -0.000000    -0.000009   109.267393
	   69 B(21,24,26)     =    109.308550    -0.000000    -0.000083   109.308468
	   70 B(22,21,23)     =    106.542339     0.000000     0.000028   106.542367
	   71 B(22,21,24)     =    108.857708     0.000000     0.000087   108.857795
	   72 B(23,21,24)     =    109.252499    -0.000000    -0.000032   109.252467
	   73 B(25,24,26)     =    106.452247     0.000000     0.000040   106.452287
	   74 D(1,9,15,16)    =     53.880136     0.000000     0.000577    53.880712
	   75 D(1,9,15,17)    =    -61.788302     0.000000     0.000574   -61.787728
	   76 D(1,9,15,18)    =    175.844523     0.000000     0.000587   175.845110
	   77 D(2,1,9,10)     =    -62.577083     0.000000     0.000123   -62.576960
	   78 D(2,1,9,11)     =   -179.202693     0.000000     0.000095  -179.202598
	   79 D(2,1,9,15)     =     59.507609    -0.000000     0.000085    59.507694
	   80 D(3,1,9,10)     =    178.055370     0.000000     0.000114   178.055484
	   81 D(3,1,9,11)     =     61.429760     0.000000     0.000085    61.429845
	   82 D(3,1,9,15)     =    -59.859938    -0.000000     0.000075   -59.859863
	   83 D(4,1,9,10)     =     57.663427     0.000000     0.000116    57.663543
	   84 D(4,1,9,11)     =    -58.962183     0.000000     0.000087   -58.962096
	   85 D(4,1,9,15)     =    179.748119    -0.000000     0.000078   179.748197
	   86 D(5,12,24,21)   =    175.844294     0.000000     0.001048   175.845342
	   87 D(5,12,24,25)   =     53.879923     0.000000     0.001045    53.880968
	   88 D(5,12,24,26)   =    -61.788524     0.000000     0.001047   -61.787477
	   89 D(6,5,12,13)    =    -58.962133     0.000000    -0.000155   -58.962288
	   90 D(6,5,12,14)    =     57.663538    -0.000000    -0.000191    57.663347
	   91 D(6,5,12,24)    =    179.748209    -0.000000    -0.000258   179.747951
	   92 D(7,5,12,13)    =   -179.202641     0.000000    -0.000146  -179.202787
	   93 D(7,5,12,14)    =    -62.576970     0.000000    -0.000182   -62.577152
	   94 D(7,5,12,24)    =     59.507701    -0.000000    -0.000250    59.507452
	   95 D(8,5,12,13)    =     61.429807     0.000000    -0.000155    61.429652
	   96 D(8,5,12,14)    =    178.055478    -0.000000    -0.000191   178.055287
	   97 D(8,5,12,24)    =    -59.859851    -0.000000    -0.000259   -59.860110
	   98 D(9,15,18,19)   =    -59.471959    -0.000000    -0.000804   -59.472763
	   99 D(9,15,18,20)   =   -175.447622    -0.000000    -0.000783  -175.448405
	  100 D(9,15,18,21)   =     63.264124     0.000000    -0.000704    63.263420
	  101 D(10,9,15,16)   =    175.715581    -0.000000     0.000520   175.716102
	  102 D(10,9,15,17)   =     60.047144    -0.000000     0.000518    60.047661
	  103 D(10,9,15,18)   =    -62.320032    -0.000000     0.000531   -62.319501
	  104 D(11,9,15,16)   =    -67.874987     0.000000     0.000603   -67.874384
	  105 D(11,9,15,17)   =    176.456575     0.000000     0.000601   176.457176
	  106 D(11,9,15,18)   =     54.089400     0.000000     0.000614    54.090014
	  107 D(12,24,21,18)  =     63.263799     0.000000     0.000554    63.264353
	  108 D(12,24,21,22)  =    -59.472305     0.000000     0.000478   -59.471827
	  109 D(12,24,21,23)  =   -175.447926     0.000000     0.000413  -175.447513
	  110 D(13,12,24,21)  =     54.089194     0.000000     0.001004    54.090198
	  111 D(13,12,24,25)  =    -67.875176     0.000000     0.001000   -67.874176
	  112 D(13,12,24,26)  =    176.456376     0.000000     0.001002   176.457379
	  113 D(14,12,24,21)  =    -62.320292     0.000000     0.000980   -62.319312
	  114 D(14,12,24,25)  =    175.715338    -0.000000     0.000976   175.716314
	  115 D(14,12,24,26)  =     60.046890     0.000000     0.000978    60.047869
	  116 D(15,18,21,22)  =    -66.867020     0.000000     0.000728   -66.866291
	  117 D(15,18,21,23)  =     49.337040     0.000000     0.000712    49.337752
	  118 D(15,18,21,24)  =    170.996842    -0.000000     0.000607   170.997448
	  119 D(16,15,18,19)  =     62.142230    -0.000000    -0.000837    62.141393
	  120 D(16,15,18,20)  =    -53.833433    -0.000000    -0.000816   -53.834249
	  121 D(16,15,18,21)  =   -175.121688    -0.000000    -0.000736  -175.122424
	  122 D(17,15,18,19)  =    178.269922    -0.000000    -0.000808   178.269115
	  123 D(17,15,18,20)  =     62.294259    -0.000000    -0.000786    62.293473
	  124 D(17,15,18,21)  =    -58.993995     0.000000    -0.000707   -58.994702
	  125 D(18,21,24,25)  =   -175.122020     0.000000     0.000505  -175.121515
	  126 D(18,21,24,26)  =    -58.994300     0.000000     0.000501   -58.993799
	  127 D(19,18,21,22)  =     55.269142     0.000000     0.000804    55.269946
	  128 D(19,18,21,23)  =    171.473202     0.000000     0.000788   171.473989
	  129 D(19,18,21,24)  =    -66.866997    -0.000000     0.000682   -66.866315
	  130 D(20,18,21,22)  =    171.473193     0.000000     0.000802   171.473995
	  131 D(20,18,21,23)  =    -72.322747     0.000000     0.000786   -72.321961
	  132 D(20,18,21,24)  =     49.337054    -0.000000     0.000680    49.337735
	  133 D(22,21,24,25)  =     62.141876     0.000000     0.000428    62.142304
	  134 D(22,21,24,26)  =    178.269596    -0.000000     0.000425   178.270020
	  135 D(23,21,24,25)  =    -53.833745    -0.000000     0.000364   -53.833381
	  136 D(23,21,24,26)  =     62.293975    -0.000000     0.000360    62.294335
	 ---------------------------------------------------------------------------

  ==> Convergence Check <==

  Measures of convergence in internal coordinates in au.
  Criteria marked as inactive (o), active & met (*), and active & unmet ( ).
  --------------------------------------------------------------------------------------------- ~
   Step     Total Energy     Delta E     MAX Force     RMS Force      MAX Disp      RMS Disp    ~
  --------------------------------------------------------------------------------------------- ~
    Convergence Criteria             o    2.00e-06 *    1.00e-06 *    6.00e-06 *    4.00e-06 *  ~
  --------------------------------------------------------------------------------------------- ~
      1    -314.98384332   -3.15e+02 o    1.03e-06 *    2.64e-07 *    1.83e-05      7.49e-06    ~
  ---------------------------------------------------------------------------------------------

	Writing optimization data to binary file.
	Structure for next step:
	Cartesian Geometry (in Angstrom)
	    C    -4.0392510671  -0.2679761296   0.4788840572
	    H    -4.3507418089  -0.7730146464  -0.4364044309
	    H    -4.4548715526   0.7402351779   0.4588253164
	    H    -4.4831916049  -0.7977682553   1.3213322358
	    C     4.0392546281   0.2679740369   0.4788684617
	    H     4.4832014264   0.7977635510   1.3213153093
	    H     4.3507367049   0.7730172649  -0.4364206864
	    H     4.4548772337  -0.7402365653   0.4588018118
	    C    -2.5192541831  -0.2241473005   0.5787198056
	    H    -2.1297310055  -1.2425615676   0.6320106161
	    H    -2.2229172070   0.2721227882   1.5075281290
	    C     2.5192586482   0.2241417321   0.5787171037
	    H     2.2229302003  -0.2721360254   1.5075242909
	    H     2.1297344096   1.2425551005   0.6320191444
	    C    -1.8886960363   0.5101430517  -0.5993598242
	    H    -2.3479601548   1.4997752907  -0.6807920438
	    H    -2.1319700553  -0.0217891639  -1.5251117073
	    C    -0.3739202820   0.6652472464  -0.4894273191
	    H    -0.1410440271   1.2238805331   0.4211001303
	    H    -0.0112374639   1.2693699966  -1.3270572191
	    C     0.3739159407  -0.6652431349  -0.4894228561
	    H     0.1410431186  -1.2238681601   0.4211108002
	    H     0.0112292332  -1.2693731005  -1.3270461460
	    C     1.8886914181  -0.5101396583  -0.5993634212
	    H     2.3479537223  -1.4997722720  -0.6808049022
	    H     2.1319601932   0.0217984770  -1.5251135946
			--------------------------
			 OPTKING Finished Execution 
			--------------------------

    Structure for next step:
    Molecular point group: c1
    Full point group: C1

    Geometry (in Angstrom), charge = 0, multiplicity = 1:

    C           -4.039250980997    -0.267976099236     0.478883866970
    H           -4.350741722798    -0.773014616121    -0.436404621081
    H           -4.454871466468     0.740235208224     0.458825126154
    H           -4.483191518838    -0.797768224982     1.321332045590
    C            4.039254714158     0.267974067273     0.478868271514
    H            4.483201512490     0.797763581337     1.321315119065
    H            4.350736791023     0.773017295217    -0.436420876645
    H            4.454877319845    -0.740236534998     0.458801621561
    C           -2.519254096973    -0.224147270130     0.578719615406
    H           -2.129730919349    -1.242561537231     0.632010425895
    H           -2.222917120905     0.272122818491     1.507527938764
    C            2.519258734336     0.224141762399     0.578716913488
    H            2.222930286415    -0.272135995084     1.507524100685
    H            2.129734495700     1.242555130867     0.632018954150
    C           -1.888695950209     0.510143082061    -0.599360014461
    H           -2.347960068656     1.499775321067    -0.680792234041
    H           -2.131969969234    -0.021789133615    -1.525111897515
    C           -0.373920195905     0.665247276750    -0.489427509356
    H           -0.141043940972     1.223880563466     0.421099940119
    H           -0.011237377836     1.269370026907    -1.327057409351
    C            0.373916026761    -0.665243104577    -0.489423046290
    H            0.141043204687    -1.223868129765     0.421110610006
    H            0.011229319352    -1.269373070138    -1.327046336258
    C            1.888691504243    -0.510139627975    -0.599363611468
    H            2.347953808441    -1.499772241666    -0.680805092434
    H            2.131960279341     0.021798507317    -1.525113784777

gradient() will perform analytic gradient computation.

*** tstart() called on wr36
*** at Wed Sep 21 05:04:29 2016


         ---------------------------------------------------------
                                   SCF
            by Justin Turney, Rob Parrish, and Andy Simmonett
                              RHF Reference
                       12 Threads,  60000 MiB Core
         ---------------------------------------------------------

  ==> Geometry <==

    Molecular point group: c1
    Full point group: C1

    Geometry (in Angstrom), charge = 0, multiplicity = 1:

       Center              X                  Y                   Z               Mass       
    ------------   -----------------  -----------------  -----------------  -----------------
           C         -4.039250980997    -0.267976099236     0.478883866970    12.000000000000
           H         -4.350741722798    -0.773014616121    -0.436404621081     1.007825032070
           H         -4.454871466468     0.740235208224     0.458825126154     1.007825032070
           H         -4.483191518838    -0.797768224982     1.321332045590     1.007825032070
           C          4.039254714158     0.267974067273     0.478868271514    12.000000000000
           H          4.483201512490     0.797763581337     1.321315119065     1.007825032070
           H          4.350736791023     0.773017295217    -0.436420876645     1.007825032070
           H          4.454877319845    -0.740236534998     0.458801621561     1.007825032070
           C         -2.519254096973    -0.224147270130     0.578719615406    12.000000000000
           H         -2.129730919349    -1.242561537231     0.632010425895     1.007825032070
           H         -2.222917120905     0.272122818491     1.507527938764     1.007825032070
           C          2.519258734336     0.224141762399     0.578716913488    12.000000000000
           H          2.222930286415    -0.272135995084     1.507524100685     1.007825032070
           H          2.129734495700     1.242555130867     0.632018954150     1.007825032070
           C         -1.888695950209     0.510143082061    -0.599360014461    12.000000000000
           H         -2.347960068656     1.499775321067    -0.680792234041     1.007825032070
           H         -2.131969969234    -0.021789133615    -1.525111897515     1.007825032070
           C         -0.373920195905     0.665247276750    -0.489427509356    12.000000000000
           H         -0.141043940972     1.223880563466     0.421099940119     1.007825032070
           H         -0.011237377836     1.269370026907    -1.327057409351     1.007825032070
           C          0.373916026761    -0.665243104577    -0.489423046290    12.000000000000
           H          0.141043204687    -1.223868129765     0.421110610006     1.007825032070
           H          0.011229319352    -1.269373070138    -1.327046336258     1.007825032070
           C          1.888691504243    -0.510139627975    -0.599363611468    12.000000000000
           H          2.347953808441    -1.499772241666    -0.680805092434     1.007825032070
           H          2.131960279341     0.021798507317    -1.525113784777     1.007825032070

  Running in c1 symmetry.

  Rotational constants: A =      0.19991  B =      0.02035  C =      0.02011 [cm^-1]
  Rotational constants: A =   5993.08272  B =    610.06802  C =    602.80340 [MHz]
  Nuclear repulsion =  386.663026254011243

  Charge       = 0
  Multiplicity = 1
  Electrons    = 66
  Nalpha       = 33
  Nbeta        = 33

  ==> Algorithm <==

  SCF Algorithm Type is DF.
  DIIS enabled.
  MOM disabled.
  Fractional occupation disabled.
  Guess Type is READ.
  Energy threshold   = 1.00e-10
  Density threshold  = 1.00e-10
  Integral threshold = 0.00e+00

  ==> Primary Basis <==

  Basis Set: AUG-CC-PVTZ
    Number of shells: 274
    Number of basis function: 782
    Number of Cartesian functions: 890
    Spherical Harmonics?: true
    Max angular momentum: 3

  ==> Pre-Iterations <==

   -------------------------------------------------------
    Irrep   Nso     Nmo     Nalpha   Nbeta   Ndocc  Nsocc
   -------------------------------------------------------
     A        782     782       0       0       0       0
   -------------------------------------------------------
    Total     782     782      33      33      33       0
   -------------------------------------------------------

  ==> Integral Setup <==

  ==> DFJK: Density-Fitted J/K Matrices <==

    J tasked:                  Yes
    K tasked:                  Yes
    wK tasked:                  No
    OpenMP threads:             12
    Integrals threads:          12
    Memory (MB):             42915
    Algorithm:                Core
    Integral Cache:           NONE
    Schwarz Cutoff:          1E-12
    Fitting Condition:       1E-12

   => Auxiliary Basis Set <=

  Basis Set: 
    Number of shells: 492
    Number of basis function: 1660
    Number of Cartesian functions: 2038
    Spherical Harmonics?: true
    Max angular momentum: 4

  Minimum eigenvalue in the overlap matrix is 1.7289665186E-06.
  Using Symmetric Orthogonalization.
  SCF Guess: Reading in previously saved MOs, projecting if necessary.

  Using orbitals from previous SCF, no projection.
  Recomputing DOCC and SOCC from number of alpha and beta electrons from previous calculation.
              A 
    DOCC [    33 ]

  ==> Iterations <==

                           Total Energy        Delta E     RMS |[F,P]|

   @DF-RHF iter   0:  -313.54391115060378   -3.13544e+02   3.64246e-08 
   @DF-RHF iter   1:  -313.54392949173848   -1.83411e-05   9.55557e-09 
   @DF-RHF iter   2:  -313.54392949178475   -4.62705e-11   4.21035e-09 DIIS
   @DF-RHF iter   3:  -313.54392949179157   -6.82121e-12   1.42214e-09 DIIS
   @DF-RHF iter   4:  -313.54392949179214   -5.68434e-13   1.95043e-10 DIIS
   @DF-RHF iter   5:  -313.54392949179328   -1.13687e-12   6.30314e-11 DIIS

  ==> Post-Iterations <==

    Orbital Energies (a.u.)
    -----------------------

    Doubly Occupied:                                                      

       1A    -11.211855     2A    -11.211854     3A    -11.210522  
       4A    -11.210355     5A    -11.209924     6A    -11.209469  
       7A    -11.206857     8A    -11.206856     9A     -1.094282  
      10A     -1.060935    11A     -1.009518    12A     -0.950122  
      13A     -0.873459    14A     -0.831388    15A     -0.793755  
      16A     -0.759074    17A     -0.644033    18A     -0.629178  
      19A     -0.606975    20A     -0.594864    21A     -0.573879  
      22A     -0.564151    23A     -0.550974    24A     -0.530531  
      25A     -0.510866    26A     -0.494762    27A     -0.493011  
      28A     -0.474650    29A     -0.467365    30A     -0.461531  
      31A     -0.444427    32A     -0.439265    33A     -0.437409  

    Virtual:                                                              

      34A      0.031094    35A      0.032239    36A      0.034937  
      37A      0.035715    38A      0.044333    39A      0.048034  
      40A      0.048446    41A      0.055100    42A      0.055246  
      43A      0.065521    44A      0.065559    45A      0.066762  
      46A      0.073711    47A      0.080994    48A      0.087608  
      49A      0.088972    50A      0.099779    51A      0.107331  
      52A      0.111741    53A      0.116002    54A      0.119794  
      55A      0.120403    56A      0.122146    57A      0.125797  
      58A      0.136103    59A      0.140014    60A      0.140249  
      61A      0.143116    62A      0.147445    63A      0.153706  
      64A      0.155299    65A      0.155728    66A      0.160933  
      67A      0.162118    68A      0.168040    69A      0.171763  
      70A      0.173142    71A      0.176737    72A      0.181543  
      73A      0.191153    74A      0.197016    75A      0.206920  
      76A      0.209072    77A      0.217311    78A      0.223274  
      79A      0.231929    80A      0.237764    81A      0.244523  
      82A      0.259377    83A      0.262194    84A      0.264595  
      85A      0.265546    86A      0.269688    87A      0.271184  
      88A      0.273741    89A      0.278933    90A      0.282635  
      91A      0.284734    92A      0.303427    93A      0.303556  
      94A      0.306897    95A      0.317001    96A      0.317234  
      97A      0.323155    98A      0.332285    99A      0.332755  
     100A      0.336290   101A      0.342579   102A      0.345453  
     103A      0.346007   104A      0.355038   105A      0.355275  
     106A      0.356215   107A      0.360398   108A      0.364201  
     109A      0.365743   110A      0.373340   111A      0.375616  
     112A      0.376643   113A      0.380039   114A      0.385236  
     115A      0.390547   116A      0.391810   117A      0.395926  
     118A      0.399206   119A      0.401510   120A      0.401832  
     121A      0.413319   122A      0.415991   123A      0.416949  
     124A      0.420716   125A      0.431175   126A      0.434411  
     127A      0.438115   128A      0.442805   129A      0.443305  
     130A      0.450785   131A      0.451270   132A      0.456538  
     133A      0.458407   134A      0.462022   135A      0.469465  
     136A      0.475836   137A      0.476422   138A      0.478674  
     139A      0.483672   140A      0.485534   141A      0.487532  
     142A      0.490961   143A      0.491296   144A      0.497374  
     145A      0.500553   146A      0.505613   147A      0.507418  
     148A      0.515877   149A      0.517485   150A      0.520975  
     151A      0.521642   152A      0.523956   153A      0.528919  
     154A      0.531153   155A      0.534472   156A      0.547140  
     157A      0.550766   158A      0.555003   159A      0.557576  
     160A      0.568690   161A      0.569560   162A      0.570981  
     163A      0.572459   164A      0.575887   165A      0.579073  
     166A      0.580122   167A      0.586327   168A      0.587750  
     169A      0.594073   170A      0.614841   171A      0.615669  
     172A      0.627988   173A      0.628009   174A      0.631124  
     175A      0.633697   176A      0.637709   177A      0.640868  
     178A      0.645119   179A      0.654523   180A      0.666164  
     181A      0.666676   182A      0.669317   183A      0.670731  
     184A      0.684783   185A      0.686844   186A      0.698118  
     187A      0.700523   188A      0.701847   189A      0.710507  
     190A      0.715438   191A      0.721032   192A      0.728591  
     193A      0.730661   194A      0.740525   195A      0.747769  
     196A      0.767002   197A      0.784724   198A      0.787945  
     199A      0.794037   200A      0.799115   201A      0.810409  
     202A      0.810717   203A      0.811360   204A      0.825470  
     205A      0.827827   206A      0.835514   207A      0.840201  
     208A      0.844435   209A      0.848566   210A      0.854376  
     211A      0.865761   212A      0.868849   213A      0.871469  
     214A      0.874459   215A      0.879037   216A      0.881940  
     217A      0.884521   218A      0.895339   219A      0.901858  
     220A      0.910567   221A      0.912957   222A      0.917991  
     223A      0.918838   224A      0.927162   225A      0.927507  
     226A      0.934821   227A      0.936404   228A      0.940423  
     229A      0.942500   230A      0.951367   231A      0.952112  
     232A      0.958463   233A      0.961845   234A      0.968108  
     235A      0.968864   236A      0.971044   237A      0.986879  
     238A      0.989925   239A      0.997793   240A      1.001525  
     241A      1.008429   242A      1.010164   243A      1.010884  
     244A      1.023577   245A      1.029411   246A      1.032943  
     247A      1.033989   248A      1.041256   249A      1.051891  
     250A      1.055738   251A      1.057397   252A      1.061902  
     253A      1.068984   254A      1.078828   255A      1.084790  
     256A      1.085478   257A      1.091934   258A      1.103188  
     259A      1.105635   260A      1.106874   261A      1.117569  
     262A      1.120875   263A      1.120878   264A      1.130076  
     265A      1.131569   266A      1.134740   267A      1.136567  
     268A      1.138422   269A      1.141270   270A      1.153396  
     271A      1.156435   272A      1.157179   273A      1.168223  
     274A      1.176222   275A      1.182065   276A      1.185499  
     277A      1.189451   278A      1.194535   279A      1.202858  
     280A      1.204303   281A      1.212813   282A      1.220151  
     283A      1.225676   284A      1.227406   285A      1.236188  
     286A      1.239980   287A      1.247001   288A      1.254625  
     289A      1.260993   290A      1.262417   291A      1.268086  
     292A      1.274240   293A      1.275083   294A      1.286177  
     295A      1.295347   296A      1.297386   297A      1.298782  
     298A      1.308277   299A      1.312117   300A      1.319063  
     301A      1.322214   302A      1.331192   303A      1.336169  
     304A      1.342954   305A      1.352254   306A      1.355683  
[...]
	 D(7,5,12,14)     =        -1.092175	     -62.576996
	 D(7,5,12,24)     =         1.038604	      59.507630
	 D(8,5,12,13)     =         1.072152	      61.429767
	 D(8,5,12,14)     =         3.107654	     178.055447
	 D(8,5,12,24)     =        -1.044753	     -59.859926
	 D(9,15,18,19)    =        -1.037994	     -59.472679
	 D(9,15,18,20)    =        -3.062151	    -175.448343
	 D(9,15,18,21)    =         1.104156	      63.263471
	 D(10,9,15,16)    =         3.066817	     175.715680
	 D(10,9,15,17)    =         1.048021	      60.047208
	 D(10,9,15,18)    =        -1.087688	     -62.319936
	 D(11,9,15,16)    =        -1.184639	     -67.874790
	 D(11,9,15,17)    =         3.079751	     176.456738
	 D(11,9,15,18)    =         0.944042	      54.089594
	 D(12,24,21,18)   =         1.104164	      63.263947
	 D(12,24,21,22)   =        -1.037985	     -59.472178
	 D(12,24,21,23)   =        -3.062143	    -175.447882
	 D(13,12,24,21)   =         0.944042	      54.089609
	 D(13,12,24,25)   =        -1.184638	     -67.874778
	 D(13,12,24,26)   =         3.079751	     176.456744
	 D(14,12,24,21)   =        -1.087688	     -62.319907
	 D(14,12,24,25)   =         3.066818	     175.715705
	 D(14,12,24,26)   =         1.048022	      60.047228
	 D(15,18,21,22)   =        -1.167052	     -66.867178
	 D(15,18,21,23)   =         0.861092	      49.336920
	 D(15,18,21,24)   =         2.984454	     170.996645
	 D(16,15,18,19)   =         1.084573	      62.141474
	 D(16,15,18,20)   =        -0.939584	     -53.834191
	 D(16,15,18,21)   =        -3.056462	    -175.122376
	 D(17,15,18,19)   =         3.111385	     178.269225
	 D(17,15,18,20)   =         1.087228	      62.293561
	 D(17,15,18,21)   =        -1.029650	     -58.994625
	 D(18,21,24,25)   =        -3.056454	    -175.121901
	 D(18,21,24,26)   =        -1.029642	     -58.994145
	 D(19,18,21,22)   =         0.964626	      55.269024
	 D(19,18,21,23)   =         2.992771	     171.473122
	 D(19,18,21,24)   =        -1.167052	     -66.867153
	 D(20,18,21,22)   =         2.992770	     171.473087
	 D(20,18,21,23)   =        -1.262271	     -72.322815
	 D(20,18,21,24)   =         0.861092	      49.336910
	 D(22,21,24,25)   =         1.084582	      62.141974
	 D(22,21,24,26)   =         3.111394	     178.269730
	 D(23,21,24,25)   =        -0.939576	     -53.833731
	 D(23,21,24,26)   =         1.087236	      62.294026

	Current energy   :      -314.9838433176

	Energy change for the previous step:
		Projected    :        -0.0000000000
		Actual       :         0.0000000027

	Performing BFGS update.
	Previous computed or guess Hessian on step 1.
	Denominators (dg)(dq) or (dq)(dq) are very small.
	 Skipping Hessian update for step 4.
	Denominators (dg)(dq) or (dq)(dq) are very small.
	 Skipping Hessian update for step 3.
	Denominators (dg)(dq) or (dq)(dq) are very small.
	 Skipping Hessian update for step 2.
	Steps to be used in Hessian update: 1
	Taking RFO optimization step.
	Going to follow RFO solution 1.
	Using RFO vector 1.
	Norm of target step-size    0.00002
	Projected energy change by RFO approximation:        -0.0000000000

	Back-transformation to cartesian coordinates...
	Successfully converged to displaced geometry.

	--- Internal Coordinate Step in ANG or DEG, aJ/ANG or AJ/DEG ---
	 ---------------------------------------------------------------------------
	   Coordinate                Previous        Force       Change         New 
	   ----------                --------       ------       ------       ------
	    1 R(1,2)          =      1.090799    -0.000002    -0.000000     1.090799
	    2 R(1,3)          =      1.090702    -0.000002    -0.000000     1.090702
	    3 R(1,4)          =      1.089716    -0.000002    -0.000000     1.089716
	    4 R(1,9)          =      1.523902    -0.000001    -0.000000     1.523902
	    5 R(5,6)          =      1.089716    -0.000003    -0.000000     1.089716
	    6 R(5,7)          =      1.090799    -0.000004    -0.000000     1.090799
	    7 R(5,8)          =      1.090703    -0.000004    -0.000000     1.090702
	    8 R(5,12)         =      1.523902    -0.000001     0.000000     1.523902
	    9 R(9,10)         =      1.091666    -0.000004    -0.000000     1.091666
	   10 R(9,11)         =      1.093976    -0.000004    -0.000000     1.093976
	   11 R(9,15)         =      1.524683    -0.000001    -0.000000     1.524683
	   12 R(12,13)        =      1.093976    -0.000006    -0.000000     1.093976
	   13 R(12,14)        =      1.091666    -0.000005    -0.000000     1.091666
	   14 R(12,24)        =      1.524683    -0.000002    -0.000000     1.524683
	   15 R(15,16)        =      1.094041    -0.000003    -0.000000     1.094041
	   16 R(15,17)        =      1.095057    -0.000004    -0.000000     1.095057
	   17 R(15,18)        =      1.526659    -0.000001    -0.000000     1.526659
	   18 R(18,19)        =      1.093326    -0.000005    -0.000000     1.093326
	   19 R(18,20)        =      1.094589    -0.000005    -0.000000     1.094589
	   20 R(18,21)        =      1.526258    -0.000001     0.000000     1.526258
	   21 R(21,22)        =      1.093326    -0.000006    -0.000000     1.093326
	   22 R(21,23)        =      1.094589    -0.000004    -0.000000     1.094589
	   23 R(21,24)        =      1.526659    -0.000000     0.000000     1.526659
	   24 R(24,25)        =      1.094041    -0.000004    -0.000000     1.094041
	   25 R(24,26)        =      1.095057    -0.000006    -0.000000     1.095057
	   26 B(1,9,10)       =    109.406477    -0.000000     0.000003   109.406480
	   27 B(1,9,11)       =    109.807173    -0.000000    -0.000006   109.807167
	   28 B(1,9,15)       =    112.069932     0.000000     0.000022   112.069954
	   29 B(2,1,3)        =    107.682041     0.000000     0.000002   107.682043
	   30 B(2,1,4)        =    107.894492     0.000000     0.000002   107.894495
	   31 B(2,1,9)        =    110.678153    -0.000000    -0.000003   110.678150
	   32 B(3,1,4)        =    107.961781     0.000000    -0.000000   107.961781
	   33 B(3,1,9)        =    110.775047    -0.000000    -0.000003   110.775044
	   34 B(4,1,9)        =    111.696012     0.000000     0.000002   111.696014
	   35 B(5,12,13)      =    109.807177     0.000000     0.000009   109.807186
	   36 B(5,12,14)      =    109.406474    -0.000000    -0.000004   109.406470
	   37 B(5,12,24)      =    112.069943     0.000000     0.000003   112.069946
	   38 B(6,5,7)        =    107.894490     0.000000     0.000002   107.894492
	   39 B(6,5,8)        =    107.961777     0.000000     0.000002   107.961779
	   40 B(6,5,12)       =    111.696018     0.000000     0.000002   111.696020
	   41 B(7,5,8)        =    107.682032     0.000000     0.000006   107.682038
	   42 B(7,5,12)       =    110.678157    -0.000000    -0.000006   110.678152
	   43 B(8,5,12)       =    110.775051    -0.000000    -0.000006   110.775045
	   44 B(9,15,16)      =    108.635290     0.000000    -0.000005   108.635285
	   45 B(9,15,17)      =    109.110542     0.000000     0.000008   109.110550
	   46 B(9,15,18)      =    113.805763    -0.000000    -0.000005   113.805758
	   47 B(10,9,11)      =    106.564796     0.000000    -0.000002   106.564794
	   48 B(10,9,15)      =    109.842606    -0.000000    -0.000004   109.842602
	   49 B(11,9,15)      =    108.996668    -0.000000    -0.000015   108.996653
	   50 B(12,24,21)     =    113.805779    -0.000000    -0.000019   113.805760
	   51 B(12,24,25)     =    108.635281     0.000000     0.000003   108.635284
	   52 B(12,24,26)     =    109.110538     0.000000    -0.000006   109.110532
	   53 B(13,12,14)     =    106.564786     0.000000     0.000015   106.564801
	   54 B(13,12,24)     =    108.996672    -0.000000    -0.000003   108.996669
	   55 B(14,12,24)     =    109.842599    -0.000000    -0.000021   109.842579
	   56 B(15,18,19)     =    108.857745     0.000000    -0.000002   108.857743
	   57 B(15,18,20)     =    109.252477     0.000000     0.000004   109.252481
	   58 B(15,18,21)     =    113.428276    -0.000000    -0.000001   113.428276
	   59 B(16,15,17)     =    106.452290     0.000000     0.000007   106.452297
	   60 B(16,15,18)     =    109.267423    -0.000000    -0.000001   109.267421
	   61 B(17,15,18)     =    109.308494     0.000000    -0.000002   109.308492
	   62 B(18,21,22)     =    109.940453     0.000000    -0.000020   109.940433
	   63 B(18,21,23)     =    108.588928     0.000000     0.000016   108.588944
	   64 B(18,21,24)     =    113.428239    -0.000000    -0.000015   113.428224
	   65 B(19,18,20)     =    106.542368     0.000000    -0.000002   106.542366
	   66 B(19,18,21)     =    109.940454    -0.000000    -0.000003   109.940451
	   67 B(20,18,21)     =    108.588926    -0.000000     0.000003   108.588929
	   68 B(21,24,25)     =    109.267421     0.000000     0.000006   109.267427
	   69 B(21,24,26)     =    109.308481     0.000000     0.000005   109.308486
	   70 B(22,21,23)     =    106.542397     0.000000     0.000015   106.542411
	   71 B(22,21,24)     =    108.857747    -0.000000    -0.000015   108.857732
	   72 B(23,21,24)     =    109.252487     0.000000     0.000022   109.252508
	   73 B(25,24,26)     =    106.452301    -0.000000     0.000013   106.452313
	   74 D(1,9,15,16)    =     53.880304    -0.000000    -0.000195    53.880109
	   75 D(1,9,15,17)    =    -61.788168    -0.000000    -0.000205   -61.788372
	   76 D(1,9,15,18)    =    175.844689    -0.000000    -0.000204   175.844484
	   77 D(2,1,9,10)     =    -62.576938     0.000000     0.000022   -62.576916
	   78 D(2,1,9,11)     =   -179.202629    -0.000000     0.000025  -179.202604
	   79 D(2,1,9,15)     =     59.507693     0.000000     0.000034    59.507726
	   80 D(3,1,9,10)     =    178.055501     0.000000     0.000024   178.055524
	   81 D(3,1,9,11)     =     61.429809    -0.000000     0.000027    61.429836
	   82 D(3,1,9,15)     =    -59.859869     0.000000     0.000035   -59.859834
	   83 D(4,1,9,10)     =     57.663563     0.000000     0.000024    57.663587
	   84 D(4,1,9,11)     =    -58.962129    -0.000000     0.000028   -58.962101
	   85 D(4,1,9,15)     =    179.748193     0.000000     0.000036   179.748229
	   86 D(5,12,24,21)   =    175.844719    -0.000000    -0.000068   175.844650
	   87 D(5,12,24,25)   =     53.880331     0.000000    -0.000065    53.880265
	   88 D(5,12,24,26)   =    -61.788146    -0.000000    -0.000079   -61.788225
	   89 D(6,5,12,13)    =    -58.962172    -0.000000    -0.000010   -58.962183
	   90 D(6,5,12,14)    =     57.663508     0.000000     0.000012    57.663519
	   91 D(6,5,12,24)    =    179.748135     0.000000    -0.000015   179.748120
	   92 D(7,5,12,13)    =   -179.202677    -0.000000    -0.000010  -179.202687
	   93 D(7,5,12,14)    =    -62.576996     0.000000     0.000012   -62.576985
	   94 D(7,5,12,24)    =     59.507630     0.000000    -0.000015    59.507616
	   95 D(8,5,12,13)    =     61.429767    -0.000000    -0.000010    61.429758
	   96 D(8,5,12,14)    =    178.055447     0.000000     0.000012   178.055459
	   97 D(8,5,12,24)    =    -59.859926     0.000000    -0.000015   -59.859940
	   98 D(9,15,18,19)   =    -59.472679     0.000000     0.000259   -59.472420
	   99 D(9,15,18,20)   =   -175.448343     0.000000     0.000260  -175.448083
	  100 D(9,15,18,21)   =     63.263471     0.000000     0.000253    63.263724
	  101 D(10,9,15,16)   =    175.715680     0.000000    -0.000179   175.715500
	  102 D(10,9,15,17)   =     60.047208    -0.000000    -0.000189    60.047020
	  103 D(10,9,15,18)   =    -62.319936    -0.000000    -0.000188   -62.320124
	  104 D(11,9,15,16)   =    -67.874790    -0.000000    -0.000192   -67.874983
	  105 D(11,9,15,17)   =    176.456738    -0.000000    -0.000201   176.456536
	  106 D(11,9,15,18)   =     54.089594    -0.000000    -0.000201    54.089393
	  107 D(12,24,21,18)  =     63.263947    -0.000000    -0.000037    63.263911
	  108 D(12,24,21,22)  =    -59.472178     0.000000     0.000011   -59.472167
	  109 D(12,24,21,23)  =   -175.447882    -0.000000    -0.000010  -175.447892
	  110 D(13,12,24,21)  =     54.089609    -0.000000    -0.000080    54.089529
	  111 D(13,12,24,25)  =    -67.874778    -0.000000    -0.000077   -67.874855
	  112 D(13,12,24,26)  =    176.456744    -0.000000    -0.000091   176.456654
	  113 D(14,12,24,21)  =    -62.319907    -0.000000    -0.000085   -62.319992
	  114 D(14,12,24,25)  =    175.715705     0.000000    -0.000082   175.715623
	  115 D(14,12,24,26)  =     60.047228    -0.000000    -0.000096    60.047132
	  116 D(15,18,21,22)  =    -66.867178    -0.000000    -0.000111   -66.867289
	  117 D(15,18,21,23)  =     49.336920    -0.000000    -0.000095    49.336825
	  118 D(15,18,21,24)  =    170.996645    -0.000000    -0.000066   170.996579
	  119 D(16,15,18,19)  =     62.141474     0.000000     0.000247    62.141721
	  120 D(16,15,18,20)  =    -53.834191     0.000000     0.000249   -53.833942
	  121 D(16,15,18,21)  =   -175.122376     0.000000     0.000242  -175.122134
	  122 D(17,15,18,19)  =    178.269225     0.000000     0.000253   178.269479
	  123 D(17,15,18,20)  =     62.293561     0.000000     0.000255    62.293816
	  124 D(17,15,18,21)  =    -58.994625     0.000000     0.000248   -58.994376
	  125 D(18,21,24,25)  =   -175.121901    -0.000000    -0.000041  -175.121942
	  126 D(18,21,24,26)  =    -58.994145     0.000000    -0.000020   -58.994164
	  127 D(19,18,21,22)  =     55.269024    -0.000000    -0.000116    55.268908
	  128 D(19,18,21,23)  =    171.473122    -0.000000    -0.000100   171.473021
	  129 D(19,18,21,24)  =    -66.867153    -0.000000    -0.000071   -66.867224
	  130 D(20,18,21,22)  =    171.473087    -0.000000    -0.000118   171.472969
	  131 D(20,18,21,23)  =    -72.322815    -0.000000    -0.000102   -72.322918
	  132 D(20,18,21,24)  =     49.336910    -0.000000    -0.000073    49.336837
	  133 D(22,21,24,25)  =     62.141974     0.000000     0.000006    62.141980
	  134 D(22,21,24,26)  =    178.269730     0.000000     0.000027   178.269758
	  135 D(23,21,24,25)  =    -53.833731    -0.000000    -0.000015   -53.833745
	  136 D(23,21,24,26)  =     62.294026     0.000000     0.000006    62.294032
	 ---------------------------------------------------------------------------

  ==> Convergence Check <==

  Measures of convergence in internal coordinates in au.
  Criteria marked as inactive (o), active & met (*), and active & unmet ( ).
  ---------------------------------------------------------------------------------------------
   Step     Total Energy     Delta E     MAX Force     RMS Force      MAX Disp      RMS Disp   
  ---------------------------------------------------------------------------------------------
    Convergence Criteria             o    2.00e-06 *    1.00e-06 *    6.00e-06 *    4.00e-06 *
  ---------------------------------------------------------------------------------------------
      5    -314.98384332    2.73e-09 o    6.93e-07 *    1.97e-07 *    4.54e-06 *    1.56e-06 *  ~
  ---------------------------------------------------------------------------------------------


  **** Optimization is complete! (in 5 steps) ****

  ==> Optimization Summary <==

  Measures of convergence in internal coordinates in au.
  --------------------------------------------------------------------------------------------------------------- ~
   Step         Total Energy             Delta E       MAX Force       RMS Force        MAX Disp        RMS Disp  ~
  --------------------------------------------------------------------------------------------------------------- ~
      1    -314.983843317486   -314.983843317486      0.00000103      0.00000026      0.00001830      0.00000749  ~
      2    -314.983843319864     -0.000000002378      0.00000112      0.00000029      0.00002470      0.00000743  ~
      3    -314.983843317868      0.000000001996      0.00000046      0.00000011      0.00002624      0.00000693  ~
      4    -314.983843320278     -0.000000002409      0.00000138      0.00000035      0.00001613      0.00000443  ~
      5    -314.983843317551      0.000000002727      0.00000069      0.00000020      0.00000454      0.00000156  ~
  --------------------------------------------------------------------------------------------------------------- ~

	Writing optimization data to binary file.
	Final energy is   -314.9838433175512
	Final (previous) structure:
	Cartesian Geometry (in Angstrom)
	    C    -4.0392557648  -0.2679747674   0.4788764006
	    H    -4.3507469300  -0.7730039407  -0.4364165741
	    H    -4.4548706421   0.7402385471   0.4588253006
	    H    -4.4832005849  -0.7977714586   1.3213190407
	    C     4.0392582468   0.2679729704   0.4788615988
	    H     4.4832076045   0.7977666679   1.3213038060
	    H     4.3507442105   0.7730057688  -0.4364312793
	    H     4.4548736122  -0.7402401421   0.4588043092
	    C    -2.5192588772  -0.2241545610   0.5787154979
	    H    -2.1297412235  -1.2425707611   0.6319982199
	    H    -2.2229210594   0.2721065049   1.5075276837
	    C     2.5192620617   0.2241516669   0.5787089458
	    H     2.2229295732  -0.2721137203   1.5075204047
	    H     2.1297443767   1.2425673706   0.6319986951
	    C    -1.8886946341   0.5101422346  -0.5993567584
	    H    -2.3479582301   1.4997743464  -0.6807864794
	    H    -2.1319628555  -0.0217851987  -1.5251121435
	    C    -0.3739195087   0.6652461143  -0.4894140213
	    H    -0.1410493987   1.2238730025   0.4211181521
	    H    -0.0112315763   1.2693739507  -1.3270373047
	    C     0.3739169099  -0.6652440343  -0.4894132222
	    H     0.1410510860  -1.2238674210   0.4211222330
	    H     0.0112254688  -1.2693749123  -1.3270328709
	    C     1.8886913574  -0.5101395817  -0.5993631440
	    H     2.3479545812  -1.4997713584  -0.6807998470
	    H     2.1319544767   0.0217922557  -1.5251173791
	Saving final (previous) structure.
			--------------------------
			 OPTKING Finished Execution 
			--------------------------

    Final optimized geometry and variables:
    Molecular point group: c1
    Full point group: C1

    Geometry (in Angstrom), charge = 0, multiplicity = 1:

    C           -4.039255764847    -0.267974767408     0.478876400642
    H           -4.350746930005    -0.773003940652    -0.436416574082
    H           -4.454870642112     0.740238547117     0.458825300597
    H           -4.483200584911    -0.797771458600     1.321319040740
    C            4.039258246798     0.267972970367     0.478861598845
    H            4.483207604486     0.797766667860     1.321303806030
    H            4.350744210475     0.773005768778    -0.436431279258
    H            4.454873612205    -0.740240142138     0.458804309174
    C           -2.519258877225    -0.224154560957     0.578715497875
    H           -2.129741223477    -1.242570761101     0.631998219912
    H           -2.222921059391     0.272106504932     1.507527683700
    C            2.519262061749     0.224151666880     0.578708945843
    H            2.222929573187    -0.272113720289     1.507520404697
    H            2.129744376724     1.242567370640     0.631998695078
    C           -1.888694634092     0.510142234645    -0.599356758365
    H           -2.347958230092     1.499774346434    -0.680786479383
    H           -2.131962855473    -0.021785198677    -1.525112143500
    C           -0.373919508720     0.665246114293    -0.489414021291
    H           -0.141049398665     1.223873002534     0.421118152068
    H           -0.011231576345     1.269373950748    -1.327037304699
    C            0.373916909922    -0.665244034257    -0.489413222245
    H            0.141051085994    -1.223867421049     0.421122233026
    H            0.011225468814    -1.269374912273    -1.327032870853
    C            1.888691357352    -0.510139581696    -0.599363143968
    H            2.347954581192    -1.499771358406    -0.680799847001
    H            2.131954476677     0.021792255654    -1.525117379141

	Cleaning optimization helper files.

*** Psi4 exiting successfully. Buy a developer a beer!
