    -----------------------------------------------------------------------
          Psi4: An Open-Source Ab Initio Electronic Structure Package
                              Psi4 1.0.0 Driver

                          Git: Rev {master} 6a9a71b dirty

    J. M. Turney, A. C. Simmonett, R. M. Parrish, E. G. Hohenstein,
    F. A. Evangelista, J. T. Fermann, B. J. Mintz, L. A. Burns, J. J. Wilke,
    M. L. Abrams, N. J. Russ, M. L. Leininger, C. L. Janssen, E. T. Seidl,
    W. D. Allen, H. F. Schaefer, R. A. King, E. F. Valeev, C. D. Sherrill,
    and T. D. Crawford, WIREs Comput. Mol. Sci. 2, 556-565 (2012)
    (doi: 10.1002/wcms.93)

                         Additional Contributions by
    A. E. DePrince, U. Bozkaya, A. Yu. Sokolov, D. G. A. Smith, R. Di Remigio,
    R. M. Richard, J. F. Gonthier, H. R. McAlexander, M. Saitow, and
    B. P. Pritchard
    -----------------------------------------------------------------------


    Psi4 started on: Wed Sep 21 04:57:33 2016

    Process ID:  26387
    PSI4DATADIR: /usr/local/hpc5/psi4conda/share/psi4
    Memory level set to 256.000 MB

  ==> Input File <==

--------------------------------------------------------------------------
memory 60 Gb

molecule molecule_75_psi {
0 1
C            3.000972216099    -1.043579928721    -0.008215666224
H            2.854007407967    -1.317942990772    -1.054001240668
H            2.241438847646    -1.555676472929     0.582355638666
H            3.973010912524    -1.424277917143     0.305234454832
C           -3.000964954739     1.043587960745     0.008236816092
H           -2.854012286517     1.317931556115     1.054028682110
H           -3.972997265677     1.424296627713    -0.305218949494
H           -2.241421478719     1.555690354565    -0.582315548068
C            2.922543625175     0.467816338950     0.174214608488
H            3.756084914074     0.937326979258    -0.353462733076
H            3.051134617111     0.709997300231     1.232811548070
C           -2.922543411094    -0.467805271918    -0.174218671785
H           -3.756089123025    -0.937320581217     0.353446905135
H           -3.051131028997    -0.709967616871    -1.232820072962
C            1.614271343185     1.090027472258    -0.313257975566
H            1.518208228295     0.929835259334    -1.391967060852
H            1.678235506963     2.170660564640    -0.169442271920
C            0.361439937211     0.548321551109     0.391317417740
H           -0.338203514869     1.363259222074     0.582336035925
H            0.639945348499     0.155388461376     1.375120857939
C           -0.361442297692    -0.548334629998    -0.391325499477
H           -0.639943515110    -0.155405692148    -1.375131748959
H            0.338200068797    -1.363274977033    -0.582337823875
C           -1.614276881927    -1.090033716130     0.313247584170
H           -1.678252441020    -2.170664982777     0.169421809864
H           -1.518210152049    -0.929852430827     1.391958026905
}

set globals {
  reference rhf
  g_convergence gau_verytight
  basis aug-cc-pvtz
  freeze_core true
  scf_type df
  mp_type df
}
optimize('mp2')
--------------------------------------------------------------------------
/usr/local/hpc5/psi4conda/lib/python2.7/site-packages/v2rdm_casscf/v2rdm_casscf.so loaded.

  Memory set to  60.000 GiB by Python script.
gradient() will perform analytic gradient computation.

*** tstart() called on wr37
*** at Wed Sep 21 04:57:34 2016


         ---------------------------------------------------------
                                   SCF
            by Justin Turney, Rob Parrish, and Andy Simmonett
                              RHF Reference
                       12 Threads,  60000 MiB Core
         ---------------------------------------------------------

  ==> Geometry <==

    Molecular point group: c1
    Full point group: C1

    Geometry (in Angstrom), charge = 0, multiplicity = 1:

       Center              X                  Y                   Z               Mass       
    ------------   -----------------  -----------------  -----------------  -----------------
           C          3.000972216099    -1.043579928721    -0.008215666224    12.000000000000
           H          2.854007407967    -1.317942990772    -1.054001240668     1.007825032070
           H          2.241438847646    -1.555676472929     0.582355638666     1.007825032070
           H          3.973010912524    -1.424277917143     0.305234454832     1.007825032070
           C         -3.000964954739     1.043587960745     0.008236816092    12.000000000000
           H         -2.854012286517     1.317931556115     1.054028682110     1.007825032070
           H         -3.972997265677     1.424296627713    -0.305218949494     1.007825032070
           H         -2.241421478719     1.555690354565    -0.582315548068     1.007825032070
           C          2.922543625175     0.467816338950     0.174214608488    12.000000000000
           H          3.756084914074     0.937326979258    -0.353462733076     1.007825032070
           H          3.051134617111     0.709997300231     1.232811548070     1.007825032070
           C         -2.922543411094    -0.467805271918    -0.174218671785    12.000000000000
           H         -3.756089123025    -0.937320581217     0.353446905135     1.007825032070
           H         -3.051131028997    -0.709967616871    -1.232820072962     1.007825032070
           C          1.614271343185     1.090027472258    -0.313257975566    12.000000000000
           H          1.518208228295     0.929835259334    -1.391967060852     1.007825032070
           H          1.678235506963     2.170660564640    -0.169442271920     1.007825032070
           C          0.361439937211     0.548321551109     0.391317417740    12.000000000000
           H         -0.338203514869     1.363259222074     0.582336035925     1.007825032070
           H          0.639945348499     0.155388461376     1.375120857939     1.007825032070
           C         -0.361442297692    -0.548334629998    -0.391325499477    12.000000000000
           H         -0.639943515110    -0.155405692148    -1.375131748959     1.007825032070
           H          0.338200068797    -1.363274977033    -0.582337823875     1.007825032070
           C         -1.614276881927    -1.090033716130     0.313247584170    12.000000000000
           H         -1.678252441020    -2.170664982777     0.169421809864     1.007825032070
           H         -1.518210152049    -0.929852430827     1.391958026905     1.007825032070

  Running in c1 symmetry.

  Rotational constants: A =      0.14162  B =      0.02696  C =      0.02404 [cm^-1]
  Rotational constants: A =   4245.57267  B =    808.11497  C =    720.74179 [MHz]
  Nuclear repulsion =  397.278228913213923

  Charge       = 0
  Multiplicity = 1
  Electrons    = 66
  Nalpha       = 33
  Nbeta        = 33

  ==> Algorithm <==

  SCF Algorithm Type is DF.
  DIIS enabled.
  MOM disabled.
  Fractional occupation disabled.
  Guess Type is SAD.
  Energy threshold   = 1.00e-10
  Density threshold  = 1.00e-10
  Integral threshold = 0.00e+00

  ==> Primary Basis <==

  Basis Set: AUG-CC-PVTZ
    Number of shells: 274
    Number of basis function: 782
    Number of Cartesian functions: 890
    Spherical Harmonics?: true
    Max angular momentum: 3

  ==> Pre-Iterations <==

   -------------------------------------------------------
    Irrep   Nso     Nmo     Nalpha   Nbeta   Ndocc  Nsocc
   -------------------------------------------------------
     A        782     782       0       0       0       0
   -------------------------------------------------------
    Total     782     782      33      33      33       0
   -------------------------------------------------------

  ==> Integral Setup <==

  ==> DFJK: Density-Fitted J/K Matrices <==

    J tasked:                  Yes
    K tasked:                  Yes
    wK tasked:                  No
    OpenMP threads:             12
    Integrals threads:          12
    Memory (MB):             42915
    Algorithm:                Core
    Integral Cache:           NONE
    Schwarz Cutoff:          1E-12
    Fitting Condition:       1E-12

   => Auxiliary Basis Set <=

  Basis Set: 
    Number of shells: 492
    Number of basis function: 1660
    Number of Cartesian functions: 2038
    Spherical Harmonics?: true
    Max angular momentum: 4

  Minimum eigenvalue in the overlap matrix is 1.7417670242E-06.
  Using Symmetric Orthogonalization.
  SCF Guess: Superposition of Atomic Densities via on-the-fly atomic UHF.

  ==> Iterations <==

                           Total Energy        Delta E     RMS |[F,P]|

   @DF-RHF iter   0:  -316.93074474023393   -3.16931e+02   6.99438e-03 
   @DF-RHF iter   1:  -313.29836904861469    3.63238e+00   6.91432e-04 
   @DF-RHF iter   2:  -313.50212772580818   -2.03759e-01   2.53970e-04 DIIS
   @DF-RHF iter   3:  -313.52859155197035   -2.64638e-02   1.02566e-04 DIIS
   @DF-RHF iter   4:  -313.53373929768321   -5.14775e-03   1.43083e-05 DIIS
   @DF-RHF iter   5:  -313.53388293201414   -1.43634e-04   3.79335e-06 DIIS
   @DF-RHF iter   6:  -313.53389134073763   -8.40872e-06   1.18051e-06 DIIS
   @DF-RHF iter   7:  -313.53389196286349   -6.22126e-07   2.10771e-07 DIIS
   @DF-RHF iter   8:  -313.53389199245515   -2.95917e-08   3.98676e-08 DIIS
   @DF-RHF iter   9:  -313.53389199358986   -1.13471e-09   1.25245e-08 DIIS
   @DF-RHF iter  10:  -313.53389199369241   -1.02546e-10   3.91757e-09 DIIS
   @DF-RHF iter  11:  -313.53389199370196   -9.54969e-12   9.41724e-10 DIIS
   @DF-RHF iter  12:  -313.53389199370287   -9.09495e-13   2.11979e-10 DIIS
   @DF-RHF iter  13:  -313.53389199370264    2.27374e-13   4.34708e-11 DIIS

  ==> Post-Iterations <==

    Orbital Energies (a.u.)
    -----------------------

    Doubly Occupied:                                                      

       1A    -11.213029     2A    -11.213029     3A    -11.210097  
       4A    -11.210047     5A    -11.209264     6A    -11.208699  
       7A    -11.206830     8A    -11.206829     9A     -1.092250  
      10A     -1.059896    11A     -1.003800    12A     -0.948502  
      13A     -0.891867    14A     -0.826019    15A     -0.771823  
      16A     -0.771642    17A     -0.648896    18A     -0.624949  
      19A     -0.601723    20A     -0.600966    21A     -0.581546  
      22A     -0.559969    23A     -0.541526    24A     -0.524439  
      25A     -0.518570    26A     -0.504630    27A     -0.483185  
      28A     -0.482665    29A     -0.462932    30A     -0.457457  
      31A     -0.454484    32A     -0.435026    33A     -0.426881  

    Virtual:                                                              

      34A      0.030272    35A      0.032985    36A      0.034085  
      37A      0.035482    38A      0.045435    39A      0.046793  
      40A      0.050759    41A      0.053636    42A      0.056018  
      43A      0.064906    44A      0.067886    45A      0.071437  
      46A      0.075034    47A      0.076390    48A      0.089887  
      49A      0.095954    50A      0.098134    51A      0.098645  
      52A      0.112722    53A      0.115138    54A      0.120896  
      55A      0.125317    56A      0.126027    57A      0.128422  
      58A      0.132061    59A      0.136430    60A      0.138441  
      61A      0.142535    62A      0.146948    63A      0.148128  
      64A      0.154404    65A      0.157507    66A      0.159124  
      67A      0.161938    68A      0.165111    69A      0.168631  
      70A      0.172583    71A      0.179451    72A      0.180410  
      73A      0.190688    74A      0.193593    75A      0.203115  
      76A      0.209576    77A      0.210564    78A      0.222194  
      79A      0.226256    80A      0.236139    81A      0.236409  
      82A      0.246528    83A      0.251194    84A      0.256311  
      85A      0.271556    86A      0.274855    87A      0.279836  
      88A      0.284498    89A      0.291552    90A      0.294702  
      91A      0.302481    92A      0.306461    93A      0.306509  
      94A      0.309893    95A      0.312748    96A      0.321728  
      97A      0.326842    98A      0.327016    99A      0.329912  
     100A      0.332154   101A      0.338090   102A      0.339508  
     103A      0.346023   104A      0.350006   105A      0.350878  
     106A      0.357768   107A      0.357770   108A      0.367757  
     109A      0.369755   110A      0.372098   111A      0.373381  
     112A      0.379738   113A      0.381500   114A      0.383696  
     115A      0.390281   116A      0.392625   117A      0.401105  
     118A      0.401356   119A      0.406095   120A      0.413921  
     121A      0.419145   122A      0.421434   123A      0.426097  
     124A      0.430565   125A      0.434302   126A      0.443246  
     127A      0.446231   128A      0.447790   129A      0.448015  
     130A      0.453492   131A      0.454479   132A      0.465662  
     133A      0.469728   134A      0.471946   135A      0.473142  
     136A      0.474034   137A      0.479093   138A      0.485746  
     139A      0.485966   140A      0.488774   141A      0.490975  
     142A      0.493321   143A      0.500230   144A      0.500260  
     145A      0.500352   146A      0.512498   147A      0.522538  
     148A      0.522685   149A      0.523605   150A      0.540636  
     151A      0.541211   152A      0.543276   153A      0.543706  
     154A      0.552585   155A      0.552703   156A      0.554369  
     157A      0.562807   158A      0.563867   159A      0.567530  
     160A      0.569345   161A      0.579188   162A      0.581023  
     163A      0.587747   164A      0.591020   165A      0.591785  
     166A      0.594543   167A      0.605431   168A      0.609038  
     169A      0.611796   170A      0.620423   171A      0.622601  
     172A      0.630199   173A      0.631048   174A      0.640138  
     175A      0.642569   176A      0.646741   177A      0.646763  
     178A      0.655018   179A      0.659468   180A      0.665223  
     181A      0.673868   182A      0.676353   183A      0.680137  
     184A      0.681994   185A      0.688997   186A      0.692752  
     187A      0.698932   188A      0.702935   189A      0.710978  
     190A      0.715237   191A      0.723560   192A      0.729760  
     193A      0.739467   194A      0.739634   195A      0.752269  
     196A      0.759920   197A      0.763548   198A      0.764250  
     199A      0.770193   200A      0.790248   201A      0.794899  
     202A      0.800461   203A      0.816889   204A      0.823733  
     205A      0.825068   206A      0.832862   207A      0.847362  
     208A      0.850934   209A      0.851889   210A      0.860692  
     211A      0.867375   212A      0.868125   213A      0.876502  
     214A      0.883293   215A      0.883851   216A      0.892047  
     217A      0.897898   218A      0.905457   219A      0.907325  
     220A      0.913008   221A      0.919770   222A      0.922717  
     223A      0.926753   224A      0.936748   225A      0.940498  
     226A      0.947543   227A      0.947604   228A      0.951114  
     229A      0.955692   230A      0.963228   231A      0.971328  
     232A      0.978720   233A      0.982169   234A      0.986909  
     235A      0.989865   236A      0.991660   237A      1.002472  
     238A      1.005825   239A      1.012992   240A      1.015129  
     241A      1.022669   242A      1.028258   243A      1.028387  
     244A      1.029288   245A      1.040416   246A      1.040728  
     247A      1.047685   248A      1.056741   249A      1.057723  
     250A      1.060060   251A      1.065981   252A      1.080864  
     253A      1.082431   254A      1.086787   255A      1.089681  
     256A      1.095724   257A      1.103409   258A      1.103449  
     259A      1.116290   260A      1.123979   261A      1.124698  
     262A      1.131649   263A      1.136966   264A      1.138891  
     265A      1.145989   266A      1.150893   267A      1.155109  
     268A      1.162781   269A      1.163403   270A      1.168058  
     271A      1.170287   272A      1.184087   273A      1.189402  
     274A      1.194935   275A      1.198139   276A      1.204581  
     277A      1.210551   278A      1.219494   279A      1.220353  
     280A      1.224833   281A      1.228913   282A      1.236052  
     283A      1.243706   284A      1.246484   285A      1.255263  
     286A      1.255281   287A      1.259526   288A      1.263086  
     289A      1.270659   290A      1.275441   291A      1.280736  
     292A      1.289861   293A      1.291044   294A      1.293235  
     295A      1.309846   296A      1.313370   297A      1.322430  
     298A      1.325808   299A      1.332086   300A      1.332257  
     301A      1.342387   302A      1.346941   303A      1.358938  
     304A      1.368326   305A      1.370930   306A      1.375850  
     307A      1.383819   308A      1.393324   309A      1.398368  
     310A      1.403084   311A      1.409656   312A      1.413487  
     313A      1.419578   314A      1.436794   315A      1.439893  
     316A      1.442010   317A      1.455236   318A      1.463582  
     319A      1.472977   320A      1.487272   321A      1.489556  
     322A      1.490657   323A      1.499719   324A      1.514523  
     325A      1.518829   326A      1.533818   327A      1.539391  
     328A      1.540045   329A      1.553615   330A      1.554790  
     331A      1.558551   332A      1.561491   333A      1.567441  
     334A      1.575677   335A      1.575796   336A      1.589314  
     337A      1.604198   338A      1.605449   339A      1.615160  
     340A      1.627455   341A      1.630113   342A      1.638563  
     343A      1.639365   344A      1.651935   345A      1.658349  
     346A      1.666822   347A      1.676944   348A      1.683826  
     349A      1.684992   350A      1.688022   351A      1.699149  
     352A      1.702128   353A      1.704039   354A      1.707121  
     355A      1.713897   356A      1.729116   357A      1.733614  
     358A      1.734635   359A      1.744442   360A      1.746632  
     361A      1.752573   362A      1.760877   363A      1.766094  
     364A      1.773397   365A      1.781796   366A      1.783776  
     367A      1.791001   368A      1.793756   369A      1.798944  
     370A      1.802110   371A      1.815074   372A      1.817947  
     373A      1.822447   374A      1.829448   375A      1.842047  
     376A      1.844053   377A      1.846695   378A      1.855015  
     379A      1.858045   380A      1.863202   381A      1.868088  
     382A      1.886395   383A      1.897629   384A      1.903686  
     385A      1.904258   386A      1.906760   387A      1.920432  
     388A      1.930267   389A      1.931399   390A      1.939871  
     391A      1.940215   392A      1.948735   393A      1.950503  
     394A      1.963943   395A      1.973896   396A      1.974863  
     397A      1.981443   398A      1.985001   399A      1.993654  
     400A      2.000162   401A      2.011189   402A      2.017147  
     403A      2.022972   404A      2.024798   405A      2.036098  
     406A      2.039020   407A      2.050162   408A      2.058161  
     409A      2.066764   410A      2.069894   411A      2.075324  
     412A      2.077665   413A      2.082957   414A      2.090984  
     415A      2.097754   416A      2.110134   417A      2.118084  
     418A      2.119674   419A      2.122682   420A      2.147348  
     421A      2.149978   422A      2.152282   423A      2.163711  
     424A      2.189153   425A      2.189308   426A      2.197549  
     427A      2.199063   428A      2.211445   429A      2.220058  
     430A      2.236761   431A      2.244697   432A      2.250001  
     433A      2.253031   434A      2.274413   435A      2.286256  
     436A      2.293169   437A      2.295227   438A      2.305744  
     439A      2.308802   440A      2.313227   441A      2.323116  
     442A      2.331248   443A      2.339967   444A      2.341621  
     445A      2.348550   446A      2.349355   447A      2.374037  
     448A      2.374119   449A      2.381941   450A      2.398643  
     451A      2.404842   452A      2.418874   453A      2.423909  
     454A      2.428633   455A      2.454120   456A      2.462578  
     457A      2.472880   458A      2.473742   459A      2.493051  
     460A      2.496873   461A      2.508147   462A      2.517940  
     463A      2.520261   464A      2.538919   465A      2.542734  
     466A      2.554371   467A      2.564323   468A      2.572873  
     469A      2.586865   470A      2.595070   471A      2.626026  
     472A      2.634387   473A      2.642470   474A      2.653796  
     475A      2.675803   476A      2.686156   477A      2.697763  
     478A      2.743396   479A      2.744951   480A      2.761824  
     481A      2.788127   482A      2.791190   483A      2.811630  
     484A      2.813949   485A      2.932025   486A      2.956617  
     487A      3.002935   488A      3.025963   489A      3.100482  
     490A      3.183413   491A      3.200999   492A      3.208314  
     493A      3.316862   494A      3.359641   495A      3.372275  
     496A      3.427904   497A      3.441702   498A      3.444387  
     499A      3.469844   500A      3.470170   501A      3.495012  
     502A      3.511231   503A      3.539308   504A      3.540562  
     505A      3.548539   506A      3.552525   507A      3.557425  
     508A      3.578315   509A      3.587680   510A      3.592394  
     511A      3.615092   512A      3.619344   513A      3.635653  
     514A      3.646004   515A      3.654546   516A      3.665849  
     517A      3.675139   518A      3.684700   519A      3.690240  
     520A      3.706678   521A      3.716105   522A      3.725976  
     523A      3.734942   524A      3.748893   525A      3.753305  
     526A      3.755179   527A      3.759110   528A      3.779104  
     529A      3.789051   530A      3.797275   531A      3.799261  
     532A      3.808235   533A      3.816151   534A      3.821648  
     535A      3.826415   536A      3.833500   537A      3.839718  
     538A      3.845972   539A      3.849903   540A      3.875471  
     541A      3.880851   542A      3.888436   543A      3.895936  
     544A      3.908941   545A      3.913663   546A      3.922786  
     547A      3.929807   548A      3.933798   549A      3.939942  
     550A      3.943476   551A      3.945861   552A      3.951154  
     553A      3.961889   554A      3.972881   555A      3.988680  
     556A      3.991471   557A      4.007086   558A      4.009224  
     559A      4.021608   560A      4.030902   561A      4.046521  
     562A      4.051825   563A      4.058661   564A      4.066600  
     565A      4.074733   566A      4.089748   567A      4.096043  
     568A      4.099150   569A      4.099674   570A      4.109981  
     571A      4.110881   572A      4.113120   573A      4.113967  
     574A      4.128821   575A      4.151880   576A      4.164619  
     577A      4.165853   578A      4.174134   579A      4.174278  
     580A      4.181568   581A      4.190305   582A      4.210893  
     583A      4.217413   584A      4.231858   585A      4.234473  
     586A      4.245815   587A      4.246268   588A      4.264348  
     589A      4.277201   590A      4.277267   591A      4.284961  
     592A      4.296140   593A      4.299820   594A      4.316044  
     595A      4.321412   596A      4.340023   597A      4.342761  
     598A      4.355367   599A      4.364053   600A      4.377079  
     601A      4.395197   602A      4.411266   603A      4.416332  
     604A      4.427655   605A      4.443772   606A      4.446589  
     607A      4.464135   608A      4.464240   609A      4.486755  
     610A      4.490147   611A      4.513070   612A      4.524492  
     613A      4.534011   614A      4.534251   615A      4.553756  
     616A      4.575097   617A      4.578302   618A      4.585803  
     619A      4.604808   620A      4.608687   621A      4.634265  
     622A      4.639770   623A      4.648663   624A      4.654653  
     625A      4.693560   626A      4.696851   627A      4.698190  
     628A      4.707748   629A      4.710672   630A      4.721960  
     631A      4.742950   632A      4.765244   633A      4.768077  
     634A      4.771047   635A      4.783608   636A      4.798665  
     637A      4.803676   638A      4.821929   639A      4.823581  
     640A      4.842429   641A      4.853533   642A      4.868477  
     643A      4.881250   644A      4.895439   645A      4.897617  
     646A      4.925817   647A      4.927499   648A      4.934916  
     649A      4.951766   650A      4.953113   651A      4.965932  
     652A      4.969544   653A      4.982808   654A      4.986192  
     655A      5.003327   656A      5.005432   657A      5.017541  
     658A      5.028016   659A      5.033937   660A      5.064262  
     661A      5.081394   662A      5.091805   663A      5.104870  
     664A      5.109684   665A      5.121366   666A      5.127413  
     667A      5.150642   668A      5.152768   669A      5.179115  
     670A      5.182698   671A      5.194771   672A      5.215445  
     673A      5.217676   674A      5.236005   675A      5.246037  
     676A      5.265920   677A      5.270639   678A      5.279086  
     679A      5.284087   680A      5.292605   681A      5.295039  
     682A      5.300778   683A      5.328878   684A      5.332047  
     685A      5.343268   686A      5.352437   687A      5.379046  
     688A      5.382272   689A      5.390452   690A      5.390649  
     691A      5.410793   692A      5.423994   693A      5.428626  
     694A      5.446872   695A      5.456518   696A      5.458041  
     697A      5.476471   698A      5.478489   699A      5.489647  
     700A      5.500662   701A      5.530579   702A      5.539694  
     703A      5.551626   704A      5.553116   705A      5.577728  
     706A      5.588962   707A      5.590115   708A      5.614572  
     709A      5.623067   710A      5.635260   711A      5.656595  
     712A      5.662733   713A      5.676433   714A      5.682032  
     715A      5.696483   716A      5.707997   717A      5.714913  
     718A      5.721481   719A      5.726707   720A      5.743505  
     721A      5.765544   722A      5.780064   723A      5.798182  
     724A      5.810988   725A      5.817304   726A      5.837658  
     727A      5.842636   728A      5.862250   729A      5.901850  
     730A      5.904827   731A      5.942688   732A      5.954848  
     733A      5.972644   734A      6.015648   735A      6.056269  
     736A      6.065323   737A      6.081218   738A      6.094352  
     739A      6.098261   740A      6.120197   741A      6.146500  
     742A      6.164959   743A      6.189443   744A      6.205228  
     745A      6.235237   746A      6.237436   747A      6.249417  
     748A      6.265606   749A      6.275678   750A      6.308048  
     751A      6.323702   752A      6.331768   753A      6.362298  
     754A      6.374433   755A      6.397417   756A      6.406961  
     757A      6.461839   758A      6.494078   759A      6.613197  
     760A      6.631812   761A      6.644810   762A      6.681682  
     763A      6.760957   764A      6.770938   765A      6.806180  
     766A      6.811201   767A      6.942325   768A      6.951952  
     769A      6.965727   770A      6.984194   771A      7.056741  
     772A      7.059075   773A      7.095226   774A      7.147927  
     775A     17.934691   776A     18.046694   777A     18.441646  
     778A     18.621955   779A     19.201728   780A     19.513442  
     781A     19.640532   782A     19.982453  

    Final Occupation by Irrep:
              A 
    DOCC [    33 ]

  Energy converged.

  @DF-RHF Final Energy:  -313.53389199370264

   => Energetics <=

    Nuclear Repulsion Energy =            397.2782289132139226
    One-Electron Energy =               -1209.7173076872297770
    Two-Electron Energy =                 498.9051867803131586
    DFT Exchange-Correlation Energy =       0.0000000000000000
    Empirical Dispersion Energy =           0.0000000000000000
    PCM Polarization Energy =               0.0000000000000000
    EFP Energy =                            0.0000000000000000
    Total Energy =                       -313.5338919937026390


  Saving occupied orbitals to File 180.

*** tstop() called on wr37 at Wed Sep 21 04:58:53 2016
Module time:
	user time   =     832.21 seconds =      13.87 minutes
	system time =      11.79 seconds =       0.20 minutes
	total time  =         79 seconds =       1.32 minutes
Total time:
	user time   =     832.21 seconds =      13.87 minutes
	system time =      11.79 seconds =       0.20 minutes
	total time  =         79 seconds =       1.32 minutes


Properties will be evaluated at   0.000000,   0.000000,   0.000000 Bohr

Properties computed using the SCF density matrix

  Nuclear Dipole Moment: (a.u.)
     X:     0.0000      Y:     0.0000      Z:     0.0000

  Electronic Dipole Moment: (a.u.)
     X:    -0.0000      Y:    -0.0000      Z:    -0.0000

  Dipole Moment: (a.u.)
     X:    -0.0000      Y:     0.0000      Z:    -0.0000     Total:     0.0000

  Dipole Moment: (Debye)
     X:    -0.0000      Y:     0.0000      Z:    -0.0000     Total:     0.0000


  //>>>>>>>>>>>>>>>>>>>>>>>>>>>>>>>>>>>//
  //               DFMP2               //
  //<<<<<<<<<<<<<<<<<<<<<<<<<<<<<<<<<<<//


*** tstart() called on wr37
*** at Wed Sep 21 04:58:53 2016


*** tstop() called on wr37 at Wed Sep 21 04:58:53 2016
Module time:
	user time   =       5.26 seconds =       0.09 minutes
	system time =       0.27 seconds =       0.00 minutes
	total time  =          0 seconds =       0.00 minutes
Total time:
	user time   =     839.04 seconds =      13.98 minutes
	system time =      12.18 seconds =       0.20 minutes
	total time  =         79 seconds =       1.32 minutes
	 --------------------------------------------------------
	                          DF-MP2                         
	      2nd-Order Density-Fitted Moller-Plesset Theory     
	              RMP2 Wavefunction,  12 Threads             
	                                                         
	        Rob Parrish, Justin Turney, Andy Simmonett,      
	           Ed Hohenstein, and C. David Sherrill          
	 --------------------------------------------------------

   => Auxiliary Basis Set <=

  Basis Set: 
    Number of shells: 476
    Number of basis function: 1676
    Number of Cartesian functions: 2078
    Spherical Harmonics?: true
    Max angular momentum: 4

	 --------------------------------------------------------
	                 NBF =   782, NAUX =  1676
	 --------------------------------------------------------
	   CLASS    FOCC     OCC    AOCC    AVIR     VIR    FVIR
	   PAIRS       8      33      25     749     749       0
	 --------------------------------------------------------

DGAS Warning! /src/lib/libfock/apps.cc:80 is not currently checking restricted

         ------------------------------------------------------------
                                     CPHF                           
                                  Rob Parrish                       
         ------------------------------------------------------------

  ==> Geometry <==

    Molecular point group: c1
    Full point group: C1

    Geometry (in Angstrom), charge = 0, multiplicity = 1:

       Center              X                  Y                   Z               Mass       
    ------------   -----------------  -----------------  -----------------  -----------------
           C          3.000972216099    -1.043579928721    -0.008215666224    12.000000000000
           H          2.854007407967    -1.317942990772    -1.054001240668     1.007825032070
           H          2.241438847646    -1.555676472929     0.582355638666     1.007825032070
           H          3.973010912524    -1.424277917143     0.305234454832     1.007825032070
           C         -3.000964954739     1.043587960745     0.008236816092    12.000000000000
           H         -2.854012286517     1.317931556115     1.054028682110     1.007825032070
           H         -3.972997265677     1.424296627713    -0.305218949494     1.007825032070
           H         -2.241421478719     1.555690354565    -0.582315548068     1.007825032070
           C          2.922543625175     0.467816338950     0.174214608488    12.000000000000
           H          3.756084914074     0.937326979258    -0.353462733076     1.007825032070
           H          3.051134617111     0.709997300231     1.232811548070     1.007825032070
           C         -2.922543411094    -0.467805271918    -0.174218671785    12.000000000000
           H         -3.756089123025    -0.937320581217     0.353446905135     1.007825032070
           H         -3.051131028997    -0.709967616871    -1.232820072962     1.007825032070
           C          1.614271343185     1.090027472258    -0.313257975566    12.000000000000
           H          1.518208228295     0.929835259334    -1.391967060852     1.007825032070
           H          1.678235506963     2.170660564640    -0.169442271920     1.007825032070
           C          0.361439937211     0.548321551109     0.391317417740    12.000000000000
           H         -0.338203514869     1.363259222074     0.582336035925     1.007825032070
           H          0.639945348499     0.155388461376     1.375120857939     1.007825032070
           C         -0.361442297692    -0.548334629998    -0.391325499477    12.000000000000
           H         -0.639943515110    -0.155405692148    -1.375131748959     1.007825032070
           H          0.338200068797    -1.363274977033    -0.582337823875     1.007825032070
           C         -1.614276881927    -1.090033716130     0.313247584170    12.000000000000
           H         -1.678252441020    -2.170664982777     0.169421809864     1.007825032070
           H         -1.518210152049    -0.929852430827     1.391958026905     1.007825032070

  Nuclear repulsion =  397.278228913213923
  Reference energy  = -313.533891993702639

  ==> Basis Set <==

  Basis Set: AUG-CC-PVTZ
    Number of shells: 274
    Number of basis function: 782
    Number of Cartesian functions: 890
    Spherical Harmonics?: true
    Max angular momentum: 3

  ==> CGRSolver (by Rob Parrish) <==

   Number of roots    =         1
   Preconditioning    =    JACOBI
   Convergence cutoff =     1E-06
   Maximum iterations =       100

  ==> CPHFRHamiltonian (by Rob Parrish) <== 

  ==> DFJK: Density-Fitted J/K Matrices <==

    J tasked:                  Yes
    K tasked:                  Yes
    wK tasked:                  No
    OpenMP threads:             12
    Integrals threads:          12
    Memory (MB):             42915
    Algorithm:                Core
    Integral Cache:           NONE
    Schwarz Cutoff:          1E-12
    Fitting Condition:       1E-12

   => Auxiliary Basis Set <=

  Basis Set: 
    Number of shells: 492
    Number of basis function: 1660
    Number of Cartesian functions: 2038
    Spherical Harmonics?: true
    Max angular momentum: 4

  ==> CPHF Iterations <==

  => Iterations <=

             Iter  Converged  Remaining    Residual
  CGR           1          0          1   9.221E-02
  CGR           2          0          1   1.296E-02
  CGR           3          0          1   3.271E-03
  CGR           4          0          1   7.958E-04
  CGR           5          0          1   2.008E-04
  CGR           6          0          1   4.046E-05
  CGR           7          0          1   1.195E-05
  CGR           8          0          1   2.659E-06
  CGR           9          1          0   5.388E-07

    CGRSolver converged.

  ==> DFCorrGrad: Density-Fitted Correlated Gradients <==

    OpenMP threads:             12
    Integrals threads:          12
    Memory (MB):             42915
    Schwarz Cutoff:          0E+00
    Fitting Condition:       1E-12

   => Auxiliary Basis Set <=

  Basis Set: 
    Number of shells: 492
    Number of basis function: 1660
    Number of Cartesian functions: 2038
    Spherical Harmonics?: true
    Max angular momentum: 4

	-----------------------------------------------------------
	 ==================> DF-MP2 Energies <==================== 
	-----------------------------------------------------------
	 Reference Energy          =    -313.5338919937026390 [Eh]
	 Singles Energy            =      -0.0000000000000002 [Eh]
	 Same-Spin Energy          =      -0.3167519595694093 [Eh]
	 Opposite-Spin Energy      =      -1.1265250028126839 [Eh]
	 Correlation Energy        =      -1.4432769623820934 [Eh]
	 Total Energy              =    -314.9771689560847108 [Eh]
	-----------------------------------------------------------
	 ================> DF-SCS-MP2 Energies <================== 
	-----------------------------------------------------------
	 SCS Same-Spin Scale       =       0.3333333333333333 [-]
	 SCS Opposite-Spin Scale   =       1.2000000000000000 [-]
	 SCS Same-Spin Energy      =      -0.1055839865231364 [Eh]
	 SCS Opposite-Spin Energy  =      -1.3518300033752206 [Eh]
	 SCS Correlation Energy    =      -1.4574139898983574 [Eh]
	 SCS Total Energy          =    -314.9913059836010234 [Eh]
	-----------------------------------------------------------


  -Total Gradient:
     Atom            X                  Y                   Z
    ------   -----------------  -----------------  -----------------
       1        0.000000209125     0.000000156971     0.000000078722
       2       -0.000000089348    -0.000000076606    -0.000000126030
       3       -0.000000046763    -0.000000073361     0.000000108487
       4        0.000000070881    -0.000000131710     0.000000019850
       5       -0.000000095267     0.000000008252    -0.000000022557
       6       -0.000000031883    -0.000000020993    -0.000000077224
       7        0.000000078301     0.000000015019     0.000000020138
       8        0.000000006241    -0.000000013159     0.000000116404
       9        0.000000025748     0.000000066528    -0.000000195088
      10        0.000000056352    -0.000000046190     0.000000013775
      11       -0.000000010928    -0.000000000293     0.000000060764
      12        0.000000091547     0.000000411114     0.000000033584
      13       -0.000000019940    -0.000000043560     0.000000011592
      14       -0.000000001423    -0.000000030151    -0.000000017832
      15        0.000000106665     0.000000163091     0.000000196573
      16        0.000000018417     0.000000001970     0.000000065589
      17       -0.000000081757    -0.000000028961    -0.000000022994
      18       -0.000000214091    -0.000000051334    -0.000000492304
      19       -0.000000052117     0.000000150623     0.000000046417
      20        0.000000006855    -0.000000154004     0.000000040798
      21       -0.000000273253    -0.000000152707     0.000000425034
      22        0.000000000958    -0.000000081303     0.000000077565
      23        0.000000020474    -0.000000125769    -0.000000144634
      24        0.000000193756     0.000000320930    -0.000000465019
      25        0.000000008981    -0.000000315358     0.000000010092
      26        0.000000022470     0.000000050963     0.000000238297


			-----------------------------------------
			 OPTKING 2.0: for geometry optimizations 
			  - R.A. King,  Bethel University        
			-----------------------------------------

	Internal coordinates to be generated automatically.
	Detected frag 1 with atoms:  1 2 3 4 5 6 7 8 9 10 11 12 13 14 15 16 17 18 19 20
	 21 22 23 24 25 26
	---Fragment 1 Bond Connectivity---
	 1 : 2 3 4 9
	 2 : 1
	 3 : 1
	 4 : 1
	 5 : 6 7 8 12
	 6 : 5
	 7 : 5
	 8 : 5
	 9 : 1 10 11 15
	 10 : 9
	 11 : 9
	 12 : 5 13 14 24
	 13 : 12
	 14 : 12
	 15 : 9 16 17 18
	 16 : 15
	 17 : 15
	 18 : 15 19 20 21
	 19 : 18
	 20 : 18
	 21 : 18 22 23 24
	 22 : 21
	 23 : 21
	 24 : 12 21 25 26
	 25 : 24
	 26 : 24

	---Fragment 1 Geometry and Gradient---
	 C           5.6710156208       -1.9720802631       -0.0155253592
	 H           5.3932923823       -2.4905513113       -1.9917736886
	 H           4.2357055657       -2.9398024852        1.1004926690
	 H           7.5079025476       -2.6914952005        0.5768095260
	 C          -5.6710018988        1.9720954414        0.0155653266
	 H          -5.3933016014        2.4905297029        1.9918255454
	 H          -7.5078767588        2.6915305584       -0.5767802251
	 H          -4.2356727431        2.9398287177       -1.1004169088
	 C           5.5228070630        0.8840447611        0.3292178984
	 H           7.0979718195        1.7712912878       -0.6679477637
	 H           5.7658088209        1.3417004525        2.3296761993
	 C          -5.5228066584       -0.8840238474       -0.3292255769
	 H          -7.0979797732       -1.7712791972        0.6679178532
	 H          -5.7658020404       -1.3416443591       -2.3296923090
	 C           3.0505307428        2.0598533999       -0.5919717828
	 H           2.8689977642        1.7571339888       -2.6304365310
	 H           3.1714054946        4.1019539946       -0.3201994893
	 C           0.6830224948        1.0361775644        0.7394827506
	 H          -0.6391120203        2.5761865779        1.1004556252
	 H           1.2093214487        0.2936416362        2.5986018211
	 C          -0.6830269555       -1.0362022799       -0.7394980228
	 H          -1.2093179841       -0.2936741977       -2.5986224022
	 H           0.6391055081       -2.5762163504       -1.1004590039
	 C          -3.0505412095       -2.0598651991        0.5919521459
	 H          -3.1714374954       -4.1019623437        0.3201608216
	 H          -2.8690013995       -1.7571664383        2.6304194593
	             0.0000002091        0.0000001570        0.0000000787
	            -0.0000000893       -0.0000000766       -0.0000001260
	            -0.0000000468       -0.0000000734        0.0000001085
	             0.0000000709       -0.0000001317        0.0000000198
	            -0.0000000953        0.0000000083       -0.0000000226
	            -0.0000000319       -0.0000000210       -0.0000000772
	             0.0000000783        0.0000000150        0.0000000201
	             0.0000000062       -0.0000000132        0.0000001164
	             0.0000000257        0.0000000665       -0.0000001951
	             0.0000000564       -0.0000000462        0.0000000138
	            -0.0000000109       -0.0000000003        0.0000000608
	             0.0000000915        0.0000004111        0.0000000336
	            -0.0000000199       -0.0000000436        0.0000000116
	            -0.0000000014       -0.0000000302       -0.0000000178
	             0.0000001067        0.0000001631        0.0000001966
	             0.0000000184        0.0000000020        0.0000000656
	            -0.0000000818       -0.0000000290       -0.0000000230
	            -0.0000002141       -0.0000000513       -0.0000004923
	            -0.0000000521        0.0000001506        0.0000000464
	             0.0000000069       -0.0000001540        0.0000000408
	            -0.0000002733       -0.0000001527        0.0000004250
	             0.0000000010       -0.0000000813        0.0000000776
	             0.0000000205       -0.0000001258       -0.0000001446
	             0.0000001938        0.0000003209       -0.0000004650
	             0.0000000090       -0.0000003154        0.0000000101
	             0.0000000225        0.0000000510        0.0000002383

	Previous optimization step data not found.  Starting new optimization.

	---Fragment 1 Intrafragment Coordinates---
	 - Coordinate -           - BOHR/RAD -       - ANG/DEG -
	 R(1,2)           =         2.061917	       1.091119
	 R(1,3)           =         2.059635	       1.089912
	 R(1,4)           =         2.059750	       1.089973
	 R(1,9)           =         2.880671	       1.524385
	 R(5,6)           =         2.061916	       1.091119
	 R(5,7)           =         2.059750	       1.089973
	 R(5,8)           =         2.059634	       1.089912
	 R(5,12)          =         2.880670	       1.524385
	 R(9,10)          =         2.064628	       1.092554
	 R(9,11)          =         2.066478	       1.093533
	 R(9,15)          =         2.888471	       1.528513
	 R(12,13)         =         2.064628	       1.092554
	 R(12,14)         =         2.066478	       1.093533
	 R(12,24)         =         2.888472	       1.528513
	 R(15,16)         =         2.068800	       1.094762
	 R(15,17)         =         2.063649	       1.092036
	 R(15,18)         =         2.902719	       1.536053
	 R(18,19)         =         2.061545	       1.090923
	 R(18,20)         =         2.069945	       1.095368
	 R(18,21)         =         2.889331	       1.528968
	 R(21,22)         =         2.069945	       1.095368
	 R(21,23)         =         2.061546	       1.090923
	 R(21,24)         =         2.902718	       1.536052
	 R(24,25)         =         2.063649	       1.092036
	 R(24,26)         =         2.068800	       1.094762
	 B(1,9,10)        =         1.906065	     109.209476
	 B(1,9,11)        =         1.906444	     109.231189
	 B(1,9,15)        =         1.992670	     114.171574
	 B(2,1,3)         =         1.883184	     107.898483
	 B(2,1,4)         =         1.883803	     107.933990
	 B(2,1,9)         =         1.935937	     110.921043
	 B(3,1,4)         =         1.877108	     107.550383
	 B(3,1,9)         =         1.944588	     111.416689
	 B(4,1,9)         =         1.936668	     110.962923
	 B(5,12,13)       =         1.906065	     109.209487
	 B(5,12,14)       =         1.906444	     109.231190
	 B(5,12,24)       =         1.992672	     114.171672
	 B(6,5,7)         =         1.883803	     107.933985
	 B(6,5,8)         =         1.883184	     107.898499
	 B(6,5,12)        =         1.935937	     110.921031
	 B(7,5,8)         =         1.877108	     107.550391
	 B(7,5,12)        =         1.936668	     110.962887
	 B(8,5,12)        =         1.944589	     111.416719
	 B(9,15,16)       =         1.906870	     109.255589
	 B(9,15,17)       =         1.886710	     108.100536
	 B(9,15,18)       =         1.991336	     114.095141
	 B(10,9,11)       =         1.857361	     106.418965
	 B(10,9,15)       =         1.900790	     108.907225
	 B(11,9,15)       =         1.895710	     108.616177
	 B(12,24,21)      =         1.991335	     114.095085
	 B(12,24,25)      =         1.886710	     108.100496
	 B(12,24,26)      =         1.906871	     109.255661
	 B(13,12,14)      =         1.857361	     106.418960
	 B(13,12,24)      =         1.900789	     108.907194
	 B(14,12,24)      =         1.895709	     108.616097
	 B(15,18,19)      =         1.917664	     109.874062
	 B(15,18,20)      =         1.908270	     109.335828
	 B(15,18,21)      =         1.986430	     113.814054
	 B(16,15,17)      =         1.854280	     106.242414
	 B(16,15,18)      =         1.905823	     109.195596
	 B(17,15,18)      =         1.913829	     109.654320
	 B(18,21,22)      =         1.899334	     108.823841
	 B(18,21,23)      =         1.898861	     108.796733
	 B(18,21,24)      =         1.986429	     113.813978
	 B(19,18,20)      =         1.848108	     105.888777
	 B(19,18,21)      =         1.898862	     108.796781
	 B(20,18,21)      =         1.899332	     108.823706
	 B(21,24,25)      =         1.913829	     109.654304
	 B(21,24,26)      =         1.905823	     109.195630
	 B(22,21,23)      =         1.848108	     105.888779
	 B(22,21,24)      =         1.908270	     109.335809
	 B(23,21,24)      =         1.917664	     109.874074
	 B(25,24,26)      =         1.854280	     106.242425
	 D(1,9,15,16)     =        -1.096290	     -62.812773
	 D(1,9,15,17)     =        -3.107023	    -178.019305
	 D(1,9,15,18)     =         1.042267	      59.717506
	 D(2,1,9,10)      =        -1.138461	     -65.229001
	 D(2,1,9,11)      =         3.119931	     178.758877
	 D(2,1,9,15)      =         0.993885	      56.945425
	 D(3,1,9,10)      =         3.046433	     174.547729
	 D(3,1,9,11)      =         1.021639	      58.535607
	 D(3,1,9,15)      =        -1.104407	     -63.277845
	 D(4,1,9,10)      =         0.955335	      54.736662
	 D(4,1,9,11)      =        -1.069459	     -61.275461
	 D(4,1,9,15)      =         3.087681	     176.911087
	 D(5,12,24,21)    =        -1.042279	     -59.718163
	 D(5,12,24,25)    =         3.107013	     178.018734
	 D(5,12,24,26)    =         1.096279	      62.812174
	 D(6,5,12,13)     =         1.138452	      65.228488
	 D(6,5,12,14)     =        -3.119940	    -178.759389
	 D(6,5,12,24)     =        -0.993895	     -56.945973
	 D(7,5,12,13)     =        -0.955343	     -54.737136
	 D(7,5,12,14)     =         1.069450	      61.274987
	 D(7,5,12,24)     =        -3.087690	    -176.911597
	 D(8,5,12,13)     =        -3.046441	    -174.548209
	 D(8,5,12,14)     =        -1.021647	     -58.536086
	 D(8,5,12,24)     =         1.104398	      63.277331
	 D(9,15,18,19)    =         2.444789	     140.076101
	 D(9,15,18,20)    =         0.423562	      24.268291
	 D(9,15,18,21)    =        -1.704226	     -97.644935
	 D(10,9,15,16)    =         1.038944	      59.527099
	 D(10,9,15,17)    =        -0.971789	     -55.679433
	 D(10,9,15,18)    =        -3.105685	    -177.942622
	 D(11,9,15,16)    =         3.054956	     175.036111
	 D(11,9,15,17)    =         1.044223	      59.829579
	 D(11,9,15,18)    =        -1.089672	     -62.433611
	 D(12,24,21,18)   =         1.704212	      97.644153
	 D(12,24,21,22)   =        -0.423577	     -24.269181
	 D(12,24,21,23)   =        -2.444805	    -140.076989
	 D(13,12,24,21)   =         3.105672	     177.941908
	 D(13,12,24,25)   =         0.971778	      55.678805
	 D(13,12,24,26)   =        -1.038955	     -59.527755
	 D(14,12,24,21)   =         1.089661	      62.432962
	 D(14,12,24,25)   =        -1.044233	     -59.830141
	 D(14,12,24,26)   =        -3.054967	    -175.036701
	 D(15,18,21,22)   =        -1.008863	     -57.803566
	 D(15,18,21,23)   =         0.997102	      57.129759
	 D(15,18,21,24)   =         3.141593	     180.000000
	 D(16,15,18,19)   =        -1.699267	     -97.360838
	 D(16,15,18,20)   =         2.562691	     146.831352
	 D(16,15,18,21)   =         0.434903	      24.918126
	 D(17,15,18,19)   =         0.325830	      18.668661
	 D(17,15,18,20)   =        -1.695398	     -97.139149
	 D(17,15,18,21)   =         2.460000	     140.947626
	 D(18,21,24,25)   =        -2.460016	    -140.948509
	 D(18,21,24,26)   =        -0.434918	     -24.918987
	 D(19,18,21,22)   =         1.135634	      65.067055
	 D(19,18,21,23)   =         3.141593	     180.000000
	 D(19,18,21,24)   =        -0.997090	     -57.129070
	 D(20,18,21,22)   =         3.141593	     180.000000
	 D(20,18,21,23)   =        -1.135622	     -65.066343
	 D(20,18,21,24)   =         1.008874	      57.804206
	 D(22,21,24,25)   =         1.695381	      97.138157
	 D(22,21,24,26)   =        -2.562707	    -146.832321
	 D(23,21,24,25)   =        -0.325847	     -18.669652
	 D(23,21,24,26)   =         1.699250	      97.359871
	 R(1,21)          =         6.463270	       3.420215
	 R(5,18)          =         6.463252	       3.420206

	Current energy   :      -314.9771689561

	Generating empirical Hessian (Schlegel '84) for each fragment.
	Taking RFO optimization step.
	Going to follow RFO solution 1.
	Using RFO vector 1.
	Norm of target step-size    0.00023
	Projected energy change by RFO approximation:        -0.0000000004

	Back-transformation to cartesian coordinates...
	Successfully converged to displaced geometry.

	--- Internal Coordinate Step in ANG or DEG, aJ/ANG or AJ/DEG ---
	 ---------------------------------------------------------------------------
	   Coordinate                Previous        Force       Change         New 
	   ----------                --------       ------       ------       ------
	    1 R(1,2)          =      1.091119    -0.000001    -0.000000     1.091119
	    2 R(1,3)          =      1.089912    -0.000001    -0.000000     1.089912
	    3 R(1,4)          =      1.089973    -0.000001    -0.000000     1.089973
	    4 R(1,9)          =      1.524385    -0.000000    -0.000000     1.524385
	    5 R(5,6)          =      1.091119     0.000001     0.000000     1.091119
	    6 R(5,7)          =      1.089973     0.000001     0.000000     1.089973
	    7 R(5,8)          =      1.089912     0.000001     0.000000     1.089912
	    8 R(5,12)         =      1.524385     0.000000     0.000000     1.524385
	    9 R(9,10)         =      1.092554    -0.000000    -0.000000     1.092554
	   10 R(9,11)         =      1.093533    -0.000000    -0.000000     1.093533
	   11 R(9,15)         =      1.528513    -0.000000    -0.000000     1.528513
	   12 R(12,13)        =      1.092554    -0.000000    -0.000000     1.092554
	   13 R(12,14)        =      1.093533    -0.000000    -0.000000     1.093533
	   14 R(12,24)        =      1.528513    -0.000001    -0.000000     1.528513
	   15 R(15,16)        =      1.094762     0.000001     0.000000     1.094762
	   16 R(15,17)        =      1.092036     0.000000     0.000000     1.092036
	   17 R(15,18)        =      1.536053    -0.000000    -0.000000     1.536053
	   18 R(18,19)        =      1.090923    -0.000001    -0.000000     1.090923
	   19 R(18,20)        =      1.095368    -0.000001    -0.000000     1.095368
	   20 R(18,21)        =      1.528968     0.000001     0.000000     1.528968
	   21 R(21,22)        =      1.095368     0.000001     0.000000     1.095368
	   22 R(21,23)        =      1.090923    -0.000001    -0.000000     1.090923
	   23 R(21,24)        =      1.536052     0.000003     0.000000     1.536052
	   24 R(24,25)        =      1.092036    -0.000003    -0.000000     1.092036
	   25 R(24,26)        =      1.094762    -0.000002    -0.000000     1.094761
	   26 B(1,9,10)       =    109.209476    -0.000000    -0.000034   109.209443
	   27 B(1,9,11)       =    109.231189     0.000000     0.000039   109.231228
	   28 B(1,9,15)       =    114.171574     0.000000     0.000033   114.171607
	   29 B(2,1,3)        =    107.898483     0.000000     0.000015   107.898497
	   30 B(2,1,4)        =    107.933990     0.000000    -0.000007   107.933982
	   31 B(2,1,9)        =    110.921043    -0.000000    -0.000014   110.921029
	   32 B(3,1,4)        =    107.550383     0.000000     0.000033   107.550416
	   33 B(3,1,9)        =    111.416689     0.000000     0.000021   111.416710
	   34 B(4,1,9)        =    110.962923    -0.000000    -0.000045   110.962878
	   35 B(5,12,13)      =    109.209487     0.000000     0.000060   109.209546
	   36 B(5,12,14)      =    109.231190    -0.000000    -0.000047   109.231143
	   37 B(5,12,24)      =    114.171672    -0.000000    -0.000116   114.171556
	   38 B(6,5,7)        =    107.933985     0.000000     0.000010   107.933995
	   39 B(6,5,8)        =    107.898499     0.000000     0.000022   107.898521
	   40 B(6,5,12)       =    110.921031     0.000000     0.000024   110.921054
	   41 B(7,5,8)        =    107.550391     0.000000    -0.000020   107.550372
	   42 B(7,5,12)       =    110.962887    -0.000000    -0.000022   110.962865
	   43 B(8,5,12)       =    111.416719    -0.000000    -0.000013   111.416706
	   44 B(9,15,16)      =    109.255589     0.000000     0.000045   109.255634
	   45 B(9,15,17)      =    108.100536    -0.000000    -0.000070   108.100466
	   46 B(9,15,18)      =    114.095141    -0.000000    -0.000025   114.095116
	   47 B(10,9,11)      =    106.418965     0.000000    -0.000009   106.418955
	   48 B(10,9,15)      =    108.907225    -0.000000    -0.000040   108.907186
	   49 B(11,9,15)      =    108.616177    -0.000000     0.000009   108.616186
	   50 B(12,24,21)     =    114.095085     0.000000    -0.000046   114.095039
	   51 B(12,24,25)     =    108.100496    -0.000000    -0.000001   108.100495
	   52 B(12,24,26)     =    109.255661     0.000000    -0.000004   109.255657
	   53 B(13,12,14)     =    106.418960    -0.000000     0.000036   106.418996
	   54 B(13,12,24)     =    108.907194     0.000000     0.000047   108.907242
	   55 B(14,12,24)     =    108.616097     0.000000     0.000030   108.616127
	   56 B(15,18,19)     =    109.874062     0.000000    -0.000068   109.873993
	   57 B(15,18,20)     =    109.335828     0.000000     0.000096   109.335923
	   58 B(15,18,21)     =    113.814054    -0.000000    -0.000075   113.813979
	   59 B(16,15,17)     =    106.242414    -0.000000     0.000009   106.242424
	   60 B(16,15,18)     =    109.195596     0.000000     0.000066   109.195662
	   61 B(17,15,18)     =    109.654320     0.000000    -0.000025   109.654295
	   62 B(18,21,22)     =    108.823841    -0.000000     0.000036   108.823877
	   63 B(18,21,23)     =    108.796733    -0.000000    -0.000099   108.796634
	   64 B(18,21,24)     =    113.813978     0.000000    -0.000019   113.813959
	   65 B(19,18,20)     =    105.888777    -0.000000    -0.000008   105.888769
	   66 B(19,18,21)     =    108.796781     0.000000    -0.000015   108.796765
	   67 B(20,18,21)     =    108.823706     0.000000     0.000076   108.823782
	   68 B(21,24,25)     =    109.654304     0.000000     0.000063   109.654367
	   69 B(21,24,26)     =    109.195630    -0.000000    -0.000035   109.195595
	   70 B(22,21,23)     =    105.888779     0.000000     0.000049   105.888828
	   71 B(22,21,24)     =    109.335809     0.000000    -0.000016   109.335792
	   72 B(23,21,24)     =    109.874074    -0.000000     0.000055   109.874128
	   73 B(25,24,26)     =    106.242425     0.000000     0.000027   106.242452
	   74 D(1,9,15,16)    =    -62.812773     0.000000     0.002066   -62.810707
	   75 D(1,9,15,17)    =   -178.019305     0.000000     0.002069  -178.017236
	   76 D(1,9,15,18)    =     59.717506     0.000000     0.002168    59.719674
	   77 D(2,1,9,10)     =    -65.229001     0.000000     0.000916   -65.228084
	   78 D(2,1,9,11)     =    178.758877     0.000000     0.000925   178.759802
	   79 D(2,1,9,15)     =     56.945425     0.000000     0.000862    56.946287
	   80 D(3,1,9,10)     =    174.547729     0.000000     0.000893   174.548622
	   81 D(3,1,9,11)     =     58.535607     0.000000     0.000902    58.536508
	   82 D(3,1,9,15)     =    -63.277845     0.000000     0.000839   -63.277006
	   83 D(4,1,9,10)     =     54.736662     0.000000     0.000868    54.737530
	   84 D(4,1,9,11)     =    -61.275461     0.000000     0.000877   -61.274584
	   85 D(4,1,9,15)     =    176.911087    -0.000000     0.000814   176.911901
	   86 D(5,12,24,21)   =    -59.718163     0.000000     0.002767   -59.715396
	   87 D(5,12,24,25)   =    178.018734     0.000000     0.002717   178.021452
	   88 D(5,12,24,26)   =     62.812174     0.000000     0.002687    62.814861
	   89 D(6,5,12,13)    =     65.228488     0.000000     0.000859    65.229347
	   90 D(6,5,12,14)    =   -178.759389     0.000000     0.000909  -178.758480
	   91 D(6,5,12,24)    =    -56.945973     0.000000     0.000833   -56.945139
	   92 D(7,5,12,13)    =    -54.737136     0.000000     0.000846   -54.736290
	   93 D(7,5,12,14)    =     61.274987     0.000000     0.000896    61.275883
	   94 D(7,5,12,24)    =   -176.911597     0.000000     0.000820  -176.910777
	   95 D(8,5,12,13)    =   -174.548209     0.000000     0.000894  -174.547315
	   96 D(8,5,12,14)    =    -58.536086     0.000000     0.000944   -58.535142
	   97 D(8,5,12,24)    =     63.277331     0.000000     0.000868    63.278199
	   98 D(9,15,18,19)   =    140.076101    -0.000000     0.001512   140.077613
	   99 D(9,15,18,20)   =     24.268291    -0.000000     0.001505    24.269796
	  100 D(9,15,18,21)   =    -97.644935    -0.000000     0.001387   -97.643547
	  101 D(10,9,15,16)   =     59.527099     0.000000     0.002015    59.529114
	  102 D(10,9,15,17)   =    -55.679433     0.000000     0.002018   -55.677415
	  103 D(10,9,15,18)   =   -177.942622     0.000000     0.002118  -177.940505
	  104 D(11,9,15,16)   =    175.036111    -0.000000     0.001987   175.038098
	  105 D(11,9,15,17)   =     59.829579     0.000000     0.001990    59.831569
	  106 D(11,9,15,18)   =    -62.433611     0.000000     0.002090   -62.431521
	  107 D(12,24,21,18)  =     97.644153     0.000000     0.001869    97.646021
	  108 D(12,24,21,22)  =    -24.269181     0.000000     0.001847   -24.267334
	  109 D(12,24,21,23)  =   -140.076989    -0.000000     0.001767  -140.075223
	  110 D(13,12,24,21)  =    177.941908     0.000000     0.002734   177.944642
	  111 D(13,12,24,25)  =     55.678805     0.000000     0.002684    55.681489
	  112 D(13,12,24,26)  =    -59.527755     0.000000     0.002654   -59.525101
	  113 D(14,12,24,21)  =     62.432962     0.000000     0.002651    62.435613
	  114 D(14,12,24,25)  =    -59.830141    -0.000000     0.002601   -59.827540
	  115 D(14,12,24,26)  =   -175.036701    -0.000000     0.002571  -175.034131
	  116 D(15,18,21,22)  =    -57.803566     0.000000    -0.001139   -57.804705
	  117 D(15,18,21,23)  =     57.129759    -0.000000    -0.001115    57.128644
	  118 D(15,18,21,24)  =    180.000000    -0.000000    -0.000823   179.999177
	  119 D(16,15,18,19)  =    -97.360838     0.000000     0.001603   -97.359236
	  120 D(16,15,18,20)  =    146.831352     0.000000     0.001596   146.832948
	  121 D(16,15,18,21)  =     24.918126    -0.000000     0.001478    24.919604
	  122 D(17,15,18,19)  =     18.668661     0.000000     0.001638    18.670299
	  123 D(17,15,18,20)  =    -97.139149     0.000000     0.001631   -97.137518
	  124 D(17,15,18,21)  =    140.947626     0.000000     0.001513   140.949139
	  125 D(18,21,24,25)  =   -140.948509     0.000000     0.001883  -140.946626
	  126 D(18,21,24,26)  =    -24.918987     0.000000     0.001932   -24.917055
	  127 D(19,18,21,22)  =     65.067055     0.000000    -0.001291    65.065765
	  128 D(19,18,21,23)  =    180.000000    -0.000000    -0.000886   179.999114
	  129 D(19,18,21,24)  =    -57.129070    -0.000000    -0.001283   -57.130353
	  130 D(20,18,21,22)  =    180.000000     0.000000    -0.000936   179.999064
	  131 D(20,18,21,23)  =    -65.066343     0.000000    -0.001244   -65.067586
	  132 D(20,18,21,24)  =     57.804206    -0.000000    -0.001260    57.802946
	  133 D(22,21,24,25)  =     97.138157     0.000000     0.001862    97.140018
	  134 D(22,21,24,26)  =   -146.832321     0.000000     0.001910  -146.830411
	  135 D(23,21,24,25)  =    -18.669652    -0.000000     0.001781   -18.667870
	  136 D(23,21,24,26)  =     97.359871    -0.000000     0.001830    97.361701
	  137 R(1,21)         =      3.420215    -0.000002    -0.000010     3.420205
	  138 R(5,18)         =      3.420206     0.000001     0.000009     3.420215
	 ---------------------------------------------------------------------------

  ==> Convergence Check <==

  Measures of convergence in internal coordinates in au.
  Criteria marked as inactive (o), active & met (*), and active & unmet ( ).
  --------------------------------------------------------------------------------------------- ~
   Step     Total Energy     Delta E     MAX Force     RMS Force      MAX Disp      RMS Disp    ~
  --------------------------------------------------------------------------------------------- ~
    Convergence Criteria             o    2.00e-06 *    1.00e-06 *    6.00e-06 *    4.00e-06 *  ~
  --------------------------------------------------------------------------------------------- ~
      1    -314.97716896   -3.15e+02 o    3.20e-07 *    8.25e-08 *    4.83e-05      2.01e-05    ~
  ---------------------------------------------------------------------------------------------

	Writing optimization data to binary file.
	Structure for next step:
	Cartesian Geometry (in Angstrom)
	    C     3.0009653617  -1.0435904784  -0.0082752424
	    H     2.8540260243  -1.3178971223  -1.0540789596
	    H     2.2414137778  -1.5557135032   0.5822493442
	    H     3.9729937954  -1.4243103711   0.3051794951
	    C    -3.0009670100   1.0435763599   0.0081717795
	    H    -2.8539820084   1.3179815797   1.0539430726
	    H    -3.9730108079   1.4242630596  -0.3052754188
	    H    -2.2414444261   1.5556470963  -0.5824351115
	    C     2.9225418795   0.4677966143   0.1742326847
	    H     3.7560909009   0.9373302099  -0.3534119491
	    H     3.0511232533   0.7099227374   1.2328432430
	    C    -2.9225458892  -0.4678272119  -0.1741985848
	    H    -3.7560813759  -0.9373148062   0.3535076633
	    H    -3.0511502794  -0.7100494106  -1.2327842141
	    C     1.6142782655   1.0900400386  -0.3132218976
	    H     1.5182078094   0.9298728451  -1.3919341476
	    H     1.6782622796   2.1706689038  -0.1693829120
	    C     0.3614409809   0.5483414756   0.3913485518
	    H    -0.3381983806   1.3632835620   0.5823619493
	    H     0.6399381249   0.1554081658   1.3751540860
	    C    -0.3614433636  -0.5483103101  -0.3912987760
	    H    -0.6399561351  -0.1553732338  -1.3750986777
	    H     0.3382022761  -1.3632443769  -0.5823247274
	    C    -1.6142690336  -1.0900224142   0.3132811602
	    H    -1.6782239727  -2.1706569112   0.1694741654
	    H    -1.5182074247  -0.9298200583   1.3919885462
			--------------------------
			 OPTKING Finished Execution 
			--------------------------

    Structure for next step:
    Molecular point group: c1
    Full point group: C1

    Geometry (in Angstrom), charge = 0, multiplicity = 1:

    C            3.000965206137    -1.043590892295    -0.008279196829
    H            2.854025868769    -1.317897536132    -1.054082914027
    H            2.241413622240    -1.555713917050     0.582245389738
    H            3.972993639846    -1.424310784978     0.305175540691
    C           -3.000967165539     1.043575945991     0.008167825045
    H           -2.853982163923     1.317981165804     1.053939118226
    H           -3.973010963451     1.424262645757    -0.305279373191
    H           -2.241444581591     1.555646682439    -0.582439065885
    C            2.922541723940     0.467796200437     0.174228730318
    H            3.756090745329     0.937329796023    -0.353415903555
    H            3.051123097814     0.709922323580     1.232839288592
    C           -2.922546044707    -0.467827625748    -0.174202539229
    H           -3.756081531402    -0.937315220065     0.353503708856
    H           -3.051150434953    -0.710049824457    -1.232788168481
    C            1.614278109959     1.090039624733    -0.313225852012
    H            1.518207653890     0.929872431263    -1.391938101998
    H            1.678262124081     2.170668489976    -0.169386866392
    C            0.361440825414     0.548341061741     0.391344597388
    H           -0.338198536135     1.363283148132     0.582357994883
    H            0.639937969424     0.155407751943     1.375150131619
    C           -0.361443519154    -0.548310723955    -0.391302730405
    H           -0.639956290587    -0.155373647714    -1.375102632106
    H            0.338202120621    -1.363244790812    -0.582328681792
    C           -1.614269189093    -1.090022828022     0.313277205819
    H           -1.678224128188    -2.170657325077     0.169470210967
    H           -1.518207580206    -0.929820472134     1.391984591821

gradient() will perform analytic gradient computation.

*** tstart() called on wr37
*** at Wed Sep 21 05:04:44 2016


         ---------------------------------------------------------
                                   SCF
            by Justin Turney, Rob Parrish, and Andy Simmonett
                              RHF Reference
                       12 Threads,  60000 MiB Core
         ---------------------------------------------------------

  ==> Geometry <==

    Molecular point group: c1
    Full point group: C1

    Geometry (in Angstrom), charge = 0, multiplicity = 1:

       Center              X                  Y                   Z               Mass       
    ------------   -----------------  -----------------  -----------------  -----------------
           C          3.000965206137    -1.043590892295    -0.008279196829    12.000000000000
           H          2.854025868769    -1.317897536132    -1.054082914027     1.007825032070
           H          2.241413622240    -1.555713917050     0.582245389738     1.007825032070
           H          3.972993639846    -1.424310784978     0.305175540691     1.007825032070
           C         -3.000967165539     1.043575945991     0.008167825045    12.000000000000
           H         -2.853982163923     1.317981165804     1.053939118226     1.007825032070
           H         -3.973010963451     1.424262645757    -0.305279373191     1.007825032070
           H         -2.241444581591     1.555646682439    -0.582439065885     1.007825032070
           C          2.922541723940     0.467796200437     0.174228730318    12.000000000000
           H          3.756090745329     0.937329796023    -0.353415903555     1.007825032070
           H          3.051123097814     0.709922323580     1.232839288592     1.007825032070
           C         -2.922546044707    -0.467827625748    -0.174202539229    12.000000000000
           H         -3.756081531402    -0.937315220065     0.353503708856     1.007825032070
           H         -3.051150434953    -0.710049824457    -1.232788168481     1.007825032070
           C          1.614278109959     1.090039624733    -0.313225852012    12.000000000000
           H          1.518207653890     0.929872431263    -1.391938101998     1.007825032070
           H          1.678262124081     2.170668489976    -0.169386866392     1.007825032070
           C          0.361440825414     0.548341061741     0.391344597388    12.000000000000
           H         -0.338198536135     1.363283148132     0.582357994883     1.007825032070
           H          0.639937969424     0.155407751943     1.375150131619     1.007825032070
           C         -0.361443519154    -0.548310723955    -0.391302730405    12.000000000000
           H         -0.639956290587    -0.155373647714    -1.375102632106     1.007825032070
           H          0.338202120621    -1.363244790812    -0.582328681792     1.007825032070
           C         -1.614269189093    -1.090022828022     0.313277205819    12.000000000000
           H         -1.678224128188    -2.170657325077     0.169470210967     1.007825032070
           H         -1.518207580206    -0.929820472134     1.391984591821     1.007825032070

  Running in c1 symmetry.

  Rotational constants: A =      0.14162  B =      0.02696  C =      0.02404 [cm^-1]
  Rotational constants: A =   4245.57371  B =    808.11546  C =    720.74224 [MHz]
  Nuclear repulsion =  397.278296502235889

  Charge       = 0
  Multiplicity = 1
  Electrons    = 66
  Nalpha       = 33
  Nbeta        = 33

  ==> Algorithm <==

  SCF Algorithm Type is DF.
  DIIS enabled.
  MOM disabled.
  Fractional occupation disabled.
  Guess Type is READ.
  Energy threshold   = 1.00e-10
  Density threshold  = 1.00e-10
  Integral threshold = 0.00e+00

  ==> Primary Basis <==

  Basis Set: AUG-CC-PVTZ
    Number of shells: 274
    Number of basis function: 782
    Number of Cartesian functions: 890
    Spherical Harmonics?: true
    Max angular momentum: 3

  ==> Pre-Iterations <==

   -------------------------------------------------------
    Irrep   Nso     Nmo     Nalpha   Nbeta   Ndocc  Nsocc
   -------------------------------------------------------
     A        782     782       0       0       0       0
   -------------------------------------------------------
    Total     782     782      33      33      33       0
   -------------------------------------------------------

  ==> Integral Setup <==

  ==> DFJK: Density-Fitted J/K Matrices <==

    J tasked:                  Yes
    K tasked:                  Yes
    wK tasked:                  No
    OpenMP threads:             12
    Integrals threads:          12
    Memory (MB):             42915
    Algorithm:                Core
    Integral Cache:           NONE
    Schwarz Cutoff:          1E-12
    Fitting Condition:       1E-12

   => Auxiliary Basis Set <=

  Basis Set: 
    Number of shells: 492
    Number of basis function: 1660
    Number of Cartesian functions: 2038
    Spherical Harmonics?: true
    Max angular momentum: 4

  Minimum eigenvalue in the overlap matrix is 1.7417700080E-06.
  Using Symmetric Orthogonalization.
  SCF Guess: Reading in previously saved MOs, projecting if necessary.

  Using orbitals from previous SCF, no projection.
  Recomputing DOCC and SOCC from number of alpha and beta electrons from previous calculation.
              A 
    DOCC [    33 ]

  ==> Iterations <==

                           Total Energy        Delta E     RMS |[F,P]|

   @DF-RHF iter   0:  -313.53389268025740   -3.13534e+02   1.56412e-07 
   @DF-RHF iter   1:  -313.53389196624403    7.14013e-07   3.20454e-08 
   @DF-RHF iter   2:  -313.53389196687510   -6.31076e-10   1.17523e-08 DIIS
   @DF-RHF iter   3:  -313.53389196696469   -8.95852e-11   5.19186e-09 DIIS
   @DF-RHF iter   4:  -313.53389196697697   -1.22782e-11   5.98285e-10 DIIS
   @DF-RHF iter   5:  -313.53389196697742   -4.54747e-13   1.54658e-10 DIIS
   @DF-RHF iter   6:  -313.53389196697765   -2.27374e-13   4.85005e-11 DIIS

  ==> Post-Iterations <==

    Orbital Energies (a.u.)
    -----------------------

    Doubly Occupied:                                                      

       1A    -11.213029     2A    -11.213029     3A    -11.210097  
       4A    -11.210047     5A    -11.209264     6A    -11.208699  
       7A    -11.206830     8A    -11.206829     9A     -1.092250  
      10A     -1.059896    11A     -1.003800    12A     -0.948502  
      13A     -0.891867    14A     -0.826019    15A     -0.771823  
      16A     -0.771642    17A     -0.648896    18A     -0.624950  
      19A     -0.601723    20A     -0.600966    21A     -0.581546  
      22A     -0.559969    23A     -0.541526    24A     -0.524439  
      25A     -0.518570    26A     -0.504630    27A     -0.483185  
      28A     -0.482665    29A     -0.462931    30A     -0.457457  
      31A     -0.454484    32A     -0.435026    33A     -0.426881  

    Virtual:                                                              

      34A      0.030272    35A      0.032985    36A      0.034085  
      37A      0.035482    38A      0.045435    39A      0.046793  
      40A      0.050759    41A      0.053636    42A      0.056018  
      43A      0.064906    44A      0.067886    45A      0.071437  
      46A      0.075034    47A      0.076390    48A      0.089887  
      49A      0.095954    50A      0.098134    51A      0.098645  
      52A      0.112722    53A      0.115138    54A      0.120896  
      55A      0.125317    56A      0.126027    57A      0.128422  
      58A      0.132061    59A      0.136430    60A      0.138441  
      61A      0.142535    62A      0.146948    63A      0.148127  
      64A      0.154404    65A      0.157507    66A      0.159124  
      67A      0.161938    68A      0.165111    69A      0.168631  
      70A      0.172583    71A      0.179451    72A      0.180410  
      73A      0.190688    74A      0.193593    75A      0.203115  
      76A      0.209576    77A      0.210564    78A      0.222194  
      79A      0.226256    80A      0.236138    81A      0.236409  
      82A      0.246528    83A      0.251194    84A      0.256311  
      85A      0.271556    86A      0.274854    87A      0.279836  
      88A      0.284498    89A      0.291552    90A      0.294702  
      91A      0.302480    92A      0.306461    93A      0.306509  
      94A      0.309893    95A      0.312748    96A      0.321728  
      97A      0.326842    98A      0.327016    99A      0.329912  
     100A      0.332153   101A      0.338089   102A      0.339508  
     103A      0.346023   104A      0.350005   105A      0.350878  
     106A      0.357767   107A      0.357771   108A      0.367757  
     109A      0.369755   110A      0.372098   111A      0.373382  
     112A      0.379738   113A      0.381500   114A      0.383696  
     115A      0.390281   116A      0.392625   117A      0.401105  
     118A      0.401356   119A      0.406095   120A      0.413921  
     121A      0.419145   122A      0.421434   123A      0.426097  
     124A      0.430565   125A      0.434302   126A      0.443247  
     127A      0.446231   128A      0.447790   129A      0.448016  
     130A      0.453492   131A      0.454479   132A      0.465662  
     133A      0.469728   134A      0.471946   135A      0.473141  
     136A      0.474034   137A      0.479093   138A      0.485746  
     139A      0.485967   140A      0.488774   141A      0.490975  
     142A      0.493321   143A      0.500231   144A      0.500260  
     145A      0.500352   146A      0.512498   147A      0.522538  
     148A      0.522685   149A      0.523605   150A      0.540636  
     151A      0.541211   152A      0.543276   153A      0.543706  
     154A      0.552585   155A      0.552703   156A      0.554369  
     157A      0.562807   158A      0.563867   159A      0.567530  
     160A      0.569345   161A      0.579189   162A      0.581023  
     163A      0.587747   164A      0.591020   165A      0.591785  
     166A      0.594543   167A      0.605431   168A      0.609038  
     169A      0.611797   170A      0.620423   171A      0.622601  
     172A      0.630199   173A      0.631048   174A      0.640139  
     175A      0.642569   176A      0.646741   177A      0.646762  
     178A      0.655018   179A      0.659468   180A      0.665224  
     181A      0.673868   182A      0.676353   183A      0.680137  
     184A      0.681994   185A      0.688997   186A      0.692752  
     187A      0.698933   188A      0.702935   189A      0.710978  
     190A      0.715237   191A      0.723560   192A      0.729760  
     193A      0.739468   194A      0.739634   195A      0.752269  
     196A      0.759920   197A      0.763548   198A      0.764250  
     199A      0.770193   200A      0.790248   201A      0.794899  
     202A      0.800461   203A      0.816889   204A      0.823733  
     205A      0.825068   206A      0.832862   207A      0.847362  
     208A      0.850935   209A      0.851889   210A      0.860692  
     211A      0.867375   212A      0.868124   213A      0.876502  
     214A      0.883293   215A      0.883850   216A      0.892047  
     217A      0.897898   218A      0.905457   219A      0.907325  
     220A      0.913009   221A      0.919770   222A      0.922717  
     223A      0.926752   224A      0.936748   225A      0.940498  
     226A      0.947543   227A      0.947604   228A      0.951114  
     229A      0.955692   230A      0.963229   231A      0.971328  
     232A      0.978720   233A      0.982169   234A      0.986909  
     235A      0.989865   236A      0.991661   237A      1.002472  
     238A      1.005826   239A      1.012992   240A      1.015130  
     241A      1.022669   242A      1.028258   243A      1.028388  
     244A      1.029287   245A      1.040416   246A      1.040728  
     247A      1.047685   248A      1.056741   249A      1.057723  
     250A      1.060059   251A      1.065980   252A      1.080864  
     253A      1.082431   254A      1.086787   255A      1.089681  
     256A      1.095724   257A      1.103409   258A      1.103450  
     259A      1.116289   260A      1.123980   261A      1.124698  
     262A      1.131649   263A      1.136966   264A      1.138892  
     265A      1.145989   266A      1.150892   267A      1.155109  
     268A      1.162780   269A      1.163403   270A      1.168059  
     271A      1.170287   272A      1.184086   273A      1.189402  
     274A      1.194936   275A      1.198138   276A      1.204582  
     277A      1.210550   278A      1.219494   279A      1.220353  
     280A      1.224833   281A      1.228913   282A      1.236052  
     283A      1.243706   284A      1.246484   285A      1.255262  
     286A      1.255283   287A      1.259526   288A      1.263086  
     289A      1.270659   290A      1.275441   291A      1.280736  
[...]
	 D(17,15,18,20)   =        -1.695387	     -97.138514
	 D(17,15,18,21)   =         2.460009	     140.948106
	 D(18,21,24,25)   =        -2.460007	    -140.948021
	 D(18,21,24,26)   =        -0.434909	     -24.918463
	 D(19,18,21,22)   =         1.135628	      65.066676
	 D(19,18,21,23)   =         3.141593	     180.000000
	 D(19,18,21,24)   =        -0.997098	     -57.129487
	 D(20,18,21,22)   =         3.141593	     180.000000
	 D(20,18,21,23)   =        -1.135627	     -65.066661
	 D(20,18,21,24)   =         1.008867	      57.803839
	 D(22,21,24,25)   =         1.695389	      97.138630
	 D(22,21,24,26)   =        -2.562699	    -146.831813
	 D(23,21,24,25)   =        -0.325840	     -18.669244
	 D(23,21,24,26)   =         1.699258	      97.360313
	 R(1,21)          =         6.463258	       3.420209
	 R(5,18)          =         6.463259	       3.420209

	Current energy   :      -314.9771689552

	Energy change for the previous step:
		Projected    :        -0.0000000000
		Actual       :        -0.0000000015

	Performing BFGS update.
	Previous computed or guess Hessian on step 1.
	Denominators (dg)(dq) or (dq)(dq) are very small.
	 Skipping Hessian update for step 10.
	Denominators (dg)(dq) or (dq)(dq) are very small.
	 Skipping Hessian update for step 9.
	Denominators (dg)(dq) or (dq)(dq) are very small.
	 Skipping Hessian update for step 8.
	Denominators (dg)(dq) or (dq)(dq) are very small.
	 Skipping Hessian update for step 7.
	Denominators (dg)(dq) or (dq)(dq) are very small.
	 Skipping Hessian update for step 6.
	Denominators (dg)(dq) or (dq)(dq) are very small.
	 Skipping Hessian update for step 5.
	Denominators (dg)(dq) or (dq)(dq) are very small.
	 Skipping Hessian update for step 4.
	Denominators (dg)(dq) or (dq)(dq) are very small.
	 Skipping Hessian update for step 3.
	Denominators (dg)(dq) or (dq)(dq) are very small.
	 Skipping Hessian update for step 2.
	Steps to be used in Hessian update: 1
	Taking RFO optimization step.
	Going to follow RFO solution 1.
	Using RFO vector 1.
	Norm of target step-size    0.00003
	Projected energy change by RFO approximation:        -0.0000000000

	Back-transformation to cartesian coordinates...
	Successfully converged to displaced geometry.
	First geometry is closer to target in internal coordinates, so am using that one.
	First geometry has RMS(Delta(q)) = 3.46e-07

	--- Internal Coordinate Step in ANG or DEG, aJ/ANG or AJ/DEG ---
	 ---------------------------------------------------------------------------
	   Coordinate                Previous        Force       Change         New 
	   ----------                --------       ------       ------       ------
	    1 R(1,2)          =      1.091119    -0.000005    -0.000000     1.091119
	    2 R(1,3)          =      1.089912    -0.000005    -0.000000     1.089912
	    3 R(1,4)          =      1.089973    -0.000003    -0.000000     1.089973
	    4 R(1,9)          =      1.524385    -0.000001    -0.000000     1.524385
	    5 R(5,6)          =      1.091119    -0.000001     0.000000     1.091119
	    6 R(5,7)          =      1.089973    -0.000000     0.000000     1.089973
	    7 R(5,8)          =      1.089912    -0.000001     0.000000     1.089912
	    8 R(5,12)         =      1.524385     0.000000     0.000000     1.524385
	    9 R(9,10)         =      1.092554    -0.000005    -0.000000     1.092554
	   10 R(9,11)         =      1.093533    -0.000005    -0.000000     1.093533
	   11 R(9,15)         =      1.528513     0.000000    -0.000000     1.528513
	   12 R(12,13)        =      1.092554    -0.000000     0.000000     1.092554
	   13 R(12,14)        =      1.093533    -0.000000     0.000000     1.093533
	   14 R(12,24)        =      1.528513     0.000000     0.000000     1.528513
	   15 R(15,16)        =      1.094762    -0.000006    -0.000000     1.094761
	   16 R(15,17)        =      1.092036    -0.000004    -0.000000     1.092036
	   17 R(15,18)        =      1.536053     0.000000     0.000000     1.536053
	   18 R(18,19)        =      1.090923    -0.000002    -0.000000     1.090923
	   19 R(18,20)        =      1.095368    -0.000003     0.000000     1.095368
	   20 R(18,21)        =      1.528968     0.000000     0.000000     1.528968
	   21 R(21,22)        =      1.095368    -0.000003    -0.000000     1.095368
	   22 R(21,23)        =      1.090923    -0.000001     0.000000     1.090923
	   23 R(21,24)        =      1.536053    -0.000002    -0.000000     1.536053
	   24 R(24,25)        =      1.092036     0.000000     0.000000     1.092036
	   25 R(24,26)        =      1.094762    -0.000001     0.000000     1.094762
	   26 B(1,9,10)       =    109.209484     0.000000     0.000033   109.209516
	   27 B(1,9,11)       =    109.231189     0.000000    -0.000014   109.231174
	   28 B(1,9,15)       =    114.171587    -0.000000    -0.000051   114.171536
	   29 B(2,1,3)        =    107.898507     0.000000     0.000005   107.898512
	   30 B(2,1,4)        =    107.933988    -0.000000    -0.000000   107.933988
	   31 B(2,1,9)        =    110.921053    -0.000000    -0.000015   110.921038
	   32 B(3,1,4)        =    107.550401    -0.000000    -0.000014   107.550387
	   33 B(3,1,9)        =    111.416707    -0.000000    -0.000013   111.416695
	   34 B(4,1,9)        =    110.962856     0.000000     0.000037   110.962893
	   35 B(5,12,13)      =    109.209479    -0.000000    -0.000020   109.209459
	   36 B(5,12,14)      =    109.231202    -0.000000     0.000004   109.231205
	   37 B(5,12,24)      =    114.171570     0.000000     0.000040   114.171610
	   38 B(6,5,7)        =    107.933991    -0.000000    -0.000002   107.933990
	   39 B(6,5,8)        =    107.898511    -0.000000    -0.000001   107.898511
	   40 B(6,5,12)       =    110.921033    -0.000000     0.000007   110.921041
	   41 B(7,5,8)        =    107.550398     0.000000     0.000005   107.550403
	   42 B(7,5,12)       =    110.962865     0.000000    -0.000010   110.962854
	   43 B(8,5,12)       =    111.416715     0.000000     0.000000   111.416715
	   44 B(9,15,16)      =    109.255639     0.000000     0.000000   109.255639
	   45 B(9,15,17)      =    108.100475     0.000000     0.000035   108.100510
	   46 B(9,15,18)      =    114.095100     0.000000    -0.000031   114.095069
	   47 B(10,9,11)      =    106.418976    -0.000000     0.000015   106.418991
	   48 B(10,9,15)      =    108.907197     0.000000     0.000050   108.907246
	   49 B(11,9,15)      =    108.616174    -0.000000    -0.000028   108.616146
	   50 B(12,24,21)     =    114.095085    -0.000000     0.000014   114.095098
	   51 B(12,24,25)     =    108.100468     0.000000     0.000002   108.100470
	   52 B(12,24,26)     =    109.255639    -0.000000    -0.000003   109.255635
	   53 B(13,12,14)     =    106.418981     0.000000    -0.000010   106.418970
	   54 B(13,12,24)     =    108.907225    -0.000000    -0.000035   108.907190
	   55 B(14,12,24)     =    108.616151    -0.000000     0.000018   108.616169
	   56 B(15,18,19)     =    109.874021    -0.000000    -0.000005   109.874016
	   57 B(15,18,20)     =    109.335863     0.000000     0.000023   109.335886
	   58 B(15,18,21)     =    113.814010     0.000000    -0.000011   113.813999
	   59 B(16,15,17)     =    106.242436    -0.000000     0.000003   106.242439
	   60 B(16,15,18)     =    109.195634    -0.000000    -0.000003   109.195631
	   61 B(17,15,18)     =    109.654315    -0.000000    -0.000001   109.654315
	   62 B(18,21,22)     =    108.823846     0.000000    -0.000006   108.823840
	   63 B(18,21,23)     =    108.796686     0.000000     0.000006   108.796692
	   64 B(18,21,24)     =    113.813942    -0.000000     0.000013   113.813955
	   65 B(19,18,20)     =    105.888808    -0.000000    -0.000001   105.888807
	   66 B(19,18,21)     =    108.796683     0.000000     0.000005   108.796688
	   67 B(20,18,21)     =    108.823829    -0.000000    -0.000010   108.823819
	   68 B(21,24,25)     =    109.654326     0.000000     0.000002   109.654328
	   69 B(21,24,26)     =    109.195649    -0.000000    -0.000016   109.195632
	   70 B(22,21,23)     =    105.888809    -0.000000     0.000003   105.888812
	   71 B(22,21,24)     =    109.335854    -0.000000    -0.000036   109.335818
	   72 B(23,21,24)     =    109.874081     0.000000     0.000019   109.874100
	   73 B(25,24,26)     =    106.242434     0.000000     0.000001   106.242435
	   74 D(1,9,15,16)    =    -62.812620     0.000000     0.000118   -62.812502
	   75 D(1,9,15,17)    =   -178.019171    -0.000000     0.000096  -178.019075
	   76 D(1,9,15,18)    =     59.717717    -0.000000     0.000093    59.717809
	   77 D(2,1,9,10)     =    -65.228665    -0.000000    -0.000016   -65.228682
	   78 D(2,1,9,11)     =    178.759194    -0.000000    -0.000045   178.759150
	   79 D(2,1,9,15)     =     56.945738     0.000000     0.000037    56.945775
	   80 D(3,1,9,10)     =    174.548014    -0.000000    -0.000004   174.548010
	   81 D(3,1,9,11)     =     58.535874    -0.000000    -0.000033    58.535841
	   82 D(3,1,9,15)     =    -63.277583     0.000000     0.000049   -63.277533
	   83 D(4,1,9,10)     =     54.736957    -0.000000    -0.000002    54.736955
	   84 D(4,1,9,11)     =    -61.275183    -0.000000    -0.000030   -61.275213
	   85 D(4,1,9,15)     =    176.911360     0.000000     0.000051   176.911412
	   86 D(5,12,24,21)   =    -59.717786     0.000000     0.000016   -59.717770
	   87 D(5,12,24,25)   =    178.019103    -0.000000     0.000003   178.019106
	   88 D(5,12,24,26)   =     62.812558    -0.000000     0.000002    62.812560
	   89 D(6,5,12,13)    =     65.228583     0.000000     0.000284    65.228867
	   90 D(6,5,12,14)    =   -178.759266    -0.000000     0.000262  -178.759004
	   91 D(6,5,12,24)    =    -56.945841     0.000000     0.000316   -56.945525
	   92 D(7,5,12,13)    =    -54.737036     0.000000     0.000288   -54.736748
	   93 D(7,5,12,14)    =     61.275115    -0.000000     0.000267    61.275382
	   94 D(7,5,12,24)    =   -176.911460     0.000000     0.000320  -176.911140
	   95 D(8,5,12,13)    =   -174.548100     0.000000     0.000289  -174.547811
	   96 D(8,5,12,14)    =    -58.535949    -0.000000     0.000267   -58.535682
	   97 D(8,5,12,24)    =     63.277476     0.000000     0.000321    63.277797
	   98 D(9,15,18,19)   =    140.076660    -0.000000    -0.000256   140.076404
	   99 D(9,15,18,20)   =     24.268815    -0.000000    -0.000265    24.268551
	  100 D(9,15,18,21)   =    -97.644564    -0.000000    -0.000261   -97.644826
	  101 D(10,9,15,16)   =     59.527249     0.000000     0.000163    59.527412
	  102 D(10,9,15,17)   =    -55.679302    -0.000000     0.000141   -55.679161
	  103 D(10,9,15,18)   =   -177.942414     0.000000     0.000137  -177.942277
	  104 D(11,9,15,16)   =    175.036258     0.000000     0.000192   175.036450
	  105 D(11,9,15,17)   =     59.829706     0.000000     0.000170    59.829876
	  106 D(11,9,15,18)   =    -62.433406     0.000000     0.000166   -62.433240
	  107 D(12,24,21,18)  =     97.644661    -0.000000    -0.000166    97.644495
	  108 D(12,24,21,22)  =    -24.268688    -0.000000    -0.000141   -24.268829
	  109 D(12,24,21,23)  =   -140.076562    -0.000000    -0.000135  -140.076697
	  110 D(13,12,24,21)  =    177.942341     0.000000     0.000040   177.942381
	  111 D(13,12,24,25)  =     55.679230    -0.000000     0.000027    55.679257
	  112 D(13,12,24,26)  =    -59.527315    -0.000000     0.000026   -59.527288
	  113 D(14,12,24,21)  =     62.433325     0.000000     0.000061    62.433386
	  114 D(14,12,24,25)  =    -59.829786     0.000000     0.000048   -59.829738
	  115 D(14,12,24,26)  =   -175.036331    -0.000000     0.000047  -175.036284
	  116 D(15,18,21,22)  =    -57.803790     0.000000     0.000126   -57.803665
	  117 D(15,18,21,23)  =     57.129547     0.000000     0.000129    57.129677
	  118 D(15,18,21,24)  =    180.000000     0.000000     0.000000   180.000000
	  119 D(16,15,18,19)  =    -97.360215    -0.000000    -0.000280   -97.360495
	  120 D(16,15,18,20)  =    146.831941    -0.000000    -0.000289   146.831652
	  121 D(16,15,18,21)  =     24.918561     0.000000    -0.000285    24.918276
	  122 D(17,15,18,19)  =     18.669330    -0.000000    -0.000279    18.669051
	  123 D(17,15,18,20)  =    -97.138514    -0.000000    -0.000288   -97.138802
	  124 D(17,15,18,21)  =    140.948106    -0.000000    -0.000284   140.947822
	  125 D(18,21,24,25)  =   -140.948021    -0.000000    -0.000153  -140.948174
	  126 D(18,21,24,26)  =    -24.918463    -0.000000    -0.000159   -24.918623
	  127 D(19,18,21,22)  =     65.066676    -0.000000     0.000115    65.066791
	  128 D(19,18,21,23)  =    180.000000    -0.000000     0.000000   180.000000
	  129 D(19,18,21,24)  =    -57.129487     0.000000     0.000156   -57.129330
	  130 D(20,18,21,22)  =    180.000000    -0.000000     0.000000   180.000000
	  131 D(20,18,21,23)  =    -65.066661    -0.000000     0.000114   -65.066546
	  132 D(20,18,21,24)  =     57.803839     0.000000     0.000152    57.803991
	  133 D(22,21,24,25)  =     97.138630     0.000000    -0.000128    97.138502
	  134 D(22,21,24,26)  =   -146.831813     0.000000    -0.000134  -146.831947
	  135 D(23,21,24,25)  =    -18.669244    -0.000000    -0.000122   -18.669366
	  136 D(23,21,24,26)  =     97.360313    -0.000000    -0.000128    97.360185
	  137 R(1,21)         =      3.420209    -0.000000     0.000003     3.420212
	  138 R(5,18)         =      3.420209    -0.000000    -0.000002     3.420208
	 ---------------------------------------------------------------------------

  ==> Convergence Check <==

  Measures of convergence in internal coordinates in au.
  Criteria marked as inactive (o), active & met (*), and active & unmet ( ).
  ---------------------------------------------------------------------------------------------
   Step     Total Energy     Delta E     MAX Force     RMS Force      MAX Disp      RMS Disp   
  ---------------------------------------------------------------------------------------------
    Convergence Criteria             o    2.00e-06 *    1.00e-06 *    6.00e-06 *    4.00e-06 *
  ---------------------------------------------------------------------------------------------
     11    -314.97716896   -1.51e-09 o    7.60e-07 *    1.56e-07 *    5.61e-06 *    2.16e-06 *  ~
  ---------------------------------------------------------------------------------------------


  **** Optimization is complete! (in 11 steps) ****

  ==> Optimization Summary <==

  Measures of convergence in internal coordinates in au.
  --------------------------------------------------------------------------------------------------------------- ~
   Step         Total Energy             Delta E       MAX Force       RMS Force        MAX Disp        RMS Disp  ~
  --------------------------------------------------------------------------------------------------------------- ~
      1    -314.977168956085   -314.977168956085      0.00000032      0.00000008      0.00004830      0.00002007  ~
      2    -314.977168951194      0.000000004891      0.00000094      0.00000024      0.00004270      0.00001654  ~
      3    -314.977168951915     -0.000000000721      0.00000080      0.00000021      0.00004074      0.00001281  ~
      4    -314.977168952714     -0.000000000799      0.00000155      0.00000040      0.00004330      0.00001373  ~
      5    -314.977168951616      0.000000001098      0.00000045      0.00000009      0.00003130      0.00001120  ~
      6    -314.977168955760     -0.000000004144      0.00000063      0.00000016      0.00002319      0.00000907  ~
      7    -314.977168957131     -0.000000001371      0.00000079      0.00000018      0.00001138      0.00000432  ~
      8    -314.977168951649      0.000000005482      0.00000038      0.00000009      0.00002581      0.00000916  ~
      9    -314.977168954080     -0.000000002430      0.00000184      0.00000041      0.00002192      0.00000735  ~
     10    -314.977168953668      0.000000000412      0.00000200      0.00000045      0.00001091      0.00000330  ~
     11    -314.977168955173     -0.000000001506      0.00000076      0.00000016      0.00000561      0.00000216  ~
  --------------------------------------------------------------------------------------------------------------- ~

	Writing optimization data to binary file.
	Final energy is   -314.9771689551735
	Final (previous) structure:
	Cartesian Geometry (in Angstrom)
	    C     3.0009669662  -1.0435835164  -0.0082270004
	    H     2.8540071640  -1.3179369433  -1.0540157451
	    H     2.2414288069  -1.5556825225   0.5823359086
	    H     3.9730028683  -1.4242869022   0.3052250619
	    C    -3.0009668398   1.0435838150   0.0082246346
	    H    -2.8540098038   1.3179380420   1.0540134682
	    H    -3.9730016243   1.4242874083  -0.3052304900
	    H    -2.2414268243   1.5556818654  -0.5823366549
	    C     2.9225434312   0.4678113799   0.1742161117
	    H     3.7560862410   0.9373238299  -0.3534571683
	    H     3.0511348930   0.7099828808   1.2328151367
	    C    -2.9225435050  -0.4678113431  -0.1742164520
	    H    -3.7560872072  -0.9373228029   0.3534563029
	    H    -3.0511333825  -0.7099843917  -1.2328153690
	    C     1.6142737157   1.0900313541  -0.3132515476
	    H     1.5182082636   0.9298468295  -1.3919617440
	    H     1.6782437256   2.1706631573  -0.1694282826
	    C     0.3614414247   0.5483270189   0.3913227602
	    H    -0.3382020686   1.3632655438   0.5823378237
	    H     0.6399446120   0.1553956329   1.3751275687
	    C    -0.3614410668  -0.5483281266  -0.3913218807
	    H    -0.6399444156  -0.1553969793  -1.3751269581
	    H     0.3382022986  -1.3632667593  -0.5823367516
	    C    -1.6142741045  -1.0900306965   0.3132535140
	    H    -1.6782445447  -2.1706628448   0.1694327806
	    H    -1.5182092596  -0.9298436773   1.3919634475
	Saving final (previous) structure.
			--------------------------
			 OPTKING Finished Execution 
			--------------------------

    Final optimized geometry and variables:
    Molecular point group: c1
    Full point group: C1

    Geometry (in Angstrom), charge = 0, multiplicity = 1:

    C            3.000966966188    -1.043583516426    -0.008227000435
    H            2.854007164000    -1.317936943281    -1.054015745095
    H            2.241428806908    -1.555682522529     0.582335908563
    H            3.973002868270    -1.424286902248     0.305225061920
    C           -3.000966839795     1.043583815042     0.008224634599
    H           -2.854009803784     1.317938042049     1.054013468165
    H           -3.973001624279     1.424287408276    -0.305230489977
    H           -2.241426824314     1.555681865426    -0.582336654923
    C            2.922543431193     0.467811379858     0.174216111655
    H            3.756086240950     0.937323829901    -0.353457168260
    H            3.051134892965     0.709982880766     1.232815136651
    C           -2.922543505013    -0.467811343071    -0.174216451968
    H           -3.756087207202    -0.937322802927     0.353456302942
    H           -3.051133382503    -0.709984391677    -1.232815369048
    C            1.614273715662     1.090031354050    -0.313251547559
    H            1.518208263602     0.929846829496    -1.391961744013
    H            1.678243725560     2.170663157278    -0.169428282632
    C            0.361441424692     0.548327018936     0.391322760151
    H           -0.338202068566     1.363265543751     0.582337823662
    H            0.639944612036     0.155395632940     1.375127568728
    C           -0.361441066814    -0.548328126613    -0.391321880657
    H           -0.639944415617    -0.155396979332    -1.375126958075
    H            0.338202298648    -1.363266759288    -0.582336751580
    C           -1.614274104476    -1.090030696539     0.313253514039
    H           -1.678244544742    -2.170662844801     0.169432780583
    H           -1.518209259568    -0.929843677329     1.391963447519

	Cleaning optimization helper files.

*** Psi4 exiting successfully. Buy a developer a beer!
