    -----------------------------------------------------------------------
          Psi4: An Open-Source Ab Initio Electronic Structure Package
                              Psi4 1.0.0 Driver

                          Git: Rev {master} 6a9a71b dirty

    J. M. Turney, A. C. Simmonett, R. M. Parrish, E. G. Hohenstein,
    F. A. Evangelista, J. T. Fermann, B. J. Mintz, L. A. Burns, J. J. Wilke,
    M. L. Abrams, N. J. Russ, M. L. Leininger, C. L. Janssen, E. T. Seidl,
    W. D. Allen, H. F. Schaefer, R. A. King, E. F. Valeev, C. D. Sherrill,
    and T. D. Crawford, WIREs Comput. Mol. Sci. 2, 556-565 (2012)
    (doi: 10.1002/wcms.93)

                         Additional Contributions by
    A. E. DePrince, U. Bozkaya, A. Yu. Sokolov, D. G. A. Smith, R. Di Remigio,
    R. M. Richard, J. F. Gonthier, H. R. McAlexander, M. Saitow, and
    B. P. Pritchard
    -----------------------------------------------------------------------


    Psi4 started on: Tue Sep 20 15:55:07 2016

    Process ID:   2916
    PSI4DATADIR: /usr/local/hpc5/psi4conda/share/psi4
    Memory level set to 256.000 MB

  ==> Input File <==

--------------------------------------------------------------------------
memory 30 Gb

molecule molecule_01_psi {
0 1
symmetry c1
    C            4.453195629309    -0.267480458757    -0.000091896544
    H            5.330931402329     0.378294856259    -0.000116044329
    H            4.508280058514    -0.908592965948    -0.880741764502
    H            4.508316467356    -0.908576568711     0.880567648400
    C           -4.453196354276     0.267476132037     0.000094392207
    H           -4.508320381209     0.908570813892    -0.880565851794
    H           -4.508280885987     0.908589541557     0.880743480025
    H           -5.330930294018    -0.378301619528     0.000120944504
    C            3.160479588410     0.539038763698    -0.000072669676
    H            3.132822973176     1.192920499631    -0.875746358400
    H            3.132859203751     1.192936829309     0.875589993077
    C           -3.160478114308    -0.539039694901     0.000073955086
    H           -3.132818214346    -1.192920133352     0.875748465808
    H           -3.132857372887    -1.192938567053    -0.875588003376
    C            1.921224008678    -0.347023124161    -0.000038820847
    H            1.946615411549    -1.002461320543     0.876524048456
    H            1.946578695015    -1.002477065812    -0.876590961687
    C            0.619287870282     0.443473725199    -0.000018676406
    H            0.594305823613     1.098628105992    -0.876633433146
    H            0.594343456144     1.098645382945     0.876584259115
    C           -0.619287740533    -0.443470111053     0.000016655147
    H           -0.594343303963    -1.098641696970    -0.876586379367
    H           -0.594305585351    -1.098624442877     0.876631539430
    C           -1.921224822770     0.347025281548     0.000036871873
    H           -1.946579735074     1.002480612904     0.876587750003
    H           -1.946618490071     1.002461622852    -0.876527079917
}

set globals {
  reference rhf
  g_convergence gau_verytight
  basis aug-cc-pvtz
  freeze_core true
  scf_type df
  mp_type df
}
optimize('mp2')
--------------------------------------------------------------------------
/usr/local/hpc5/psi4conda/lib/python2.7/site-packages/v2rdm_casscf/v2rdm_casscf.so loaded.

  Memory set to  30.000 GiB by Python script.
gradient() will perform analytic gradient computation.

*** tstart() called on wr42
*** at Tue Sep 20 15:55:08 2016


         ---------------------------------------------------------
                                   SCF
            by Justin Turney, Rob Parrish, and Andy Simmonett
                              RHF Reference
                       16 Threads,  30000 MiB Core
         ---------------------------------------------------------

  ==> Geometry <==

    Molecular point group: c1
    Full point group: C1

    Geometry (in Angstrom), charge = 0, multiplicity = 1:

       Center              X                  Y                   Z               Mass       
    ------------   -----------------  -----------------  -----------------  -----------------
           C          4.453195629309    -0.267480458757    -0.000091896544    12.000000000000
           H          5.330931402329     0.378294856259    -0.000116044329     1.007825032070
           H          4.508280058514    -0.908592965948    -0.880741764502     1.007825032070
           H          4.508316467356    -0.908576568711     0.880567648400     1.007825032070
           C         -4.453196354276     0.267476132037     0.000094392207    12.000000000000
           H         -4.508320381209     0.908570813892    -0.880565851794     1.007825032070
           H         -4.508280885987     0.908589541557     0.880743480025     1.007825032070
           H         -5.330930294018    -0.378301619528     0.000120944504     1.007825032070
           C          3.160479588410     0.539038763698    -0.000072669676    12.000000000000
           H          3.132822973176     1.192920499631    -0.875746358400     1.007825032070
           H          3.132859203751     1.192936829309     0.875589993077     1.007825032070
           C         -3.160478114308    -0.539039694901     0.000073955086    12.000000000000
           H         -3.132818214346    -1.192920133352     0.875748465808     1.007825032070
           H         -3.132857372887    -1.192938567053    -0.875588003376     1.007825032070
           C          1.921224008678    -0.347023124161    -0.000038820847    12.000000000000
           H          1.946615411549    -1.002461320543     0.876524048456     1.007825032070
           H          1.946578695015    -1.002477065812    -0.876590961687     1.007825032070
           C          0.619287870282     0.443473725199    -0.000018676406    12.000000000000
           H          0.594305823613     1.098628105992    -0.876633433146     1.007825032070
           H          0.594343456144     1.098645382945     0.876584259115     1.007825032070
           C         -0.619287740533    -0.443470111053     0.000016655147    12.000000000000
           H         -0.594343303963    -1.098641696970    -0.876586379367     1.007825032070
           H         -0.594305585351    -1.098624442877     0.876631539430     1.007825032070
           C         -1.921224822770     0.347025281548     0.000036871873    12.000000000000
           H         -1.946579735074     1.002480612904     0.876587750003     1.007825032070
           H         -1.946618490071     1.002461622852    -0.876527079917     1.007825032070

  Running in c1 symmetry.

  Rotational constants: A =      0.35880  B =      0.01651  C =      0.01615 [cm^-1]
  Rotational constants: A =  10756.41509  B =    494.81134  C =    484.30449 [MHz]
  Nuclear repulsion =  376.097330561596777

  Charge       = 0
  Multiplicity = 1
  Electrons    = 66
  Nalpha       = 33
  Nbeta        = 33

  ==> Algorithm <==

  SCF Algorithm Type is DF.
  DIIS enabled.
  MOM disabled.
  Fractional occupation disabled.
  Guess Type is SAD.
  Energy threshold   = 1.00e-10
  Density threshold  = 1.00e-10
  Integral threshold = 0.00e+00

  ==> Primary Basis <==

  Basis Set: AUG-CC-PVTZ
    Number of shells: 274
    Number of basis function: 782
    Number of Cartesian functions: 890
    Spherical Harmonics?: true
    Max angular momentum: 3

  ==> Pre-Iterations <==

   -------------------------------------------------------
    Irrep   Nso     Nmo     Nalpha   Nbeta   Ndocc  Nsocc
   -------------------------------------------------------
     A        782     782       0       0       0       0
   -------------------------------------------------------
    Total     782     782      33      33      33       0
   -------------------------------------------------------

  ==> Integral Setup <==

  ==> DFJK: Density-Fitted J/K Matrices <==

    J tasked:                  Yes
    K tasked:                  Yes
    wK tasked:                  No
    OpenMP threads:             16
    Integrals threads:          16
    Memory (MB):             21457
    Algorithm:                Core
    Integral Cache:           NONE
    Schwarz Cutoff:          1E-12
    Fitting Condition:       1E-12

   => Auxiliary Basis Set <=

  Basis Set: 
    Number of shells: 492
    Number of basis function: 1660
    Number of Cartesian functions: 2038
    Spherical Harmonics?: true
    Max angular momentum: 4

  Minimum eigenvalue in the overlap matrix is 2.7819416556E-06.
  Using Symmetric Orthogonalization.
  SCF Guess: Superposition of Atomic Densities via on-the-fly atomic UHF.

  ==> Iterations <==

                           Total Energy        Delta E     RMS |[F,P]|

   @DF-RHF iter   0:  -316.32512607032982   -3.16325e+02   6.71033e-03 
   @DF-RHF iter   1:  -313.18961421913707    3.13551e+00   9.16172e-04 
   @DF-RHF iter   2:  -313.49047565759190   -3.00861e-01   3.76192e-04 DIIS
   @DF-RHF iter   3:  -313.54107298250813   -5.05973e-02   1.06928e-04 DIIS
   @DF-RHF iter   4:  -313.54785490228039   -6.78192e-03   1.54451e-05 DIIS
   @DF-RHF iter   5:  -313.54800344530793   -1.48543e-04   4.73224e-06 DIIS
   @DF-RHF iter   6:  -313.54801513270229   -1.16874e-05   1.27527e-06 DIIS
   @DF-RHF iter   7:  -313.54801615121892   -1.01852e-06   2.44157e-07 DIIS
   @DF-RHF iter   8:  -313.54801619531997   -4.41011e-08   6.82076e-08 DIIS
   @DF-RHF iter   9:  -313.54801619791647   -2.59649e-09   2.03579e-08 DIIS
   @DF-RHF iter  10:  -313.54801619813929   -2.22826e-10   5.03645e-09 DIIS
   @DF-RHF iter  11:  -313.54801619815555   -1.62572e-11   1.03594e-09 DIIS
   @DF-RHF iter  12:  -313.54801619815726   -1.70530e-12   2.77448e-10 DIIS
   @DF-RHF iter  13:  -313.54801619815692    3.41061e-13   7.29228e-11 DIIS

  ==> Post-Iterations <==

    Orbital Energies (a.u.)
    -----------------------

    Doubly Occupied:                                                      

       1A    -11.212396     2A    -11.212396     3A    -11.210460  
       4A    -11.210161     5A    -11.209778     6A    -11.209448  
       7A    -11.207003     8A    -11.207003     9A     -1.092804  
      10A     -1.062602    11A     -1.013520    12A     -0.949519  
      13A     -0.877299    14A     -0.811766    15A     -0.784926  
      16A     -0.782054    17A     -0.657650    18A     -0.631169  
      19A     -0.596792    20A     -0.590962    21A     -0.573060  
      22A     -0.567244    23A     -0.544481    24A     -0.531460  
      25A     -0.501830    26A     -0.494159    27A     -0.492660  
      28A     -0.472361    29A     -0.467061    30A     -0.459211  
      31A     -0.457505    32A     -0.456274    33A     -0.426943  

    Virtual:                                                              

      34A      0.030979    35A      0.031409    36A      0.035403  
      37A      0.037273    38A      0.043231    39A      0.046414  
      40A      0.047717    41A      0.054647    42A      0.060212  
      43A      0.065674    44A      0.065994    45A      0.069885  
      46A      0.082418    47A      0.087246    48A      0.088417  
      49A      0.091857    50A      0.098972    51A      0.104949  
      52A      0.109959    53A      0.110875    54A      0.113314  
      55A      0.120272    56A      0.124077    57A      0.129063  
      58A      0.133647    59A      0.136602    60A      0.142028  
      61A      0.146869    62A      0.146952    63A      0.157242  
      64A      0.158877    65A      0.163217    66A      0.165334  
      67A      0.174383    68A      0.174907    69A      0.179210  
      70A      0.181049    71A      0.190190    72A      0.192211  
      73A      0.195383    74A      0.197411    75A      0.208294  
      76A      0.212952    77A      0.217781    78A      0.225963  
      79A      0.228058    80A      0.240667    81A      0.243975  
      82A      0.246875    83A      0.255453    84A      0.255481  
      85A      0.260161    86A      0.261792    87A      0.262467  
      88A      0.268461    89A      0.283812    90A      0.284983  
      91A      0.291907    92A      0.292513    93A      0.297593  
      94A      0.305934    95A      0.309173    96A      0.320428  
      97A      0.320773    98A      0.321342    99A      0.331422  
     100A      0.343153   101A      0.343211   102A      0.348338  
     103A      0.356395   104A      0.357639   105A      0.359323  
     106A      0.366774   107A      0.366777   108A      0.372175  
     109A      0.375114   110A      0.375323   111A      0.376181  
     112A      0.377603   113A      0.388235   114A      0.391418  
     115A      0.392727   116A      0.393359   117A      0.398154  
     118A      0.401753   119A      0.402202   120A      0.408661  
     121A      0.409373   122A      0.413639   123A      0.415103  
     124A      0.419276   125A      0.422120   126A      0.427017  
     127A      0.428518   128A      0.433379   129A      0.433900  
     130A      0.434003   131A      0.439842   132A      0.443663  
     133A      0.452479   134A      0.459333   135A      0.461129  
     136A      0.462490   137A      0.467615   138A      0.470127  
     139A      0.475038   140A      0.480367   141A      0.483192  
     142A      0.486151   143A      0.495483   144A      0.495965  
     145A      0.497057   146A      0.500429   147A      0.501303  
     148A      0.508345   149A      0.508467   150A      0.509364  
     151A      0.512787   152A      0.514975   153A      0.518262  
     154A      0.520852   155A      0.526133   156A      0.527315  
     157A      0.536815   158A      0.538856   159A      0.554881  
     160A      0.558008   161A      0.561486   162A      0.566703  
     163A      0.569752   164A      0.573411   165A      0.574259  
     166A      0.575804   167A      0.584473   168A      0.594206  
     169A      0.594366   170A      0.600641   171A      0.601494  
     172A      0.607838   173A      0.620207   174A      0.620332  
     175A      0.621166   176A      0.633564   177A      0.637589  
     178A      0.641305   179A      0.653965   180A      0.657948  
     181A      0.660018   182A      0.668113   183A      0.670311  
     184A      0.673950   185A      0.690977   186A      0.691158  
     187A      0.691930   188A      0.692710   189A      0.708883  
     190A      0.718564   191A      0.726256   192A      0.729431  
     193A      0.742372   194A      0.751026   195A      0.768444  
     196A      0.768696   197A      0.777917   198A      0.780150  
     199A      0.794193   200A      0.800635   201A      0.812928  
     202A      0.818089   203A      0.818533   204A      0.821581  
     205A      0.835557   206A      0.839131   207A      0.842193  
     208A      0.843444   209A      0.847080   210A      0.856756  
     211A      0.857957   212A      0.858181   213A      0.869164  
     214A      0.877741   215A      0.882625   216A      0.883888  
     217A      0.890552   218A      0.892212   219A      0.895068  
     220A      0.895262   221A      0.904992   222A      0.907458  
     223A      0.908384   224A      0.916876   225A      0.919935  
     226A      0.923216   227A      0.931618   228A      0.931797  
     229A      0.937734   230A      0.939691   231A      0.940271  
     232A      0.942000   233A      0.957509   234A      0.964660  
     235A      0.967778   236A      0.968209   237A      0.975252  
     238A      0.976223   239A      0.982959   240A      0.990971  
     241A      0.992640   242A      0.993323   243A      1.005245  
     244A      1.006514   245A      1.010307   246A      1.016005  
     247A      1.023916   248A      1.024016   249A      1.037705  
     250A      1.040148   251A      1.040772   252A      1.044993  
     253A      1.048434   254A      1.060605   255A      1.072003  
     256A      1.080706   257A      1.095367   258A      1.095730  
     259A      1.096274   260A      1.109197   261A      1.117506  
     262A      1.120897   263A      1.123987   264A      1.127827  
     265A      1.130200   266A      1.132589   267A      1.148547  
     268A      1.162118   269A      1.162238   270A      1.162672  
     271A      1.167870   272A      1.168819   273A      1.171658  
     274A      1.172742   275A      1.179658   276A      1.180917  
     277A      1.187003   278A      1.187459   279A      1.188371  
     280A      1.188646   281A      1.193871   282A      1.199194  
     283A      1.201829   284A      1.214319   285A      1.219567  
     286A      1.232819   287A      1.240680   288A      1.250273  
     289A      1.255614   290A      1.256962   291A      1.257079  
     292A      1.260448   293A      1.261050   294A      1.276502  
     295A      1.281606   296A      1.283134   297A      1.289373  
     298A      1.294105   299A      1.300783   300A      1.300925  
     301A      1.315631   302A      1.317423   303A      1.317497  
     304A      1.321893   305A      1.323161   306A      1.330241  
     307A      1.333454   308A      1.344570   309A      1.351438  
     310A      1.354694   311A      1.357960   312A      1.368557  
     313A      1.372562   314A      1.388681   315A      1.395283  
     316A      1.415578   317A      1.420507   318A      1.423907  
     319A      1.429524   320A      1.439840   321A      1.453622  
     322A      1.457762   323A      1.462689   324A      1.476885  
     325A      1.498076   326A      1.504079   327A      1.512827  
     328A      1.526874   329A      1.531844   330A      1.554898  
     331A      1.560319   332A      1.560486   333A      1.570803  
     334A      1.570916   335A      1.571025   336A      1.571678  
     337A      1.580061   338A      1.581549   339A      1.594521  
     340A      1.595793   341A      1.604358   342A      1.607951  
     343A      1.617536   344A      1.629337   345A      1.638932  
     346A      1.640470   347A      1.652005   348A      1.655970  
     349A      1.662206   350A      1.668606   351A      1.675041  
     352A      1.686320   353A      1.686419   354A      1.691079  
     355A      1.694639   356A      1.696339   357A      1.703051  
     358A      1.708658   359A      1.718558   360A      1.721286  
     361A      1.722671   362A      1.729164   363A      1.734001  
     364A      1.743519   365A      1.746017   366A      1.749613  
     367A      1.750589   368A      1.762173   369A      1.762885  
     370A      1.772814   371A      1.780656   372A      1.781025  
     373A      1.782719   374A      1.783171   375A      1.790357  
     376A      1.792393   377A      1.793692   378A      1.797375  
     379A      1.815033   380A      1.819896   381A      1.824674  
     382A      1.831686   383A      1.839796   384A      1.846426  
     385A      1.851832   386A      1.855346   387A      1.860037  
     388A      1.867467   389A      1.874113   390A      1.881576  
     391A      1.892016   392A      1.892493   393A      1.895936  
     394A      1.898780   395A      1.903568   396A      1.924461  
     397A      1.936212   398A      1.941818   399A      1.944532  
     400A      1.948371   401A      1.952308   402A      1.968109  
     403A      1.979785   404A      1.990466   405A      2.007743  
     406A      2.008010   407A      2.009704   408A      2.017843  
     409A      2.020538   410A      2.032315   411A      2.032814  
     412A      2.042285   413A      2.050287   414A      2.057614  
     415A      2.058780   416A      2.059396   417A      2.061382  
     418A      2.074950   419A      2.096381   420A      2.102554  
     421A      2.105308   422A      2.120646   423A      2.126243  
     424A      2.137223   425A      2.144725   426A      2.152149  
     427A      2.161658   428A      2.185572   429A      2.196458  
     430A      2.228018   431A      2.229122   432A      2.232635  
     433A      2.242658   434A      2.243296   435A      2.243673  
     436A      2.250480   437A      2.250603   438A      2.261943  
     439A      2.264820   440A      2.285075   441A      2.297117  
     442A      2.304268   443A      2.309662   444A      2.313114  
     445A      2.319914   446A      2.326360   447A      2.342753  
     448A      2.346015   449A      2.352655   450A      2.354921  
     451A      2.367168   452A      2.377535   453A      2.400086  
     454A      2.416409   455A      2.420716   456A      2.421407  
     457A      2.431207   458A      2.440088   459A      2.451993  
     460A      2.464392   461A      2.471937   462A      2.492281  
     463A      2.495275   464A      2.495823   465A      2.500489  
     466A      2.508754   467A      2.509670   468A      2.532258  
     469A      2.573298   470A      2.575676   471A      2.577183  
     472A      2.589751   473A      2.640827   474A      2.641814  
     475A      2.650865   476A      2.658716   477A      2.714188  
     478A      2.729842   479A      2.734148   480A      2.750461  
     481A      2.778397   482A      2.886438   483A      2.887222  
     484A      2.925265   485A      2.983508   486A      2.987175  
     487A      2.989094   488A      2.997129   489A      3.061098  
     490A      3.077858   491A      3.131032   492A      3.137214  
     493A      3.216138   494A      3.252834   495A      3.303232  
     496A      3.333576   497A      3.382795   498A      3.427305  
     499A      3.432204   500A      3.452489   501A      3.467723  
     502A      3.511318   503A      3.514053   504A      3.514160  
     505A      3.525364   506A      3.528372   507A      3.530189  
     508A      3.534553   509A      3.538398   510A      3.568494  
     511A      3.569701   512A      3.594087   513A      3.594451  
     514A      3.604300   515A      3.617824   516A      3.623422  
     517A      3.625237   518A      3.629969   519A      3.652223  
     520A      3.665905   521A      3.674404   522A      3.688327  
     523A      3.691316   524A      3.697694   525A      3.712332  
     526A      3.718015   527A      3.725957   528A      3.728198  
     529A      3.753033   530A      3.758532   531A      3.758925  
     532A      3.775676   533A      3.778395   534A      3.791173  
     535A      3.795213   536A      3.797778   537A      3.811872  
     538A      3.812315   539A      3.812425   540A      3.845422  
     541A      3.847522   542A      3.852469   543A      3.864915  
     544A      3.876581   545A      3.877096   546A      3.877342  
     547A      3.885751   548A      3.888278   549A      3.898248  
     550A      3.903942   551A      3.912566   552A      3.918778  
     553A      3.928394   554A      3.952037   555A      3.952220  
     556A      3.965332   557A      3.965721   558A      3.966203  
     559A      3.968261   560A      3.980127   561A      3.982594  
     562A      3.988303   563A      3.998671   564A      3.999605  
     565A      4.011722   566A      4.019986   567A      4.022669  
     568A      4.030524   569A      4.051934   570A      4.053474  
     571A      4.060534   572A      4.065758   573A      4.077695  
     574A      4.080843   575A      4.086229   576A      4.088112  
     577A      4.096788   578A      4.132870   579A      4.138110  
     580A      4.164920   581A      4.181120   582A      4.184828  
     583A      4.197752   584A      4.208875   585A      4.210790  
     586A      4.218608   587A      4.240752   588A      4.251256  
     589A      4.251553   590A      4.261733   591A      4.263273  
     592A      4.264576   593A      4.278109   594A      4.283665  
     595A      4.297375   596A      4.307046   597A      4.307720  
     598A      4.317101   599A      4.341717   600A      4.357974  
     601A      4.358347   602A      4.366767   603A      4.383186  
     604A      4.408384   605A      4.410274   606A      4.411275  
     607A      4.414742   608A      4.435295   609A      4.448454  
     610A      4.450379   611A      4.487137   612A      4.515877  
     613A      4.521767   614A      4.540871   615A      4.547317  
     616A      4.573147   617A      4.579987   618A      4.587720  
     619A      4.594590   620A      4.599385   621A      4.619677  
     622A      4.634389   623A      4.641992   624A      4.649370  
     625A      4.662837   626A      4.675350   627A      4.686395  
     628A      4.712023   629A      4.716516   630A      4.729359  
     631A      4.733998   632A      4.739732   633A      4.741676  
     634A      4.749412   635A      4.780288   636A      4.784510  
     637A      4.795592   638A      4.797457   639A      4.805113  
     640A      4.805640   641A      4.815152   642A      4.832010  
     643A      4.848763   644A      4.854572   645A      4.864963  
     646A      4.865914   647A      4.875125   648A      4.893918  
     649A      4.899270   650A      4.904499   651A      4.936544  
     652A      4.944056   653A      4.949059   654A      4.950973  
     655A      4.988238   656A      4.994509   657A      4.997208  
     658A      5.000206   659A      5.017356   660A      5.029610  
     661A      5.038931   662A      5.086248   663A      5.087606  
     664A      5.089457   665A      5.111247   666A      5.114813  
     667A      5.135001   668A      5.144168   669A      5.146688  
     670A      5.164208   671A      5.178295   672A      5.204033  
     673A      5.209075   674A      5.222373   675A      5.222958  
     676A      5.242415   677A      5.245833   678A      5.259683  
     679A      5.264204   680A      5.270060   681A      5.283842  
     682A      5.286946   683A      5.316690   684A      5.324784  
     685A      5.344866   686A      5.347645   687A      5.347729  
     688A      5.358702   689A      5.363863   690A      5.372869  
     691A      5.404780   692A      5.409446   693A      5.422112  
     694A      5.424366   695A      5.429122   696A      5.435737  
     697A      5.440945   698A      5.446538   699A      5.463938  
     700A      5.470868   701A      5.491603   702A      5.506735  
     703A      5.509474   704A      5.537252   705A      5.537385  
     706A      5.558971   707A      5.576534   708A      5.578511  
     709A      5.601661   710A      5.603374   711A      5.610618  
     712A      5.612509   713A      5.643699   714A      5.647447  
     715A      5.649485   716A      5.692330   717A      5.707532  
     718A      5.710995   719A      5.726098   720A      5.733114  
     721A      5.769822   722A      5.774940   723A      5.783436  
     724A      5.792730   725A      5.826564   726A      5.832097  
     727A      5.860921   728A      5.864184   729A      5.870410  
     730A      5.893673   731A      5.907187   732A      5.944166  
     733A      5.945215   734A      5.969315   735A      5.975417  
     736A      6.002858   737A      6.021402   738A      6.021519  
     739A      6.041446   740A      6.089907   741A      6.117326  
     742A      6.163899   743A      6.173159   744A      6.178536  
     745A      6.184631   746A      6.199063   747A      6.217726  
     748A      6.222347   749A      6.236025   750A      6.251722  
     751A      6.270460   752A      6.277213   753A      6.288237  
     754A      6.316069   755A      6.324076   756A      6.326326  
     757A      6.424531   758A      6.434176   759A      6.501444  
     760A      6.529146   761A      6.611980   762A      6.612944  
     763A      6.701786   764A      6.709836   765A      6.753827  
     766A      6.775520   767A      6.816215   768A      6.842899  
     769A      6.866335   770A      6.866896   771A      6.868269  
     772A      6.931693   773A      7.047485   774A      7.131591  
     775A     17.826107   776A     17.992055   777A     18.105095  
     778A     18.427840   779A     18.468850   780A     18.520924  
     781A     19.071627   782A     19.590652  

    Final Occupation by Irrep:
              A 
    DOCC [    33 ]

  Energy converged.

  @DF-RHF Final Energy:  -313.54801619815692

   => Energetics <=

    Nuclear Repulsion Energy =            376.0973305615967774
    One-Electron Energy =               -1167.3427800562576522
    Two-Electron Energy =                 477.6974332965040730
    DFT Exchange-Correlation Energy =       0.0000000000000000
    Empirical Dispersion Energy =           0.0000000000000000
    PCM Polarization Energy =               0.0000000000000000
    EFP Energy =                            0.0000000000000000
    Total Energy =                       -313.5480161981568017


  Saving occupied orbitals to File 180.

*** tstop() called on wr42 at Tue Sep 20 15:56:04 2016
Module time:
	user time   =     766.89 seconds =      12.78 minutes
	system time =      11.21 seconds =       0.19 minutes
	total time  =         56 seconds =       0.93 minutes
Total time:
	user time   =     766.89 seconds =      12.78 minutes
	system time =      11.21 seconds =       0.19 minutes
	total time  =         56 seconds =       0.93 minutes


Properties will be evaluated at   0.000000,   0.000000,   0.000000 Bohr

Properties computed using the SCF density matrix

  Nuclear Dipole Moment: (a.u.)
     X:    -0.0000      Y:    -0.0000      Z:     0.0000

  Electronic Dipole Moment: (a.u.)
     X:     0.0000      Y:     0.0000      Z:    -0.0000

  Dipole Moment: (a.u.)
     X:    -0.0000      Y:     0.0000      Z:    -0.0000     Total:     0.0000

  Dipole Moment: (Debye)
     X:    -0.0000      Y:     0.0000      Z:    -0.0000     Total:     0.0000


  //>>>>>>>>>>>>>>>>>>>>>>>>>>>>>>>>>>>//
  //               DFMP2               //
  //<<<<<<<<<<<<<<<<<<<<<<<<<<<<<<<<<<<//


*** tstart() called on wr42
*** at Tue Sep 20 15:56:04 2016


*** tstop() called on wr42 at Tue Sep 20 15:56:05 2016
Module time:
	user time   =       6.25 seconds =       0.10 minutes
	system time =       0.22 seconds =       0.00 minutes
	total time  =          1 seconds =       0.02 minutes
Total time:
	user time   =     774.54 seconds =      12.91 minutes
	system time =      11.49 seconds =       0.19 minutes
	total time  =         57 seconds =       0.95 minutes
	 --------------------------------------------------------
	                          DF-MP2                         
	      2nd-Order Density-Fitted Moller-Plesset Theory     
	              RMP2 Wavefunction,  16 Threads             
	                                                         
	        Rob Parrish, Justin Turney, Andy Simmonett,      
	           Ed Hohenstein, and C. David Sherrill          
	 --------------------------------------------------------

   => Auxiliary Basis Set <=

  Basis Set: 
    Number of shells: 476
    Number of basis function: 1676
    Number of Cartesian functions: 2078
    Spherical Harmonics?: true
    Max angular momentum: 4

	 --------------------------------------------------------
	                 NBF =   782, NAUX =  1676
	 --------------------------------------------------------
	   CLASS    FOCC     OCC    AOCC    AVIR     VIR    FVIR
	   PAIRS       8      33      25     749     749       0
	 --------------------------------------------------------

DGAS Warning! /src/lib/libfock/apps.cc:80 is not currently checking restricted

         ------------------------------------------------------------
                                     CPHF                           
                                  Rob Parrish                       
         ------------------------------------------------------------

  ==> Geometry <==

    Molecular point group: c1
    Full point group: C1

    Geometry (in Angstrom), charge = 0, multiplicity = 1:

       Center              X                  Y                   Z               Mass       
    ------------   -----------------  -----------------  -----------------  -----------------
           C          4.453195629309    -0.267480458757    -0.000091896544    12.000000000000
           H          5.330931402329     0.378294856259    -0.000116044329     1.007825032070
           H          4.508280058514    -0.908592965948    -0.880741764502     1.007825032070
           H          4.508316467356    -0.908576568711     0.880567648400     1.007825032070
           C         -4.453196354276     0.267476132037     0.000094392207    12.000000000000
           H         -4.508320381209     0.908570813892    -0.880565851794     1.007825032070
           H         -4.508280885987     0.908589541557     0.880743480025     1.007825032070
           H         -5.330930294018    -0.378301619528     0.000120944504     1.007825032070
           C          3.160479588410     0.539038763698    -0.000072669676    12.000000000000
           H          3.132822973176     1.192920499631    -0.875746358400     1.007825032070
           H          3.132859203751     1.192936829309     0.875589993077     1.007825032070
           C         -3.160478114308    -0.539039694901     0.000073955086    12.000000000000
           H         -3.132818214346    -1.192920133352     0.875748465808     1.007825032070
           H         -3.132857372887    -1.192938567053    -0.875588003376     1.007825032070
           C          1.921224008678    -0.347023124161    -0.000038820847    12.000000000000
           H          1.946615411549    -1.002461320543     0.876524048456     1.007825032070
           H          1.946578695015    -1.002477065812    -0.876590961687     1.007825032070
           C          0.619287870282     0.443473725199    -0.000018676406    12.000000000000
           H          0.594305823613     1.098628105992    -0.876633433146     1.007825032070
           H          0.594343456144     1.098645382945     0.876584259115     1.007825032070
           C         -0.619287740533    -0.443470111053     0.000016655147    12.000000000000
           H         -0.594343303963    -1.098641696970    -0.876586379367     1.007825032070
           H         -0.594305585351    -1.098624442877     0.876631539430     1.007825032070
           C         -1.921224822770     0.347025281548     0.000036871873    12.000000000000
           H         -1.946579735074     1.002480612904     0.876587750003     1.007825032070
           H         -1.946618490071     1.002461622852    -0.876527079917     1.007825032070

  Nuclear repulsion =  376.097330561596777
  Reference energy  = -313.548016198156915

  ==> Basis Set <==

  Basis Set: AUG-CC-PVTZ
    Number of shells: 274
    Number of basis function: 782
    Number of Cartesian functions: 890
    Spherical Harmonics?: true
    Max angular momentum: 3

  ==> CGRSolver (by Rob Parrish) <==

   Number of roots    =         1
   Preconditioning    =    JACOBI
   Convergence cutoff =     1E-06
   Maximum iterations =       100

  ==> CPHFRHamiltonian (by Rob Parrish) <== 

  ==> DFJK: Density-Fitted J/K Matrices <==

    J tasked:                  Yes
    K tasked:                  Yes
    wK tasked:                  No
    OpenMP threads:             16
    Integrals threads:          16
    Memory (MB):             21457
    Algorithm:                Core
    Integral Cache:           NONE
    Schwarz Cutoff:          1E-12
    Fitting Condition:       1E-12

   => Auxiliary Basis Set <=

  Basis Set: 
    Number of shells: 492
    Number of basis function: 1660
    Number of Cartesian functions: 2038
    Spherical Harmonics?: true
    Max angular momentum: 4

  ==> CPHF Iterations <==

  => Iterations <=

             Iter  Converged  Remaining    Residual
  CGR           1          0          1   8.650E-02
  CGR           2          0          1   1.199E-02
  CGR           3          0          1   2.810E-03
  CGR           4          0          1   7.825E-04
  CGR           5          0          1   1.486E-04
  CGR           6          0          1   3.778E-05
  CGR           7          0          1   9.408E-06
  CGR           8          0          1   2.279E-06
  CGR           9          1          0   5.620E-07

    CGRSolver converged.

  ==> DFCorrGrad: Density-Fitted Correlated Gradients <==

    OpenMP threads:             16
    Integrals threads:          16
    Memory (MB):             21457
    Schwarz Cutoff:          0E+00
    Fitting Condition:       1E-12

   => Auxiliary Basis Set <=

  Basis Set: 
    Number of shells: 492
    Number of basis function: 1660
    Number of Cartesian functions: 2038
    Spherical Harmonics?: true
    Max angular momentum: 4

	-----------------------------------------------------------
	 ==================> DF-MP2 Energies <==================== 
	-----------------------------------------------------------
	 Reference Energy          =    -313.5480161981569154 [Eh]
	 Singles Energy            =      -0.0000000000000003 [Eh]
	 Same-Spin Energy          =      -0.3144344589962912 [Eh]
	 Opposite-Spin Energy      =      -1.1227323072593003 [Eh]
	 Correlation Energy        =      -1.4371667662555918 [Eh]
	 Total Energy              =    -314.9851829644125019 [Eh]
	-----------------------------------------------------------
	 ================> DF-SCS-MP2 Energies <================== 
	-----------------------------------------------------------
	 SCS Same-Spin Scale       =       0.3333333333333333 [-]
	 SCS Opposite-Spin Scale   =       1.2000000000000000 [-]
	 SCS Same-Spin Energy      =      -0.1048114863320971 [Eh]
	 SCS Opposite-Spin Energy  =      -1.3472787687111603 [Eh]
	 SCS Correlation Energy    =      -1.4520902550432577 [Eh]
	 SCS Total Energy          =    -315.0001064532001465 [Eh]
	-----------------------------------------------------------


  -Total Gradient:
     Atom            X                  Y                   Z
    ------   -----------------  -----------------  -----------------
       1       -0.000000148175     0.000000052577    -0.000000007698
       2       -0.000000074952    -0.000000185795     0.000000001145
       3        0.000000061793     0.000000194285     0.000000249240
       4        0.000000062161     0.000000190129    -0.000000242745
       5        0.000000099857     0.000000067575    -0.000000003568
       6       -0.000000051853    -0.000000222021     0.000000277842
       7       -0.000000056507    -0.000000213488    -0.000000269864
       8        0.000000069632     0.000000159754     0.000000001910
       9        0.000000492444     0.000000599526    -0.000000010173
      10        0.000000037034    -0.000000328881     0.000000336988
      11        0.000000037902    -0.000000315714    -0.000000325378
      12       -0.000000360613    -0.000000668454    -0.000000008841
      13       -0.000000028519     0.000000320060    -0.000000296314
      14       -0.000000021953     0.000000339890     0.000000309432
      15       -0.000000618649    -0.000001247964     0.000000009274
      16       -0.000000119667     0.000000537699    -0.000000570498
      17       -0.000000123738     0.000000532845     0.000000565295
      18       -0.000000159022     0.000001265253     0.000000007525
      19       -0.000000012513    -0.000000851478     0.000000844835
      20       -0.000000007542    -0.000000855016    -0.000000849353
      21        0.000000247646    -0.000001272302    -0.000000000309
      22       -0.000000018350     0.000000841372     0.000000791460
      23       -0.000000013922     0.000000836541    -0.000000788403
      24        0.000000490578     0.000001359375    -0.000000018801
      25        0.000000107184    -0.000000566309    -0.000000632240
      26        0.000000109748    -0.000000569460     0.000000629239


			-----------------------------------------
			 OPTKING 2.0: for geometry optimizations 
			  - R.A. King,  Bethel University        
			-----------------------------------------

	Internal coordinates to be generated automatically.
	Detected frag 1 with atoms:  1 2 3 4 5 6 7 8 9 10 11 12 13 14 15 16 17 18 19 20
	 21 22 23 24 25 26
	---Fragment 1 Bond Connectivity---
	 1 : 2 3 4 9
	 2 : 1
	 3 : 1
	 4 : 1
	 5 : 6 7 8 12
	 6 : 5
	 7 : 5
	 8 : 5
	 9 : 1 10 11 15
	 10 : 9
	 11 : 9
	 12 : 5 13 14 24
	 13 : 12
	 14 : 12
	 15 : 9 16 17 18
	 16 : 15
	 17 : 15
	 18 : 15 19 20 21
	 19 : 18
	 20 : 18
	 21 : 18 22 23 24
	 22 : 21
	 23 : 21
	 24 : 12 21 25 26
	 25 : 24
	 26 : 24

	---Fragment 1 Geometry and Gradient---
	 C           8.4153201556       -0.5054648129       -0.0001736593
	 H          10.0740003836        0.7148736758       -0.0002192920
	 H           8.5194146409       -1.7169918719       -1.6643607287
	 H           8.5194834437       -1.7169608856        1.6640316970
	 C          -8.4153215255        0.5054566366        0.0001783754
	 H          -8.5194908398        1.7169500106       -1.6640283019
	 H          -8.5194162046        1.7169854007        1.6643639706
	 H         -10.0739982892       -0.7148864565        0.0002285520
	 C           5.9724408707        1.0186356384       -0.0001373258
	 H           5.9201774421        2.2542930426       -1.6549207792
	 H           5.9202459080        2.2543239012        1.6546252916
	 C          -5.9724380850       -1.0186373981        0.0001397549
	 H          -5.9201684492       -2.2542923504        1.6549247617
	 H          -5.9202424481       -2.2543271851       -1.6546215316
	 C           3.6305872163       -0.6557786664       -0.0000733608
	 H           3.6785700139       -1.8943773546        1.6563904005
	 H           3.6785006297       -1.8944071089       -1.6565168482
	 C           1.1702844723        0.8380438878       -0.0000352933
	 H           1.1230752458        2.0761062422       -1.6565971076
	 H           1.1231463610        2.0761388909        1.6565041821
	 C          -1.1702842271       -0.8380370580        0.0000314737
	 H          -1.1231460734       -2.0761319254       -1.6565081888
	 H          -1.1230747956       -2.0760993199        1.6565935290
	 C          -3.6305887547        0.6557827433        0.0000696777
	 H          -3.6785025951        1.8944138119        1.6565107789
	 H          -3.6785758314        1.8943779259       -1.6563961291
	            -0.0000001482        0.0000000526       -0.0000000077
	            -0.0000000750       -0.0000001858        0.0000000011
	             0.0000000618        0.0000001943        0.0000002492
	             0.0000000622        0.0000001901       -0.0000002427
	             0.0000000999        0.0000000676       -0.0000000036
	            -0.0000000519       -0.0000002220        0.0000002778
	            -0.0000000565       -0.0000002135       -0.0000002699
	             0.0000000696        0.0000001598        0.0000000019
	             0.0000004924        0.0000005995       -0.0000000102
	             0.0000000370       -0.0000003289        0.0000003370
	             0.0000000379       -0.0000003157       -0.0000003254
	            -0.0000003606       -0.0000006685       -0.0000000088
	            -0.0000000285        0.0000003201       -0.0000002963
	            -0.0000000220        0.0000003399        0.0000003094
	            -0.0000006186       -0.0000012480        0.0000000093
	            -0.0000001197        0.0000005377       -0.0000005705
	            -0.0000001237        0.0000005328        0.0000005653
	            -0.0000001590        0.0000012653        0.0000000075
	            -0.0000000125       -0.0000008515        0.0000008448
	            -0.0000000075       -0.0000008550       -0.0000008494
	             0.0000002476       -0.0000012723       -0.0000000003
	            -0.0000000183        0.0000008414        0.0000007915
	            -0.0000000139        0.0000008365       -0.0000007884
	             0.0000004906        0.0000013594       -0.0000000188
	             0.0000001072       -0.0000005663       -0.0000006322
	             0.0000001097       -0.0000005695        0.0000006292

	Previous optimization step data not found.  Starting new optimization.

	---Fragment 1 Intrafragment Coordinates---
	 - Coordinate -           - BOHR/RAD -       - ANG/DEG -
	 R(1,2)           =         2.059234	       1.089700
	 R(1,3)           =         2.061105	       1.090690
	 R(1,4)           =         2.061105	       1.090690
	 R(1,9)           =         2.879330	       1.523676
	 R(5,6)           =         2.061104	       1.090689
	 R(5,7)           =         2.061104	       1.090689
	 R(5,8)           =         2.059234	       1.089700
	 R(5,12)          =         2.879330	       1.523676
	 R(9,10)          =         2.065887	       1.093220
	 R(9,11)          =         2.065887	       1.093220
	 R(9,15)          =         2.878879	       1.523437
	 R(12,13)         =         2.065887	       1.093220
	 R(12,14)         =         2.065887	       1.093220
	 R(12,24)         =         2.878878	       1.523437
	 R(15,16)         =         2.068889	       1.094809
	 R(15,17)         =         2.068889	       1.094809
	 R(15,18)         =         2.878297	       1.523129
	 R(18,19)         =         2.068629	       1.094671
	 R(18,20)         =         2.068629	       1.094671
	 R(18,21)         =         2.878803	       1.523397
	 R(21,22)         =         2.068629	       1.094671
	 R(21,23)         =         2.068629	       1.094671
	 R(21,24)         =         2.878297	       1.523129
	 R(24,25)         =         2.068889	       1.094809
	 R(24,26)         =         2.068889	       1.094809
	 B(1,9,10)        =         1.915646	     109.758447
	 B(1,9,11)        =         1.915646	     109.758447
	 B(1,9,15)        =         1.963069	     112.475573
	 B(2,1,3)         =         1.883514	     107.917376
	 B(2,1,4)         =         1.883514	     107.917375
	 B(2,1,9)         =         1.949484	     111.697182
	 B(3,1,4)         =         1.879563	     107.691042
	 B(3,1,9)         =         1.932639	     110.732078
	 B(4,1,9)         =         1.932639	     110.732077
	 B(5,12,13)       =         1.915646	     109.758446
	 B(5,12,14)       =         1.915646	     109.758448
	 B(5,12,24)       =         1.963069	     112.475581
	 B(6,5,7)         =         1.879563	     107.691050
	 B(6,5,8)         =         1.883514	     107.917381
	 B(6,5,12)        =         1.932639	     110.732072
	 B(7,5,8)         =         1.883514	     107.917380
	 B(7,5,12)        =         1.932639	     110.732074
	 B(8,5,12)        =         1.949483	     111.697173
	 B(9,15,16)       =         1.906417	     109.229631
	 B(9,15,17)       =         1.906417	     109.229635
	 B(9,15,18)       =         1.975198	     113.170534
	 B(10,9,11)       =         1.857924	     106.451177
	 B(10,9,15)       =         1.904262	     109.106187
	 B(11,9,15)       =         1.904262	     109.106190
	 B(12,24,21)      =         1.975197	     113.170455
	 B(12,24,25)      =         1.906417	     109.229646
	 B(12,24,26)      =         1.906417	     109.229652
	 B(13,12,14)      =         1.857924	     106.451195
	 B(13,12,24)      =         1.904262	     109.106178
	 B(14,12,24)      =         1.904262	     109.106175
	 B(15,18,19)      =         1.907219	     109.275597
	 B(15,18,20)      =         1.907219	     109.275596
	 B(15,18,21)      =         1.974468	     113.128677
	 B(16,15,17)      =         1.856755	     106.384227
	 B(16,15,18)      =         1.907656	     109.300644
	 B(17,15,18)      =         1.907656	     109.300642
	 B(18,21,22)      =         1.907011	     109.263666
	 B(18,21,23)      =         1.907011	     109.263663
	 B(18,21,24)      =         1.974469	     113.128742
	 B(19,18,20)      =         1.857248	     106.412471
	 B(19,18,21)      =         1.907011	     109.263671
	 B(20,18,21)      =         1.907011	     109.263670
	 B(21,24,25)      =         1.907656	     109.300664
	 B(21,24,26)      =         1.907656	     109.300664
	 B(22,21,23)      =         1.857248	     106.412483
	 B(22,21,24)      =         1.907218	     109.275562
	 B(23,21,24)      =         1.907218	     109.275562
	 B(25,24,26)      =         1.856755	     106.384237
	 D(1,9,15,16)     =         1.012124	      57.990437
	 D(1,9,15,17)     =        -1.012125	     -57.990483
	 D(1,9,15,18)     =         3.141593	     180.000000
	 D(2,1,9,10)      =         1.018090	      58.332248
	 D(2,1,9,11)      =        -1.018090	     -58.332245
	 D(2,1,9,15)      =         3.141593	     180.000000
	 D(3,1,9,10)      =        -1.081664	     -61.974787
	 D(3,1,9,11)      =        -3.117844	    -178.639281
	 D(3,1,9,15)      =         1.041839	      59.692964
	 D(4,1,9,10)      =         3.117844	     178.639282
	 D(4,1,9,11)      =         1.081664	      61.974788
	 D(4,1,9,15)      =        -1.041839	     -59.692967
	 D(5,12,24,21)    =         3.141593	     180.000000
	 D(5,12,24,25)    =         1.012124	      57.990452
	 D(5,12,24,26)    =        -1.012125	     -57.990497
	 D(6,5,12,13)     =        -3.117844	    -178.639283
	 D(6,5,12,14)     =        -1.081664	     -61.974768
	 D(6,5,12,24)     =         1.041839	      59.692973
	 D(7,5,12,13)     =         1.081664	      61.974782
	 D(7,5,12,14)     =         3.117844	     178.639296
	 D(7,5,12,24)     =        -1.041839	     -59.692962
	 D(8,5,12,13)     =        -1.018090	     -58.332251
	 D(8,5,12,14)     =         1.018090	      58.332264
	 D(8,5,12,24)     =         3.141593	     180.000000
	 D(9,15,18,19)    =         1.012869	      58.033138
	 D(9,15,18,20)    =        -1.012867	     -58.033017
	 D(9,15,18,21)    =         3.141593	     180.000000
	 D(10,9,15,16)    =        -3.141094	    -179.971443
	 D(10,9,15,17)    =         1.117842	      64.047637
	 D(10,9,15,18)    =        -1.011626	     -57.961904
	 D(11,9,15,16)    =        -1.117843	     -64.047685
	 D(11,9,15,17)    =         3.141093	     179.971396
	 D(11,9,15,18)    =         1.011625	      57.961855
	 D(12,24,21,18)   =         3.141593	     180.000000
	 D(12,24,21,22)   =         1.012869	      58.033135
	 D(12,24,21,23)   =        -1.012867	     -58.032996
	 D(13,12,24,21)   =         1.011625	      57.961859
	 D(13,12,24,25)   =        -1.117843	     -64.047664
	 D(13,12,24,26)   =         3.141093	     179.971386
	 D(14,12,24,21)   =        -1.011626	     -57.961907
	 D(14,12,24,25)   =        -3.141094	    -179.971430
	 D(14,12,24,26)   =         1.117842	      64.047620
	 D(15,18,21,22)   =        -1.012752	     -58.026403
	 D(15,18,21,23)   =         1.012752	      58.026399
	 D(15,18,21,24)   =         3.141593	     180.000000
	 D(16,15,18,19)   =        -3.141541	    -179.997059
	 D(16,15,18,20)   =         1.115907	      63.936786
	 D(16,15,18,21)   =        -1.012817	     -58.030136
	 D(17,15,18,19)   =        -1.115905	     -63.936670
	 D(17,15,18,20)   =         3.141543	     179.997174
	 D(17,15,18,21)   =         1.012819	      58.030253
	 D(18,21,24,25)   =        -1.012817	     -58.030144
	 D(18,21,24,26)   =         1.012819	      58.030280
	 D(19,18,21,22)   =         1.116089	      63.947200
	 D(19,18,21,23)   =         3.141593	     180.000000
	 D(19,18,21,24)   =        -1.012752	     -58.026400
	 D(20,18,21,22)   =         3.141593	     180.000000
	 D(20,18,21,23)   =        -1.116089	     -63.947202
	 D(20,18,21,24)   =         1.012752	      58.026395
	 D(22,21,24,25)   =        -3.141542	    -179.997081
	 D(22,21,24,26)   =        -1.115905	     -63.936657
	 D(23,21,24,25)   =         1.115907	      63.936788
	 D(23,21,24,26)   =         3.141544	     179.997212

	Current energy   :      -314.9851829644

	Generating empirical Hessian (Schlegel '84) for each fragment.
	Taking RFO optimization step.
	Going to follow RFO solution 1.
	Using RFO vector 1.
	Norm of target step-size    0.00001
	Projected energy change by RFO approximation:        -0.0000000000

	Back-transformation to cartesian coordinates...
	Successfully converged to displaced geometry.
	First geometry is closer to target in internal coordinates, so am using that one.
	First geometry has RMS(Delta(q)) = 1.50e-07

	--- Internal Coordinate Step in ANG or DEG, aJ/ANG or AJ/DEG ---
	 ---------------------------------------------------------------------------
	   Coordinate                Previous        Force       Change         New 
	   ----------                --------       ------       ------       ------
	    1 R(1,2)          =      1.089700     0.000001     0.000000     1.089700
	    2 R(1,3)          =      1.090690     0.000003     0.000000     1.090690
	    3 R(1,4)          =      1.090690     0.000003     0.000000     1.090690
	    4 R(1,9)          =      1.523676     0.000002     0.000000     1.523676
	    5 R(5,6)          =      1.090689     0.000003     0.000001     1.090690
	    6 R(5,7)          =      1.090689     0.000003     0.000001     1.090690
	    7 R(5,8)          =      1.089700     0.000001     0.000000     1.089700
	    8 R(5,12)         =      1.523676     0.000001     0.000000     1.523676
	    9 R(9,10)         =      1.093220     0.000004     0.000001     1.093221
	   10 R(9,11)         =      1.093220     0.000004     0.000001     1.093221
	   11 R(9,15)         =      1.523437    -0.000004    -0.000001     1.523436
	   12 R(12,13)        =      1.093220     0.000004     0.000001     1.093221
	   13 R(12,14)        =      1.093220     0.000004     0.000001     1.093221
	   14 R(12,24)        =      1.523437    -0.000004    -0.000001     1.523436
	   15 R(15,16)        =      1.094809     0.000006     0.000001     1.094810
	   16 R(15,17)        =      1.094809     0.000006     0.000001     1.094810
	   17 R(15,18)        =      1.523129     0.000003     0.000001     1.523130
	   18 R(18,19)        =      1.094671     0.000010     0.000002     1.094673
	   19 R(18,20)        =      1.094671     0.000010     0.000002     1.094673
	   20 R(18,21)        =      1.523397     0.000006     0.000001     1.523398
	   21 R(21,22)        =      1.094671     0.000009     0.000002     1.094673
	   22 R(21,23)        =      1.094671     0.000009     0.000002     1.094673
	   23 R(21,24)        =      1.523129     0.000003     0.000001     1.523130
	   24 R(24,25)        =      1.094809     0.000007     0.000001     1.094810
	   25 R(24,26)        =      1.094809     0.000007     0.000001     1.094810
	   26 B(1,9,10)       =    109.758447     0.000000     0.000040   109.758486
	   27 B(1,9,11)       =    109.758447     0.000000     0.000038   109.758485
	   28 B(1,9,15)       =    112.475573    -0.000000    -0.000100   112.475473
	   29 B(2,1,3)        =    107.917376     0.000000     0.000042   107.917418
	   30 B(2,1,4)        =    107.917375     0.000000     0.000042   107.917418
	   31 B(2,1,9)        =    111.697182    -0.000000    -0.000027   111.697155
	   32 B(3,1,4)        =    107.691042     0.000000    -0.000003   107.691039
	   33 B(3,1,9)        =    110.732078    -0.000000    -0.000025   110.732053
	   34 B(4,1,9)        =    110.732077    -0.000000    -0.000025   110.732052
	   35 B(5,12,13)      =    109.758446     0.000000     0.000038   109.758484
	   36 B(5,12,14)      =    109.758448     0.000000     0.000034   109.758482
	   37 B(5,12,24)      =    112.475581    -0.000000    -0.000097   112.475484
	   38 B(6,5,7)        =    107.691050     0.000000    -0.000007   107.691042
	   39 B(6,5,8)        =    107.917381     0.000000     0.000038   107.917418
	   40 B(6,5,12)       =    110.732072    -0.000000    -0.000023   110.732049
	   41 B(7,5,8)        =    107.917380     0.000000     0.000039   107.917419
	   42 B(7,5,12)       =    110.732074    -0.000000    -0.000025   110.732049
	   43 B(8,5,12)       =    111.697173    -0.000000    -0.000018   111.697156
	   44 B(9,15,16)      =    109.229631    -0.000000    -0.000038   109.229592
	   45 B(9,15,17)      =    109.229635    -0.000000    -0.000038   109.229596
	   46 B(9,15,18)      =    113.170534     0.000000     0.000048   113.170582
	   47 B(10,9,11)      =    106.451177    -0.000000    -0.000014   106.451163
	   48 B(10,9,15)      =    109.106187     0.000000     0.000021   109.106209
	   49 B(11,9,15)      =    109.106190     0.000000     0.000019   109.106210
	   50 B(12,24,21)     =    113.170455     0.000000     0.000096   113.170551
	   51 B(12,24,25)     =    109.229646    -0.000000    -0.000042   109.229605
	   52 B(12,24,26)     =    109.229652    -0.000000    -0.000048   109.229604
	   53 B(13,12,14)     =    106.451195    -0.000000    -0.000028   106.451167
	   54 B(13,12,24)     =    109.106178     0.000000     0.000025   109.106203
	   55 B(14,12,24)     =    109.106175     0.000000     0.000031   109.106206
	   56 B(15,18,19)     =    109.275597    -0.000000    -0.000008   109.275589
	   57 B(15,18,20)     =    109.275596    -0.000000    -0.000006   109.275590
	   58 B(15,18,21)     =    113.128677     0.000000     0.000057   113.128734
	   59 B(16,15,17)     =    106.384227    -0.000000    -0.000065   106.384161
	   60 B(16,15,18)     =    109.300644     0.000000     0.000042   109.300686
	   61 B(17,15,18)     =    109.300642     0.000000     0.000045   109.300687
	   62 B(18,21,22)     =    109.263666     0.000000     0.000029   109.263695
	   63 B(18,21,23)     =    109.263663     0.000000     0.000032   109.263695
	   64 B(18,21,24)     =    113.128742    -0.000000     0.000019   113.128761
	   65 B(19,18,20)     =    106.412471    -0.000000    -0.000114   106.412357
	   66 B(19,18,21)     =    109.263671     0.000000     0.000031   109.263702
	   67 B(20,18,21)     =    109.263670     0.000000     0.000029   109.263699
	   68 B(21,24,25)     =    109.300664    -0.000000     0.000028   109.300692
	   69 B(21,24,26)     =    109.300664    -0.000000     0.000023   109.300687
	   70 B(22,21,23)     =    106.412483    -0.000000    -0.000121   106.412362
	   71 B(22,21,24)     =    109.275562     0.000000     0.000017   109.275579
	   72 B(23,21,24)     =    109.275562     0.000000     0.000015   109.275577
	   73 B(25,24,26)     =    106.384237     0.000000    -0.000067   106.384169
	   74 D(1,9,15,16)    =     57.990437    -0.000000    -0.000065    57.990372
	   75 D(1,9,15,17)    =    -57.990483     0.000000     0.000056   -57.990426
	   76 D(1,9,15,18)    =    180.000000    -0.000000     0.000000   180.000000
	   77 D(2,1,9,10)     =     58.332248     0.000000     0.000003    58.332251
	   78 D(2,1,9,11)     =    -58.332245    -0.000000    -0.000025   -58.332270
	   79 D(2,1,9,15)     =    180.000000     0.000000     0.000000   180.000000
	   80 D(3,1,9,10)     =    -61.974787     0.000000    -0.000015   -61.974802
	   81 D(3,1,9,11)     =   -178.639281    -0.000000    -0.000043  -178.639324
	   82 D(3,1,9,15)     =     59.692964    -0.000000    -0.000027    59.692937
	   83 D(4,1,9,10)     =    178.639282     0.000000     0.000022   178.639303
	   84 D(4,1,9,11)     =     61.974788    -0.000000    -0.000007    61.974781
	   85 D(4,1,9,15)     =    -59.692967     0.000000     0.000009   -59.692958
	   86 D(5,12,24,21)   =    180.000000     0.000000     0.000000   180.000000
	   87 D(5,12,24,25)   =     57.990452    -0.000000     0.000010    57.990463
	   88 D(5,12,24,26)   =    -57.990497     0.000000     0.000141   -57.990356
	   89 D(6,5,12,13)    =   -178.639283    -0.000000    -0.000033  -178.639316
	   90 D(6,5,12,14)    =    -61.974768    -0.000000    -0.000025   -61.974793
	   91 D(6,5,12,24)    =     59.692973    -0.000000    -0.000027    59.692946
	   92 D(7,5,12,13)    =     61.974782     0.000000     0.000007    61.974789
	   93 D(7,5,12,14)    =    178.639296     0.000000     0.000015   178.639312
	   94 D(7,5,12,24)    =    -59.692962     0.000000     0.000013   -59.692949
	   95 D(8,5,12,13)    =    -58.332251    -0.000000    -0.000013   -58.332264
	   96 D(8,5,12,14)    =     58.332264     0.000000    -0.000005    58.332259
	   97 D(8,5,12,24)    =    180.000000     0.000000     0.000000   180.000000
	   98 D(9,15,18,19)   =     58.033138    -0.000000    -0.000056    58.033081
	   99 D(9,15,18,20)   =    -58.033017     0.000000     0.000088   -58.032929
	  100 D(9,15,18,21)   =    180.000000     0.000000     0.000000   180.000000
	  101 D(10,9,15,16)   =   -179.971443    -0.000000    -0.000066  -179.971510
	  102 D(10,9,15,17)   =     64.047637     0.000000     0.000055    64.047692
	  103 D(10,9,15,18)   =    -57.961904    -0.000000    -0.000008   -57.961911
	  104 D(11,9,15,16)   =    -64.047685    -0.000000    -0.000060   -64.047745
	  105 D(11,9,15,17)   =    179.971396     0.000000     0.000061   179.971457
	  106 D(11,9,15,18)   =     57.961855     0.000000    -0.000001    57.961853
	  107 D(12,24,21,18)  =    180.000000    -0.000000     0.000000   180.000000
	  108 D(12,24,21,22)  =     58.033135    -0.000000    -0.000115    58.033020
	  109 D(12,24,21,23)  =    -58.032996     0.000000     0.000012   -58.032984
	  110 D(13,12,24,21)  =     57.961859     0.000000     0.000080    57.961939
	  111 D(13,12,24,25)  =    -64.047664    -0.000000     0.000009   -64.047656
	  112 D(13,12,24,26)  =    179.971386     0.000000     0.000139   179.971526
	  113 D(14,12,24,21)  =    -57.961907    -0.000000     0.000082   -57.961825
	  114 D(14,12,24,25)  =   -179.971430    -0.000000     0.000011  -179.971419
	  115 D(14,12,24,26)  =     64.047620     0.000000     0.000142    64.047762
	  116 D(15,18,21,22)  =    -58.026403     0.000000     0.000049   -58.026355
	  117 D(15,18,21,23)  =     58.026399    -0.000000    -0.000062    58.026338
	  118 D(15,18,21,24)  =    180.000000    -0.000000     0.000000   180.000000
	  119 D(16,15,18,19)  =   -179.997059    -0.000000    -0.000043  -179.997102
	  120 D(16,15,18,20)  =     63.936786     0.000000     0.000102    63.936888
	  121 D(16,15,18,21)  =    -58.030136     0.000000     0.000031   -58.030105
	  122 D(17,15,18,19)  =    -63.936670    -0.000000    -0.000072   -63.936743
	  123 D(17,15,18,20)  =    179.997174     0.000000     0.000072   179.997247
	  124 D(17,15,18,21)  =     58.030253     0.000000     0.000001    58.030254
	  125 D(18,21,24,25)  =    -58.030144     0.000000    -0.000021   -58.030165
	  126 D(18,21,24,26)  =     58.030280    -0.000000    -0.000073    58.030206
	  127 D(19,18,21,22)  =     63.947200     0.000000     0.000100    63.947300
	  128 D(19,18,21,23)  =    180.000000    -0.000000     0.000000   180.000000
	  129 D(19,18,21,24)  =    -58.026400     0.000000     0.000045   -58.026355
	  130 D(20,18,21,22)  =    180.000000     0.000000     0.000000   180.000000
	  131 D(20,18,21,23)  =    -63.947202    -0.000000    -0.000113   -63.947315
	  132 D(20,18,21,24)  =     58.026395    -0.000000    -0.000058    58.026337
	  133 D(22,21,24,25)  =   -179.997081    -0.000000    -0.000083  -179.997164
	  134 D(22,21,24,26)  =    -63.936657    -0.000000    -0.000135   -63.936792
	  135 D(23,21,24,25)  =     63.936788     0.000000     0.000044    63.936833
	  136 D(23,21,24,26)  =    179.997212     0.000000    -0.000008   179.997204
	 ---------------------------------------------------------------------------

  ==> Convergence Check <==

  Measures of convergence in internal coordinates in au.
  Criteria marked as inactive (o), active & met (*), and active & unmet ( ).
  --------------------------------------------------------------------------------------------- ~
   Step     Total Energy     Delta E     MAX Force     RMS Force      MAX Disp      RMS Disp    ~
  --------------------------------------------------------------------------------------------- ~
    Convergence Criteria             o    2.00e-06 *    1.00e-06 *    6.00e-06 *    4.00e-06 *  ~
  --------------------------------------------------------------------------------------------- ~
      1    -314.98518296   -3.15e+02 o    1.19e-06 *    2.90e-07 *    3.47e-06 *    1.19e-06 *  ~
  ---------------------------------------------------------------------------------------------


  **** Optimization is complete! (in 1 steps) ****

  ==> Optimization Summary <==

  Measures of convergence in internal coordinates in au.
  --------------------------------------------------------------------------------------------------------------- ~
   Step         Total Energy             Delta E       MAX Force       RMS Force        MAX Disp        RMS Disp  ~
  --------------------------------------------------------------------------------------------------------------- ~
      1    -314.985182964413   -314.985182964413      0.00000119      0.00000029      0.00000347      0.00000119  ~
  --------------------------------------------------------------------------------------------------------------- ~

	Writing optimization data to binary file.
	Final energy is   -314.9851829644125
	Final (previous) structure:
	Cartesian Geometry (in Angstrom)
	    C     4.4531956293  -0.2674804588  -0.0000918965
	    H     5.3309314023   0.3782948563  -0.0001160443
	    H     4.5082800585  -0.9085929659  -0.8807417645
	    H     4.5083164674  -0.9085765687   0.8805676484
	    C    -4.4531963543   0.2674761320   0.0000943922
	    H    -4.5083203812   0.9085708139  -0.8805658518
	    H    -4.5082808860   0.9085895416   0.8807434800
	    H    -5.3309302940  -0.3783016195   0.0001209445
	    C     3.1604795884   0.5390387637  -0.0000726697
	    H     3.1328229732   1.1929204996  -0.8757463584
	    H     3.1328592038   1.1929368293   0.8755899931
	    C    -3.1604781143  -0.5390396949   0.0000739551
	    H    -3.1328182143  -1.1929201334   0.8757484658
	    H    -3.1328573729  -1.1929385671  -0.8755880034
	    C     1.9212240087  -0.3470231242  -0.0000388208
	    H     1.9466154115  -1.0024613205   0.8765240485
	    H     1.9465786950  -1.0024770658  -0.8765909617
	    C     0.6192878703   0.4434737252  -0.0000186764
	    H     0.5943058236   1.0986281060  -0.8766334331
	    H     0.5943434561   1.0986453829   0.8765842591
	    C    -0.6192877405  -0.4434701111   0.0000166551
	    H    -0.5943433040  -1.0986416970  -0.8765863794
	    H    -0.5943055854  -1.0986244429   0.8766315394
	    C    -1.9212248228   0.3470252815   0.0000368719
	    H    -1.9465797351   1.0024806129   0.8765877500
	    H    -1.9466184901   1.0024616229  -0.8765270799
	Saving final (previous) structure.
			--------------------------
			 OPTKING Finished Execution 
			--------------------------

    Final optimized geometry and variables:
    Molecular point group: c1
    Full point group: C1

    Geometry (in Angstrom), charge = 0, multiplicity = 1:

    C            4.453195629309    -0.267480458757    -0.000091896544
    H            5.330931402329     0.378294856259    -0.000116044329
    H            4.508280058514    -0.908592965948    -0.880741764502
    H            4.508316467356    -0.908576568711     0.880567648400
    C           -4.453196354276     0.267476132037     0.000094392207
    H           -4.508320381209     0.908570813892    -0.880565851794
    H           -4.508280885987     0.908589541557     0.880743480025
    H           -5.330930294018    -0.378301619528     0.000120944504
    C            3.160479588410     0.539038763698    -0.000072669676
    H            3.132822973176     1.192920499631    -0.875746358400
    H            3.132859203751     1.192936829309     0.875589993077
    C           -3.160478114308    -0.539039694901     0.000073955086
    H           -3.132818214346    -1.192920133352     0.875748465808
    H           -3.132857372887    -1.192938567053    -0.875588003376
    C            1.921224008678    -0.347023124161    -0.000038820847
    H            1.946615411549    -1.002461320543     0.876524048456
    H            1.946578695015    -1.002477065812    -0.876590961687
    C            0.619287870282     0.443473725199    -0.000018676406
    H            0.594305823613     1.098628105992    -0.876633433146
    H            0.594343456144     1.098645382945     0.876584259115
    C           -0.619287740533    -0.443470111053     0.000016655147
    H           -0.594343303963    -1.098641696970    -0.876586379367
    H           -0.594305585351    -1.098624442877     0.876631539430
    C           -1.921224822770     0.347025281548     0.000036871873
    H           -1.946579735074     1.002480612904     0.876587750003
    H           -1.946618490071     1.002461622852    -0.876527079917

	Cleaning optimization helper files.

*** Psi4 exiting successfully. Buy a developer a beer!
