    -----------------------------------------------------------------------
          Psi4: An Open-Source Ab Initio Electronic Structure Package
                              Psi4 1.0.0 Driver

                          Git: Rev {master} 6a9a71b dirty

    J. M. Turney, A. C. Simmonett, R. M. Parrish, E. G. Hohenstein,
    F. A. Evangelista, J. T. Fermann, B. J. Mintz, L. A. Burns, J. J. Wilke,
    M. L. Abrams, N. J. Russ, M. L. Leininger, C. L. Janssen, E. T. Seidl,
    W. D. Allen, H. F. Schaefer, R. A. King, E. F. Valeev, C. D. Sherrill,
    and T. D. Crawford, WIREs Comput. Mol. Sci. 2, 556-565 (2012)
    (doi: 10.1002/wcms.93)

                         Additional Contributions by
    A. E. DePrince, U. Bozkaya, A. Yu. Sokolov, D. G. A. Smith, R. Di Remigio,
    R. M. Richard, J. F. Gonthier, H. R. McAlexander, M. Saitow, and
    B. P. Pritchard
    -----------------------------------------------------------------------


    Psi4 started on: Tue Sep 20 22:40:02 2016

    Process ID:  31685
    PSI4DATADIR: /usr/local/hpc5/psi4conda/share/psi4
    Memory level set to 256.000 MB

  ==> Input File <==

--------------------------------------------------------------------------
memory 60 Gb

molecule molecule_38_psi {
0 1
C            3.202960259680    -1.075285301432     0.389272274864
H            2.308030917119    -1.656196564484     0.606214179506
H            3.650912148308    -0.792593956082     1.342855201598
H            3.908025907775    -1.723871758783    -0.131173879000
C           -4.021368885665    -0.084964760757    -0.012036468743
H           -4.724366720933     0.500032872670     0.580445215682
H           -4.275582866184    -1.138789472950     0.108219192306
H           -4.170217640528     0.174176127445    -1.061081849769
C            2.883114918904     0.170783905196    -0.432401621821
H            2.505679512074    -0.118594632503    -1.417557267019
H            3.814541651395     0.710919118329    -0.612217636225
C           -2.579268165783     0.174562512609     0.407202281603
H           -2.361113524300     1.239550650519     0.310023898415
H           -2.450604961420    -0.075278238829     1.464292672299
C            1.870368815718     1.108904281156     0.240417187895
H            2.147150133341     2.146694659943     0.042524586683
H            1.926700965041     0.979209439026     1.325940557360
C            0.424715683547     0.913212011517    -0.217384934811
H            0.360027323201     1.138179746855    -1.287529906720
H           -0.202663515233     1.648200858059     0.291944820663
C           -0.133494723777    -0.485910409118     0.018932260827
H            0.474707938180    -1.211678634708    -0.525701990374
H           -0.046448000725    -0.738225192742     1.081357321717
C           -1.589159588684    -0.639823126038    -0.418325053453
H           -1.681255924820    -0.357194007642    -1.472407420882
H           -1.872551442579    -1.694698855496    -0.356525118539
}

set globals {
  reference rhf
  g_convergence gau_verytight
  basis aug-cc-pvtz
  freeze_core true
  scf_type df
  mp_type df
}
optimize('mp2')
--------------------------------------------------------------------------
/usr/local/hpc5/psi4conda/lib/python2.7/site-packages/v2rdm_casscf/v2rdm_casscf.so loaded.

  Memory set to  60.000 GiB by Python script.
gradient() will perform analytic gradient computation.

*** tstart() called on wr29
*** at Tue Sep 20 22:40:03 2016


         ---------------------------------------------------------
                                   SCF
            by Justin Turney, Rob Parrish, and Andy Simmonett
                              RHF Reference
                       12 Threads,  60000 MiB Core
         ---------------------------------------------------------

  ==> Geometry <==

    Molecular point group: c1
    Full point group: C1

    Geometry (in Angstrom), charge = 0, multiplicity = 1:

       Center              X                  Y                   Z               Mass       
    ------------   -----------------  -----------------  -----------------  -----------------
           C          3.202960259680    -1.075285301432     0.389272274864    12.000000000000
           H          2.308030917119    -1.656196564484     0.606214179506     1.007825032070
           H          3.650912148308    -0.792593956082     1.342855201598     1.007825032070
           H          3.908025907775    -1.723871758783    -0.131173879000     1.007825032070
           C         -4.021368885665    -0.084964760757    -0.012036468743    12.000000000000
           H         -4.724366720933     0.500032872670     0.580445215682     1.007825032070
           H         -4.275582866184    -1.138789472950     0.108219192306     1.007825032070
           H         -4.170217640528     0.174176127445    -1.061081849769     1.007825032070
           C          2.883114918904     0.170783905196    -0.432401621821    12.000000000000
           H          2.505679512074    -0.118594632503    -1.417557267019     1.007825032070
           H          3.814541651395     0.710919118329    -0.612217636225     1.007825032070
           C         -2.579268165783     0.174562512609     0.407202281603    12.000000000000
           H         -2.361113524300     1.239550650519     0.310023898415     1.007825032070
           H         -2.450604961420    -0.075278238829     1.464292672299     1.007825032070
           C          1.870368815718     1.108904281156     0.240417187895    12.000000000000
           H          2.147150133341     2.146694659943     0.042524586683     1.007825032070
           H          1.926700965041     0.979209439026     1.325940557360     1.007825032070
           C          0.424715683547     0.913212011517    -0.217384934811    12.000000000000
           H          0.360027323201     1.138179746855    -1.287529906720     1.007825032070
           H         -0.202663515233     1.648200858059     0.291944820663     1.007825032070
           C         -0.133494723777    -0.485910409118     0.018932260827    12.000000000000
           H          0.474707938180    -1.211678634708    -0.525701990374     1.007825032070
           H         -0.046448000725    -0.738225192742     1.081357321717     1.007825032070
           C         -1.589159588684    -0.639823126038    -0.418325053453    12.000000000000
           H         -1.681255924820    -0.357194007642    -1.472407420882     1.007825032070
           H         -1.872551442579    -1.694698855496    -0.356525118539     1.007825032070

  Running in c1 symmetry.

  Rotational constants: A =      0.17379  B =      0.02288  C =      0.02150 [cm^-1]
  Rotational constants: A =   5210.23918  B =    685.80310  C =    644.70269 [MHz]
  Nuclear repulsion =  391.225564753163781

  Charge       = 0
  Multiplicity = 1
  Electrons    = 66
  Nalpha       = 33
  Nbeta        = 33

  ==> Algorithm <==

  SCF Algorithm Type is DF.
  DIIS enabled.
  MOM disabled.
  Fractional occupation disabled.
  Guess Type is SAD.
  Energy threshold   = 1.00e-10
  Density threshold  = 1.00e-10
  Integral threshold = 0.00e+00

  ==> Primary Basis <==

  Basis Set: AUG-CC-PVTZ
    Number of shells: 274
    Number of basis function: 782
    Number of Cartesian functions: 890
    Spherical Harmonics?: true
    Max angular momentum: 3

  ==> Pre-Iterations <==

   -------------------------------------------------------
    Irrep   Nso     Nmo     Nalpha   Nbeta   Ndocc  Nsocc
   -------------------------------------------------------
     A        782     782       0       0       0       0
   -------------------------------------------------------
    Total     782     782      33      33      33       0
   -------------------------------------------------------

  ==> Integral Setup <==

  ==> DFJK: Density-Fitted J/K Matrices <==

    J tasked:                  Yes
    K tasked:                  Yes
    wK tasked:                  No
    OpenMP threads:             12
    Integrals threads:          12
    Memory (MB):             42915
    Algorithm:                Core
    Integral Cache:           NONE
    Schwarz Cutoff:          1E-12
    Fitting Condition:       1E-12

   => Auxiliary Basis Set <=

  Basis Set: 
    Number of shells: 492
    Number of basis function: 1660
    Number of Cartesian functions: 2038
    Spherical Harmonics?: true
    Max angular momentum: 4

  Minimum eigenvalue in the overlap matrix is 1.7355776952E-06.
  Using Symmetric Orthogonalization.
  SCF Guess: Superposition of Atomic Densities via on-the-fly atomic UHF.

  ==> Iterations <==

                           Total Energy        Delta E     RMS |[F,P]|

   @DF-RHF iter   0:  -316.77812361021904   -3.16778e+02   6.89783e-03 
   @DF-RHF iter   1:  -313.28291922787355    3.49520e+00   7.61433e-04 
   @DF-RHF iter   2:  -313.50131278059064   -2.18394e-01   2.94865e-04 DIIS
   @DF-RHF iter   3:  -313.53341928693851   -3.21065e-02   9.90674e-05 DIIS
   @DF-RHF iter   4:  -313.53857814298033   -5.15886e-03   1.54920e-05 DIIS
   @DF-RHF iter   5:  -313.53873291945729   -1.54776e-04   4.91354e-06 DIIS
   @DF-RHF iter   6:  -313.53874554650156   -1.26270e-05   1.21186e-06 DIIS
   @DF-RHF iter   7:  -313.53874649178078   -9.45279e-07   2.32855e-07 DIIS
   @DF-RHF iter   8:  -313.53874652680383   -3.50230e-08   7.44998e-08 DIIS
   @DF-RHF iter   9:  -313.53874652941352   -2.60968e-09   1.81472e-08 DIIS
   @DF-RHF iter  10:  -313.53874652964043   -2.26919e-10   4.94823e-09 DIIS
   @DF-RHF iter  11:  -313.53874652965897   -1.85310e-11   1.13509e-09 DIIS
   @DF-RHF iter  12:  -313.53874652966135   -2.38742e-12   3.21668e-10 DIIS
   @DF-RHF iter  13:  -313.53874652966113    2.27374e-13   1.03526e-10 DIIS
   @DF-RHF iter  14:  -313.53874652966135   -2.27374e-13   2.26822e-11 DIIS

  ==> Post-Iterations <==

    Orbital Energies (a.u.)
    -----------------------

    Doubly Occupied:                                                      

       1A    -11.212578     2A    -11.211991     3A    -11.210767  
       4A    -11.210613     5A    -11.210162     6A    -11.209685  
       7A    -11.207001     8A    -11.205810     9A     -1.093731  
      10A     -1.059356    11A     -1.007050    12A     -0.951591  
      13A     -0.879280    14A     -0.829878    15A     -0.787217  
      16A     -0.762986    17A     -0.637694    18A     -0.632735  
      19A     -0.611994    20A     -0.592108    21A     -0.575207  
      22A     -0.560297    23A     -0.550537    24A     -0.531341  
      25A     -0.517757    26A     -0.496941    27A     -0.484209  
      28A     -0.474326    29A     -0.468260    30A     -0.460667  
      31A     -0.452632    32A     -0.434326    33A     -0.432544  

    Virtual:                                                              

      34A      0.030546    35A      0.033199    36A      0.033932  
      37A      0.036163    38A      0.045123    39A      0.047453  
      40A      0.049083    41A      0.054288    42A      0.056847  
      43A      0.064457    44A      0.066125    45A      0.067937  
      46A      0.072245    47A      0.085865    48A      0.089069  
      49A      0.093235    50A      0.095791    51A      0.098766  
      52A      0.111805    53A      0.114826    54A      0.117318  
      55A      0.122756    56A      0.125506    57A      0.129706  
      58A      0.134007    59A      0.135318    60A      0.138692  
      61A      0.142312    62A      0.152842    63A      0.155755  
      64A      0.159375    65A      0.159764    66A      0.161898  
      67A      0.166676    68A      0.168508    69A      0.170212  
      70A      0.175017    71A      0.177335    72A      0.182018  
      73A      0.187205    74A      0.198764    75A      0.200510  
      76A      0.210894    77A      0.218226    78A      0.224161  
      79A      0.225637    80A      0.232984    81A      0.239805  
      82A      0.244708    83A      0.246550    84A      0.264154  
      85A      0.267072    86A      0.272034    87A      0.275485  
      88A      0.280979    89A      0.288219    90A      0.288835  
      91A      0.299308    92A      0.303439    93A      0.309715  
      94A      0.311650    95A      0.316907    96A      0.318651  
      97A      0.325385    98A      0.328944    99A      0.331951  
     100A      0.335392   101A      0.342403   102A      0.345133  
     103A      0.347411   104A      0.348723   105A      0.354969  
     106A      0.364516   107A      0.365814   108A      0.366426  
     109A      0.371084   110A      0.373371   111A      0.375739  
     112A      0.380965   113A      0.384305   114A      0.384479  
     115A      0.391930   116A      0.396529   117A      0.397499  
     118A      0.399172   119A      0.402965   120A      0.409921  
     121A      0.410615   122A      0.417433   123A      0.424296  
     124A      0.428018   125A      0.431160   126A      0.436165  
     127A      0.437659   128A      0.442788   129A      0.446525  
     130A      0.451268   131A      0.452529   132A      0.454643  
     133A      0.456397   134A      0.465776   135A      0.468957  
     136A      0.474068   137A      0.475498   138A      0.480196  
     139A      0.482671   140A      0.486624   141A      0.487086  
     142A      0.497573   143A      0.499638   144A      0.501071  
     145A      0.503356   146A      0.508832   147A      0.512515  
     148A      0.514936   149A      0.522968   150A      0.523827  
     151A      0.524528   152A      0.531903   153A      0.536081  
     154A      0.540212   155A      0.542528   156A      0.544472  
     157A      0.549136   158A      0.559077   159A      0.564239  
     160A      0.572831   161A      0.580280   162A      0.582333  
     163A      0.583787   164A      0.589175   165A      0.591035  
     166A      0.591539   167A      0.597996   168A      0.605005  
     169A      0.608158   170A      0.613572   171A      0.618024  
     172A      0.619876   173A      0.632000   174A      0.636112  
     175A      0.637453   176A      0.641621   177A      0.645445  
     178A      0.650451   179A      0.658737   180A      0.661180  
     181A      0.666393   182A      0.675123   183A      0.679515  
     184A      0.687479   185A      0.691061   186A      0.696248  
     187A      0.698712   188A      0.702550   189A      0.707788  
     190A      0.715934   191A      0.723748   192A      0.728599  
     193A      0.730168   194A      0.749566   195A      0.752606  
     196A      0.757472   197A      0.772469   198A      0.773878  
     199A      0.786135   200A      0.803063   201A      0.810499  
     202A      0.816069   203A      0.816859   204A      0.829226  
     205A      0.833450   206A      0.839119   207A      0.844511  
     208A      0.847742   209A      0.850915   210A      0.855029  
     211A      0.863875   212A      0.868760   213A      0.873087  
     214A      0.878274   215A      0.884352   216A      0.893809  
     217A      0.895640   218A      0.896726   219A      0.905188  
     220A      0.906913   221A      0.910893   222A      0.914294  
     223A      0.918189   224A      0.924532   225A      0.927701  
     226A      0.931876   227A      0.943610   228A      0.949418  
     229A      0.951883   230A      0.954177   231A      0.959413  
     232A      0.966608   233A      0.968709   234A      0.973051  
     235A      0.975179   236A      0.981420   237A      0.987134  
     238A      0.991518   239A      1.001154   240A      1.003605  
     241A      1.014972   242A      1.015925   243A      1.021843  
     244A      1.024335   245A      1.028681   246A      1.036079  
     247A      1.049540   248A      1.052037   249A      1.055028  
     250A      1.057724   251A      1.060434   252A      1.070853  
     253A      1.073612   254A      1.077215   255A      1.083131  
     256A      1.092647   257A      1.102103   258A      1.104450  
     259A      1.109098   260A      1.112338   261A      1.120438  
     262A      1.123431   263A      1.131031   264A      1.136732  
     265A      1.140842   266A      1.148563   267A      1.153396  
     268A      1.157280   269A      1.162589   270A      1.166775  
     271A      1.171612   272A      1.174889   273A      1.185106  
     274A      1.188396   275A      1.192592   276A      1.200398  
     277A      1.204592   278A      1.209294   279A      1.213075  
     280A      1.216143   281A      1.219067   282A      1.226118  
     283A      1.240251   284A      1.242232   285A      1.245445  
     286A      1.250225   287A      1.254737   288A      1.260839  
     289A      1.269797   290A      1.271603   291A      1.283811  
     292A      1.286678   293A      1.289168   294A      1.297549  
     295A      1.299178   296A      1.303680   297A      1.307893  
     298A      1.317391   299A      1.329240   300A      1.331226  
     301A      1.339652   302A      1.342658   303A      1.347232  
     304A      1.356604   305A      1.357716   306A      1.362182  
     307A      1.371238   308A      1.374484   309A      1.386506  
     310A      1.394867   311A      1.397712   312A      1.403040  
     313A      1.407977   314A      1.425982   315A      1.432831  
     316A      1.442097   317A      1.444196   318A      1.449609  
     319A      1.470494   320A      1.473374   321A      1.477576  
     322A      1.482325   323A      1.490766   324A      1.493947  
     325A      1.502956   326A      1.513070   327A      1.519419  
     328A      1.529757   329A      1.548397   330A      1.551068  
     331A      1.555397   332A      1.566961   333A      1.568939  
     334A      1.575732   335A      1.584680   336A      1.586195  
     337A      1.600049   338A      1.611606   339A      1.612096  
     340A      1.624216   341A      1.630240   342A      1.639693  
     343A      1.647297   344A      1.650345   345A      1.656425  
     346A      1.664638   347A      1.670951   348A      1.673303  
     349A      1.676670   350A      1.683403   351A      1.686466  
     352A      1.696361   353A      1.702051   354A      1.704487  
     355A      1.709182   356A      1.716999   357A      1.723832  
     358A      1.733983   359A      1.739032   360A      1.740661  
     361A      1.749394   362A      1.752000   363A      1.756353  
     364A      1.762702   365A      1.770778   366A      1.776325  
     367A      1.778142   368A      1.781218   369A      1.782718  
     370A      1.794160   371A      1.797109   372A      1.802188  
     373A      1.809118   374A      1.816024   375A      1.816649  
     376A      1.820921   377A      1.825440   378A      1.832043  
     379A      1.839641   380A      1.845456   381A      1.858600  
     382A      1.868204   383A      1.871084   384A      1.879392  
     385A      1.887472   386A      1.891898   387A      1.897112  
     388A      1.900770   389A      1.912786   390A      1.922121  
     391A      1.926450   392A      1.932013   393A      1.935017  
     394A      1.941713   395A      1.955658   396A      1.960933  
     397A      1.965338   398A      1.975445   399A      1.992278  
     400A      2.002605   401A      2.004112   402A      2.012001  
     403A      2.021751   404A      2.027820   405A      2.033522  
     406A      2.037148   407A      2.042514   408A      2.046299  
     409A      2.057887   410A      2.061733   411A      2.072570  
     412A      2.074727   413A      2.091537   414A      2.100091  
     415A      2.107645   416A      2.108850   417A      2.118836  
     418A      2.129109   419A      2.130333   420A      2.142179  
     421A      2.143996   422A      2.152930   423A      2.162339  
     424A      2.168590   425A      2.180380   426A      2.184254  
     427A      2.192313   428A      2.199992   429A      2.215069  
     430A      2.217600   431A      2.232297   432A      2.246189  
     433A      2.248321   434A      2.255411   435A      2.266315  
     436A      2.270741   437A      2.277916   438A      2.287117  
     439A      2.288002   440A      2.299558   441A      2.307010  
     442A      2.323938   443A      2.328474   444A      2.340977  
     445A      2.348586   446A      2.358844   447A      2.368231  
     448A      2.377008   449A      2.381994   450A      2.392135  
     451A      2.397659   452A      2.401670   453A      2.410950  
     454A      2.421941   455A      2.429823   456A      2.443078  
     457A      2.445600   458A      2.464233   459A      2.473236  
     460A      2.485414   461A      2.504245   462A      2.507470  
     463A      2.526931   464A      2.532376   465A      2.542428  
     466A      2.553659   467A      2.567191   468A      2.578611  
     469A      2.591326   470A      2.600127   471A      2.609487  
     472A      2.631494   473A      2.646627   474A      2.659653  
     475A      2.660622   476A      2.695297   477A      2.695579  
     478A      2.732194   479A      2.769204   480A      2.782843  
     481A      2.806352   482A      2.820545   483A      2.852812  
     484A      2.872455   485A      2.901779   486A      2.932746  
     487A      3.007448   488A      3.030804   489A      3.065283  
     490A      3.115338   491A      3.158314   492A      3.206819  
     493A      3.282396   494A      3.318334   495A      3.344914  
     496A      3.400576   497A      3.428959   498A      3.439705  
     499A      3.465334   500A      3.477907   501A      3.484091  
     502A      3.505050   503A      3.511796   504A      3.525362  
     505A      3.536747   506A      3.544794   507A      3.547844  
     508A      3.566105   509A      3.582045   510A      3.583128  
     511A      3.604312   512A      3.609488   513A      3.613897  
     514A      3.627585   515A      3.636318   516A      3.645178  
     517A      3.651975   518A      3.677131   519A      3.683650  
     520A      3.695676   521A      3.703101   522A      3.710163  
     523A      3.720464   524A      3.724953   525A      3.732588  
     526A      3.738145   527A      3.747807   528A      3.754391  
     529A      3.768106   530A      3.778142   531A      3.782147  
     532A      3.790398   533A      3.800045   534A      3.813278  
     535A      3.819040   536A      3.826319   537A      3.832558  
     538A      3.842117   539A      3.856792   540A      3.867709  
     541A      3.875462   542A      3.877781   543A      3.885794  
     544A      3.890854   545A      3.901450   546A      3.910330  
     547A      3.915849   548A      3.918785   549A      3.929989  
     550A      3.949744   551A      3.951871   552A      3.957152  
     553A      3.964781   554A      3.977690   555A      3.982218  
     556A      3.984711   557A      4.002260   558A      4.004722  
     559A      4.009170   560A      4.016731   561A      4.019711  
     562A      4.022140   563A      4.029932   564A      4.041302  
     565A      4.051176   566A      4.054555   567A      4.064817  
     568A      4.068725   569A      4.077642   570A      4.080136  
     571A      4.088841   572A      4.098948   573A      4.106296  
     574A      4.113106   575A      4.124897   576A      4.131969  
     577A      4.153264   578A      4.158432   579A      4.171823  
     580A      4.177546   581A      4.184900   582A      4.196371  
     583A      4.204762   584A      4.225538   585A      4.233361  
     586A      4.238648   587A      4.251749   588A      4.259108  
     589A      4.268922   590A      4.269772   591A      4.282208  
     592A      4.286132   593A      4.300098   594A      4.308271  
     595A      4.317756   596A      4.327348   597A      4.333632  
     598A      4.349110   599A      4.351176   600A      4.362624  
     601A      4.373262   602A      4.382165   603A      4.403726  
     604A      4.411053   605A      4.420348   606A      4.425363  
     607A      4.440294   608A      4.448719   609A      4.459834  
     610A      4.471127   611A      4.496049   612A      4.524734  
     613A      4.530895   614A      4.546745   615A      4.556192  
     616A      4.564994   617A      4.579565   618A      4.595762  
     619A      4.606984   620A      4.624085   621A      4.633992  
     622A      4.658233   623A      4.665304   624A      4.668869  
     625A      4.678146   626A      4.693869   627A      4.705399  
     628A      4.720666   629A      4.727476   630A      4.739940  
     631A      4.753788   632A      4.756322   633A      4.762620  
     634A      4.773415   635A      4.788752   636A      4.801613  
     637A      4.811880   638A      4.816393   639A      4.826433  
     640A      4.833838   641A      4.840220   642A      4.856732  
     643A      4.869164   644A      4.874842   645A      4.884666  
     646A      4.901991   647A      4.910013   648A      4.915455  
     649A      4.922452   650A      4.936496   651A      4.947704  
     652A      4.952758   653A      4.968284   654A      4.982226  
     655A      4.993843   656A      5.011687   657A      5.017599  
     658A      5.036704   659A      5.048272   660A      5.050193  
     661A      5.078230   662A      5.083808   663A      5.096918  
     664A      5.104955   665A      5.111963   666A      5.130648  
     667A      5.152090   668A      5.160657   669A      5.165256  
     670A      5.170965   671A      5.184020   672A      5.188436  
     673A      5.206217   674A      5.211091   675A      5.227265  
     676A      5.231965   677A      5.258212   678A      5.264552  
     679A      5.265034   680A      5.275609   681A      5.292566  
     682A      5.309213   683A      5.321382   684A      5.334771  
     685A      5.337281   686A      5.362215   687A      5.370042  
     688A      5.386825   689A      5.391892   690A      5.402376  
     691A      5.419200   692A      5.422928   693A      5.434515  
     694A      5.442487   695A      5.453671   696A      5.461679  
     697A      5.473027   698A      5.480434   699A      5.486085  
     700A      5.502954   701A      5.522181   702A      5.527677  
     703A      5.540172   704A      5.555205   705A      5.565689  
     706A      5.576568   707A      5.583268   708A      5.617091  
     709A      5.624369   710A      5.634601   711A      5.650822  
     712A      5.659809   713A      5.678179   714A      5.680493  
     715A      5.691208   716A      5.704956   717A      5.714457  
     718A      5.720744   719A      5.733001   720A      5.743819  
     721A      5.757463   722A      5.766096   723A      5.781176  
     724A      5.789542   725A      5.820172   726A      5.834260  
     727A      5.845478   728A      5.860107   729A      5.874139  
     730A      5.884153   731A      5.939018   732A      5.959087  
     733A      5.968140   734A      6.014937   735A      6.016471  
     736A      6.026811   737A      6.052737   738A      6.071939  
     739A      6.101644   740A      6.138899   741A      6.145930  
     742A      6.155243   743A      6.179412   744A      6.203950  
     745A      6.208927   746A      6.237633   747A      6.257519  
     748A      6.265562   749A      6.268180   750A      6.286429  
     751A      6.309721   752A      6.320061   753A      6.341176  
     754A      6.365538   755A      6.369520   756A      6.397388  
     757A      6.417186   758A      6.452581   759A      6.565704  
     760A      6.637954   761A      6.660507   762A      6.683153  
     763A      6.720919   764A      6.780902   765A      6.797047  
     766A      6.850964   767A      6.879362   768A      6.892500  
     769A      6.918153   770A      6.930890   771A      6.995137  
     772A      7.050497   773A      7.063283   774A      7.106765  
     775A     18.024040   776A     18.070795   777A     18.275752  
     778A     18.502129   779A     18.819782   780A     19.058285  
     781A     19.272735   782A     19.775223  

    Final Occupation by Irrep:
              A 
    DOCC [    33 ]

  Energy converged.

  @DF-RHF Final Energy:  -313.53874652966135

   => Energetics <=

    Nuclear Repulsion Energy =            391.2255647531637806
    One-Electron Energy =               -1197.6020823934586588
    Two-Electron Energy =                 492.8377711106334687
    DFT Exchange-Correlation Energy =       0.0000000000000000
    Empirical Dispersion Energy =           0.0000000000000000
    PCM Polarization Energy =               0.0000000000000000
    EFP Energy =                            0.0000000000000000
    Total Energy =                       -313.5387465296614096


  Saving occupied orbitals to File 180.

*** tstop() called on wr29 at Tue Sep 20 22:41:38 2016
Module time:
	user time   =    1009.05 seconds =      16.82 minutes
	system time =      11.14 seconds =       0.19 minutes
	total time  =         95 seconds =       1.58 minutes
Total time:
	user time   =    1009.05 seconds =      16.82 minutes
	system time =      11.14 seconds =       0.19 minutes
	total time  =         95 seconds =       1.58 minutes


Properties will be evaluated at   0.000000,   0.000000,   0.000000 Bohr

Properties computed using the SCF density matrix

  Nuclear Dipole Moment: (a.u.)
     X:    -0.6459      Y:    -0.9095      Z:     0.2715

  Electronic Dipole Moment: (a.u.)
     X:     0.6603      Y:     0.9436      Z:    -0.2758

  Dipole Moment: (a.u.)
     X:     0.0144      Y:     0.0341      Z:    -0.0043     Total:     0.0372

  Dipole Moment: (Debye)
     X:     0.0366      Y:     0.0866      Z:    -0.0108     Total:     0.0947


  //>>>>>>>>>>>>>>>>>>>>>>>>>>>>>>>>>>>//
  //               DFMP2               //
  //<<<<<<<<<<<<<<<<<<<<<<<<<<<<<<<<<<<//


*** tstart() called on wr29
*** at Tue Sep 20 22:41:38 2016


*** tstop() called on wr29 at Tue Sep 20 22:41:38 2016
Module time:
	user time   =       2.82 seconds =       0.05 minutes
	system time =       0.16 seconds =       0.00 minutes
	total time  =          0 seconds =       0.00 minutes
Total time:
	user time   =    1012.10 seconds =      16.87 minutes
	system time =      11.30 seconds =       0.19 minutes
	total time  =         95 seconds =       1.58 minutes
	 --------------------------------------------------------
	                          DF-MP2                         
	      2nd-Order Density-Fitted Moller-Plesset Theory     
	              RMP2 Wavefunction,  12 Threads             
	                                                         
	        Rob Parrish, Justin Turney, Andy Simmonett,      
	           Ed Hohenstein, and C. David Sherrill          
	 --------------------------------------------------------

   => Auxiliary Basis Set <=

  Basis Set: 
    Number of shells: 476
    Number of basis function: 1676
    Number of Cartesian functions: 2078
    Spherical Harmonics?: true
    Max angular momentum: 4

	 --------------------------------------------------------
	                 NBF =   782, NAUX =  1676
	 --------------------------------------------------------
	   CLASS    FOCC     OCC    AOCC    AVIR     VIR    FVIR
	   PAIRS       8      33      25     749     749       0
	 --------------------------------------------------------

DGAS Warning! /src/lib/libfock/apps.cc:80 is not currently checking restricted

         ------------------------------------------------------------
                                     CPHF                           
                                  Rob Parrish                       
         ------------------------------------------------------------

  ==> Geometry <==

    Molecular point group: c1
    Full point group: C1

    Geometry (in Angstrom), charge = 0, multiplicity = 1:

       Center              X                  Y                   Z               Mass       
    ------------   -----------------  -----------------  -----------------  -----------------
           C          3.202960259680    -1.075285301432     0.389272274864    12.000000000000
           H          2.308030917119    -1.656196564484     0.606214179506     1.007825032070
           H          3.650912148308    -0.792593956082     1.342855201598     1.007825032070
           H          3.908025907775    -1.723871758783    -0.131173879000     1.007825032070
           C         -4.021368885665    -0.084964760757    -0.012036468743    12.000000000000
           H         -4.724366720933     0.500032872670     0.580445215682     1.007825032070
           H         -4.275582866184    -1.138789472950     0.108219192306     1.007825032070
           H         -4.170217640528     0.174176127445    -1.061081849769     1.007825032070
           C          2.883114918904     0.170783905196    -0.432401621821    12.000000000000
           H          2.505679512074    -0.118594632503    -1.417557267019     1.007825032070
           H          3.814541651395     0.710919118329    -0.612217636225     1.007825032070
           C         -2.579268165783     0.174562512609     0.407202281603    12.000000000000
           H         -2.361113524300     1.239550650519     0.310023898415     1.007825032070
           H         -2.450604961420    -0.075278238829     1.464292672299     1.007825032070
           C          1.870368815718     1.108904281156     0.240417187895    12.000000000000
           H          2.147150133341     2.146694659943     0.042524586683     1.007825032070
           H          1.926700965041     0.979209439026     1.325940557360     1.007825032070
           C          0.424715683547     0.913212011517    -0.217384934811    12.000000000000
           H          0.360027323201     1.138179746855    -1.287529906720     1.007825032070
           H         -0.202663515233     1.648200858059     0.291944820663     1.007825032070
           C         -0.133494723777    -0.485910409118     0.018932260827    12.000000000000
           H          0.474707938180    -1.211678634708    -0.525701990374     1.007825032070
           H         -0.046448000725    -0.738225192742     1.081357321717     1.007825032070
           C         -1.589159588684    -0.639823126038    -0.418325053453    12.000000000000
           H         -1.681255924820    -0.357194007642    -1.472407420882     1.007825032070
           H         -1.872551442579    -1.694698855496    -0.356525118539     1.007825032070

  Nuclear repulsion =  391.225564753163781
  Reference energy  = -313.538746529661353

  ==> Basis Set <==

  Basis Set: AUG-CC-PVTZ
    Number of shells: 274
    Number of basis function: 782
    Number of Cartesian functions: 890
    Spherical Harmonics?: true
    Max angular momentum: 3

  ==> CGRSolver (by Rob Parrish) <==

   Number of roots    =         1
   Preconditioning    =    JACOBI
   Convergence cutoff =     1E-06
   Maximum iterations =       100

  ==> CPHFRHamiltonian (by Rob Parrish) <== 

  ==> DFJK: Density-Fitted J/K Matrices <==

    J tasked:                  Yes
    K tasked:                  Yes
    wK tasked:                  No
    OpenMP threads:             12
    Integrals threads:          12
    Memory (MB):             42915
    Algorithm:                Core
    Integral Cache:           NONE
    Schwarz Cutoff:          1E-12
    Fitting Condition:       1E-12

   => Auxiliary Basis Set <=

  Basis Set: 
    Number of shells: 492
    Number of basis function: 1660
    Number of Cartesian functions: 2038
    Spherical Harmonics?: true
    Max angular momentum: 4

  ==> CPHF Iterations <==

  => Iterations <=

             Iter  Converged  Remaining    Residual
  CGR           1          0          1   9.026E-02
  CGR           2          0          1   1.282E-02
  CGR           3          0          1   3.442E-03
  CGR           4          0          1   8.342E-04
  CGR           5          0          1   1.982E-04
  CGR           6          0          1   4.812E-05
  CGR           7          0          1   1.363E-05
  CGR           8          0          1   3.254E-06
  CGR           9          1          0   7.688E-07

    CGRSolver converged.

  ==> DFCorrGrad: Density-Fitted Correlated Gradients <==

    OpenMP threads:             12
    Integrals threads:          12
    Memory (MB):             42915
    Schwarz Cutoff:          0E+00
    Fitting Condition:       1E-12

   => Auxiliary Basis Set <=

  Basis Set: 
    Number of shells: 492
    Number of basis function: 1660
    Number of Cartesian functions: 2038
    Spherical Harmonics?: true
    Max angular momentum: 4

	-----------------------------------------------------------
	 ==================> DF-MP2 Energies <==================== 
	-----------------------------------------------------------
	 Reference Energy          =    -313.5387465296613527 [Eh]
	 Singles Energy            =      -0.0000000000000000 [Eh]
	 Same-Spin Energy          =      -0.3160930539967263 [Eh]
	 Opposite-Spin Energy      =      -1.1253707246617690 [Eh]
	 Correlation Energy        =      -1.4414637786584954 [Eh]
	 Total Energy              =    -314.9802103083198404 [Eh]
	-----------------------------------------------------------
	 ================> DF-SCS-MP2 Energies <================== 
	-----------------------------------------------------------
	 SCS Same-Spin Scale       =       0.3333333333333333 [-]
	 SCS Opposite-Spin Scale   =       1.2000000000000000 [-]
	 SCS Same-Spin Energy      =      -0.1053643513322421 [Eh]
	 SCS Opposite-Spin Energy  =      -1.3504448695941227 [Eh]
	 SCS Correlation Energy    =      -1.4558092209263649 [Eh]
	 SCS Total Energy          =    -314.9945557505877218 [Eh]
	-----------------------------------------------------------


  -Total Gradient:
     Atom            X                  Y                   Z
    ------   -----------------  -----------------  -----------------
       1       -0.000000134958     0.000000093235     0.000000002757
       2       -0.000000010860    -0.000000096420     0.000000056551
       3       -0.000000050570    -0.000000031723    -0.000000013378
       4       -0.000000073795     0.000000030136     0.000000021104
       5        0.000000186064     0.000000022046    -0.000000035522
       6       -0.000000116903     0.000000044086    -0.000000002581
       7        0.000000006799     0.000000035165    -0.000000020072
       8       -0.000000015604     0.000000009026     0.000000011542
       9        0.000000479245    -0.000000253210     0.000000281418
      10       -0.000000117429    -0.000000032259    -0.000000169899
      11       -0.000000028854     0.000000065416     0.000000042113
      12       -0.000000009244     0.000000007441    -0.000000156861
      13        0.000000009557     0.000000002580     0.000000027482
      14       -0.000000002046     0.000000020658    -0.000000043596
      15       -0.000000049788    -0.000000320740    -0.000000617139
      16        0.000000157786     0.000000382342    -0.000000102697
      17        0.000000161454    -0.000000049582     0.000000544448
      18        0.000000496693    -0.000000228646     0.000000553648
      19       -0.000000040715     0.000000229756    -0.000000572213
      20       -0.000000232805     0.000000302229     0.000000172183
      21       -0.000000265317     0.000000699343    -0.000000271039
      22        0.000000105813    -0.000000371104    -0.000000130953
      23       -0.000000120388    -0.000000292541     0.000000277386
      24       -0.000000312933    -0.000000344709     0.000000106885
      25       -0.000000012193    -0.000000006814     0.000000113480
      26       -0.000000009006     0.000000084287    -0.000000075049


			-----------------------------------------
			 OPTKING 2.0: for geometry optimizations 
			  - R.A. King,  Bethel University        
			-----------------------------------------

	Internal coordinates to be generated automatically.
	Detected frag 1 with atoms:  1 2 3 4 5 6 7 8 9 10 11 12 13 14 15 16 17 18 19 20
	 21 22 23 24 25 26
	---Fragment 1 Bond Connectivity---
	 1 : 2 3 4 9
	 2 : 1
	 3 : 1
	 4 : 1
	 5 : 6 7 8 12
	 6 : 5
	 7 : 5
	 8 : 5
	 9 : 1 10 11 15
	 10 : 9
	 11 : 9
	 12 : 5 13 14 24
	 13 : 12
	 14 : 12
	 15 : 9 16 17 18
	 16 : 15
	 17 : 15
	 18 : 15 19 20 21
	 19 : 18
	 20 : 18
	 21 : 18 22 23 24
	 22 : 21
	 23 : 21
	 24 : 12 21 25 26
	 25 : 24
	 26 : 24

	---Fragment 1 Geometry and Gradient---
	 C           6.0527177053       -2.0319947344        0.7356179906
	 H           4.3615463396       -3.1297579291        1.1455787771
	 H           6.8992240955       -1.4977855116        2.5376285671
	 H           7.3850986859       -3.2576455123       -0.2478827071
	 C          -7.5992858732       -0.1605601288       -0.0227456295
	 H          -8.9277592539        0.9449251868        1.0968824928
	 H          -8.0796806755       -2.1520002269        0.2045046358
	 H          -7.8805692551        0.3291451798       -2.0051541006
	 C           5.4482976064        0.3227348087       -0.8171206447
	 H           4.7350480546       -0.2241113763       -2.6787950123
	 H           7.2084390436        1.3434424363       -1.1569236662
	 C          -4.8741104566        0.3298753419        0.7695007929
	 H          -4.4618579296        2.3424112573        0.5858602627
	 H          -4.6309722370       -0.1422552552        2.7671121290
	 C           3.5344848292        2.0955253990        0.4543226428
	 H           4.0575257182        4.0566649982        0.0803598227
	 H           3.6409371639        1.8504376665        2.5056645219
	 C           0.8025963262        1.7257206030       -0.4107979922
	 H           0.6803530412        2.1508480116       -2.4330789116
	 H          -0.3829785409        3.1146482337        0.5516957570
	 C          -0.2522684681       -0.9182375984        0.0357767880
	 H           0.8970679963       -2.2897407807       -0.9934327893
	 H          -0.0877740008       -1.3950434387        2.0434691898
	 C          -3.0030764041       -1.2090904817       -0.7905197856
	 H          -3.1771132572       -0.6749988508       -2.7824467815
	 H          -3.5386093962       -3.2025167146       -0.6737348335
	            -0.0000001350        0.0000000932        0.0000000028
	            -0.0000000109       -0.0000000964        0.0000000566
	            -0.0000000506       -0.0000000317       -0.0000000134
	            -0.0000000738        0.0000000301        0.0000000211
	             0.0000001861        0.0000000220       -0.0000000355
	            -0.0000001169        0.0000000441       -0.0000000026
	             0.0000000068        0.0000000352       -0.0000000201
	            -0.0000000156        0.0000000090        0.0000000115
	             0.0000004792       -0.0000002532        0.0000002814
	            -0.0000001174       -0.0000000323       -0.0000001699
	            -0.0000000289        0.0000000654        0.0000000421
	            -0.0000000092        0.0000000074       -0.0000001569
	             0.0000000096        0.0000000026        0.0000000275
	            -0.0000000020        0.0000000207       -0.0000000436
	            -0.0000000498       -0.0000003207       -0.0000006171
	             0.0000001578        0.0000003823       -0.0000001027
	             0.0000001615       -0.0000000496        0.0000005444
	             0.0000004967       -0.0000002286        0.0000005536
	            -0.0000000407        0.0000002298       -0.0000005722
	            -0.0000002328        0.0000003022        0.0000001722
	            -0.0000002653        0.0000006993       -0.0000002710
	             0.0000001058       -0.0000003711       -0.0000001310
	            -0.0000001204       -0.0000002925        0.0000002774
	            -0.0000003129       -0.0000003447        0.0000001069
	            -0.0000000122       -0.0000000068        0.0000001135
	            -0.0000000090        0.0000000843       -0.0000000750

	Previous optimization step data not found.  Starting new optimization.

	---Fragment 1 Intrafragment Coordinates---
	 - Coordinate -           - BOHR/RAD -       - ANG/DEG -
	 R(1,2)           =         2.057477	       1.088770
	 R(1,3)           =         2.061357	       1.090823
	 R(1,4)           =         2.060275	       1.090251
	 R(1,9)           =         2.884627	       1.526479
	 R(5,6)           =         2.059249	       1.089708
	 R(5,7)           =         2.061130	       1.090703
	 R(5,8)           =         2.061280	       1.090782
	 R(5,12)          =         2.880063	       1.524064
	 R(9,10)          =         2.067268	       1.093951
	 R(9,11)          =         2.062864	       1.091621
	 R(9,15)          =         2.902074	       1.535711
	 R(12,13)         =         2.062517	       1.091437
	 R(12,14)         =         2.066997	       1.093807
	 R(12,24)         =         2.881466	       1.524806
	 R(15,16)         =         2.063853	       1.092144
	 R(15,17)         =         2.068672	       1.094694
	 R(15,18)         =         2.889360	       1.528984
	 R(18,19)         =         2.070096	       1.095448
	 R(18,20)         =         2.064244	       1.092351
	 R(18,21)         =         2.881438	       1.524791
	 R(21,22)         =         2.064284	       1.092372
	 R(21,23)         =         2.070080	       1.095439
	 R(21,24)         =         2.886920	       1.527692
	 R(24,25)         =         2.069617	       1.095194
	 R(24,26)         =         2.067410	       1.094026
	 B(1,9,10)        =         1.918890	     109.944322
	 B(1,9,11)        =         1.889981	     108.287927
	 B(1,9,15)        =         1.983410	     113.640995
	 B(2,1,3)         =         1.877197	     107.555488
	 B(2,1,4)         =         1.885227	     108.015543
	 B(2,1,9)         =         1.950413	     111.750426
	 B(3,1,4)         =         1.881684	     107.812568
	 B(3,1,9)         =         1.923093	     110.185116
	 B(4,1,9)         =         1.943532	     111.356169
	 B(5,12,13)       =         1.907944	     109.317132
	 B(5,12,14)       =         1.915856	     109.770452
	 B(5,12,24)       =         1.954694	     111.995718
	 B(6,5,7)         =         1.884286	     107.961609
	 B(6,5,8)         =         1.883182	     107.898406
	 B(6,5,12)        =         1.949215	     111.681812
	 B(7,5,8)         =         1.879445	     107.684291
	 B(7,5,12)        =         1.933431	     110.777440
	 B(8,5,12)        =         1.931807	     110.684415
	 B(9,15,16)       =         1.911294	     109.509075
	 B(9,15,17)       =         1.905126	     109.155690
	 B(9,15,18)       =         1.997816	     114.466399
	 B(10,9,11)       =         1.851399	     106.077364
	 B(10,9,15)       =         1.905624	     109.184225
	 B(11,9,15)       =         1.909852	     109.426485
	 B(12,24,21)      =         1.993197	     114.201758
	 B(12,24,25)      =         1.905662	     109.186393
	 B(12,24,26)      =         1.892512	     108.432967
	 B(13,12,14)      =         1.860236	     106.583687
	 B(13,12,24)      =         1.921071	     110.069283
	 B(14,12,24)      =         1.901650	     108.956504
	 B(15,18,19)      =         1.898690	     108.786897
	 B(15,18,20)      =         1.893689	     108.500394
	 B(15,18,21)      =         2.001129	     114.656245
	 B(16,15,17)      =         1.853775	     106.213468
	 B(16,15,18)      =         1.882818	     107.877503
	 B(17,15,18)      =         1.907522	     109.292982
	 B(18,21,22)      =         1.905552	     109.180111
	 B(18,21,23)      =         1.909824	     109.424883
	 B(18,21,24)      =         1.978950	     113.385467
	 B(19,18,20)      =         1.858137	     106.463416
	 B(19,18,21)      =         1.894654	     108.555649
	 B(20,18,21)      =         1.912267	     109.564803
	 B(21,24,25)      =         1.906680	     109.244722
	 B(21,24,26)      =         1.904768	     109.135163
	 B(22,21,23)      =         1.861137	     106.635306
	 B(22,21,24)      =         1.897456	     108.716219
	 B(23,21,24)      =         1.907212	     109.275180
	 B(25,24,26)      =         1.856063	     106.344582
	 D(1,9,15,16)     =         2.489277	     142.625049
	 D(1,9,15,17)     =         0.466599	      26.734166
	 D(1,9,15,18)     =        -1.677406	     -96.108273
	 D(2,1,9,10)      =        -1.131040	     -64.803826
	 D(2,1,9,11)      =         3.136636	     179.716011
	 D(2,1,9,15)      =         1.010717	      57.909833
	 D(3,1,9,10)      =         3.066189	     175.679711
	 D(3,1,9,11)      =         1.050680	      60.199547
	 D(3,1,9,15)      =        -1.075239	     -61.606630
	 D(4,1,9,10)      =         0.979053	      56.095616
	 D(4,1,9,11)      =        -1.036456	     -59.384548
	 D(4,1,9,15)      =         3.120811	     178.809274
	 D(5,12,24,21)    =        -3.077054	    -176.302230
	 D(5,12,24,25)    =         1.066068	      61.081184
	 D(5,12,24,26)    =        -0.949282	     -54.389858
	 D(6,5,12,13)     =        -1.006928	     -57.692717
	 D(6,5,12,14)     =         1.027703	      58.883062
	 D(6,5,12,24)     =        -3.140772	    -179.953005
	 D(7,5,12,13)     =        -3.108022	    -178.076515
	 D(7,5,12,14)     =        -1.073390	     -61.500736
	 D(7,5,12,24)     =         1.041319	      59.663197
	 D(8,5,12,13)     =         1.091660	      62.547506
	 D(8,5,12,14)     =         3.126291	     179.123285
	 D(8,5,12,24)     =        -1.042185	     -59.712782
	 D(9,15,18,19)    =        -1.092025	     -62.568424
	 D(9,15,18,20)    =        -3.106747	    -178.003463
	 D(9,15,18,21)    =         1.032664	      59.167287
	 D(10,9,15,16)    =        -1.644870	     -94.244095
	 D(10,9,15,17)    =         2.615638	     149.865022
	 D(10,9,15,18)    =         0.471633	      27.022583
	 D(11,9,15,16)    =         0.374438	      21.453737
	 D(11,9,15,17)    =        -1.648239	     -94.437146
	 D(11,9,15,18)    =         2.490941	     142.720415
	 D(12,24,21,18)   =        -1.164105	     -66.698312
	 D(12,24,21,22)   =         2.996232	     171.671455
	 D(12,24,21,23)   =         0.971292	      55.650955
	 D(13,12,24,21)   =         1.079793	      61.867554
	 D(13,12,24,25)   =        -1.060271	     -60.749032
	 D(13,12,24,26)   =        -3.075621	    -176.220074
	 D(14,12,24,21)   =        -0.954165	     -54.669629
	 D(14,12,24,25)   =        -3.094228	    -177.286216
	 D(14,12,24,26)   =         1.173607	      67.242743
	 D(15,18,21,22)   =        -1.047226	     -60.001647
	 D(15,18,21,23)   =         0.983700	      56.361878
	 D(15,18,21,24)   =         3.117647	     178.628009
	 D(16,15,18,19)   =         1.040071	      59.591665
	 D(16,15,18,20)   =        -0.974651	     -55.843375
	 D(16,15,18,21)   =        -3.118426	    -178.672624
	 D(17,15,18,19)   =         3.048452	     174.663411
	 D(17,15,18,20)   =         1.033730	      59.228371
	 D(17,15,18,21)   =        -1.110045	     -63.600878
	 D(18,21,24,25)   =         0.975403	      55.886486
	 D(18,21,24,26)   =         2.998052	     171.775728
	 D(19,18,21,22)   =         1.079662	      61.860104
	 D(19,18,21,23)   =         3.110589	     178.223629
	 D(19,18,21,24)   =        -1.038650	     -59.510240
	 D(20,18,21,22)   =         3.102228	     177.744557
	 D(20,18,21,23)   =        -1.150031	     -65.891918
	 D(20,18,21,24)   =         0.983916	      56.374213
	 D(22,21,24,25)   =        -1.147445	     -65.743747
	 D(22,21,24,26)   =         0.875204	      50.145495
	 D(23,21,24,25)   =         3.110801	     178.235753
	 D(23,21,24,26)   =        -1.149736	     -65.875005
	 R(1,21)          =         6.440736	       3.408291

	Current energy   :      -314.9802103083

	Generating empirical Hessian (Schlegel '84) for each fragment.
	Taking RFO optimization step.
	Going to follow RFO solution 1.
	Using RFO vector 1.
	Norm of target step-size    0.00014
	Projected energy change by RFO approximation:        -0.0000000003

	Back-transformation to cartesian coordinates...
	Successfully converged to displaced geometry.

	--- Internal Coordinate Step in ANG or DEG, aJ/ANG or AJ/DEG ---
	 ---------------------------------------------------------------------------
	   Coordinate                Previous        Force       Change         New 
	   ----------                --------       ------       ------       ------
	    1 R(1,2)          =      1.088770    -0.000000    -0.000000     1.088770
	    2 R(1,3)          =      1.090823     0.000000     0.000000     1.090823
	    3 R(1,4)          =      1.090251     0.000001     0.000000     1.090251
	    4 R(1,9)          =      1.526479     0.000001     0.000000     1.526479
	    5 R(5,6)          =      1.089708    -0.000001    -0.000000     1.089708
	    6 R(5,7)          =      1.090703     0.000000     0.000000     1.090703
	    7 R(5,8)          =      1.090782     0.000000     0.000000     1.090782
	    8 R(5,12)         =      1.524064     0.000000     0.000000     1.524064
	    9 R(9,10)         =      1.093951    -0.000002    -0.000000     1.093951
	   10 R(9,11)         =      1.091621    -0.000000    -0.000000     1.091621
	   11 R(9,15)         =      1.535711     0.000000    -0.000000     1.535711
	   12 R(12,13)        =      1.091437     0.000000     0.000000     1.091437
	   13 R(12,14)        =      1.093807     0.000000     0.000000     1.093807
	   14 R(12,24)        =      1.524806     0.000001     0.000000     1.524807
	   15 R(15,16)        =      1.092144    -0.000004    -0.000001     1.092143
	   16 R(15,17)        =      1.094694    -0.000004    -0.000001     1.094693
	   17 R(15,18)        =      1.528984    -0.000002    -0.000001     1.528983
	   18 R(18,19)        =      1.095448    -0.000005    -0.000001     1.095447
	   19 R(18,20)        =      1.092351    -0.000003    -0.000001     1.092350
	   20 R(18,21)        =      1.524791    -0.000004    -0.000001     1.524790
	   21 R(21,22)        =      1.092372    -0.000003    -0.000001     1.092371
	   22 R(21,23)        =      1.095439    -0.000003    -0.000001     1.095439
	   23 R(21,24)        =      1.527692    -0.000002    -0.000000     1.527692
	   24 R(24,25)        =      1.095194     0.000001     0.000000     1.095195
	   25 R(24,26)        =      1.094026     0.000001     0.000000     1.094026
	   26 B(1,9,10)       =    109.944322    -0.000000    -0.000038   109.944284
	   27 B(1,9,11)       =    108.287927    -0.000000    -0.000039   108.287888
	   28 B(1,9,15)       =    113.640995     0.000000     0.000034   113.641029
	   29 B(2,1,3)        =    107.555488     0.000000     0.000010   107.555498
	   30 B(2,1,4)        =    108.015543     0.000000     0.000007   108.015550
	   31 B(2,1,9)        =    111.750426    -0.000000    -0.000048   111.750378
	   32 B(3,1,4)        =    107.812568    -0.000000    -0.000007   107.812561
	   33 B(3,1,9)        =    110.185116     0.000000     0.000011   110.185127
	   34 B(4,1,9)        =    111.356169     0.000000     0.000027   111.356196
	   35 B(5,12,13)      =    109.317132    -0.000000    -0.000051   109.317080
	   36 B(5,12,14)      =    109.770452    -0.000000     0.000024   109.770477
	   37 B(5,12,24)      =    111.995718     0.000000     0.000046   111.995764
	   38 B(6,5,7)        =    107.961609     0.000000     0.000015   107.961625
	   39 B(6,5,8)        =    107.898406     0.000000     0.000003   107.898409
	   40 B(6,5,12)       =    111.681812    -0.000000    -0.000050   111.681763
	   41 B(7,5,8)        =    107.684291     0.000000     0.000017   107.684308
	   42 B(7,5,12)       =    110.777440     0.000000     0.000029   110.777469
	   43 B(8,5,12)       =    110.684415    -0.000000    -0.000013   110.684402
	   44 B(9,15,16)      =    109.509075     0.000000     0.000015   109.509090
	   45 B(9,15,17)      =    109.155690     0.000000     0.000088   109.155779
	   46 B(9,15,18)      =    114.466399    -0.000000    -0.000106   114.466293
	   47 B(10,9,11)      =    106.077364     0.000000    -0.000023   106.077341
	   48 B(10,9,15)      =    109.184225    -0.000000     0.000015   109.184240
	   49 B(11,9,15)      =    109.426485     0.000000     0.000048   109.426533
	   50 B(12,24,21)     =    114.201758    -0.000000    -0.000069   114.201689
	   51 B(12,24,25)     =    109.186393     0.000000     0.000004   109.186397
	   52 B(12,24,26)     =    108.432967     0.000000     0.000031   108.432998
	   53 B(13,12,14)     =    106.583687     0.000000     0.000000   106.583687
	   54 B(13,12,24)     =    110.069283    -0.000000    -0.000044   110.069239
	   55 B(14,12,24)     =    108.956504    -0.000000     0.000023   108.956527
	   56 B(15,18,19)     =    108.786897     0.000000     0.000057   108.786955
	   57 B(15,18,20)     =    108.500394    -0.000000    -0.000014   108.500380
	   58 B(15,18,21)     =    114.656245    -0.000000    -0.000085   114.656160
	   59 B(16,15,17)     =    106.213468    -0.000000     0.000032   106.213500
	   60 B(16,15,18)     =    107.877503     0.000000     0.000014   107.877517
	   61 B(17,15,18)     =    109.292982    -0.000000    -0.000035   109.292947
	   62 B(18,21,22)     =    109.180111     0.000000     0.000027   109.180138
	   63 B(18,21,23)     =    109.424883     0.000000    -0.000103   109.424779
	   64 B(18,21,24)     =    113.385467    -0.000000    -0.000240   113.385227
	   65 B(19,18,20)     =    106.463416     0.000000     0.000055   106.463471
	   66 B(19,18,21)     =    108.555649     0.000000     0.000034   108.555683
	   67 B(20,18,21)     =    109.564803    -0.000000    -0.000036   109.564767
	   68 B(21,24,25)     =    109.244722     0.000000    -0.000017   109.244705
	   69 B(21,24,26)     =    109.135163     0.000000     0.000026   109.135190
	   70 B(22,21,23)     =    106.635306    -0.000000     0.000096   106.635402
	   71 B(22,21,24)     =    108.716219     0.000000     0.000140   108.716359
	   72 B(23,21,24)     =    109.275180     0.000000     0.000102   109.275283
	   73 B(25,24,26)     =    106.344582    -0.000000     0.000032   106.344614
	   74 D(1,9,15,16)    =    142.625049    -0.000000     0.000457   142.625507
	   75 D(1,9,15,17)    =     26.734166    -0.000000     0.000361    26.734527
	   76 D(1,9,15,18)    =    -96.108273    -0.000000     0.000414   -96.107859
	   77 D(2,1,9,10)     =    -64.803826    -0.000000    -0.000122   -64.803947
	   78 D(2,1,9,11)     =    179.716011     0.000000    -0.000052   179.715958
	   79 D(2,1,9,15)     =     57.909833    -0.000000    -0.000107    57.909726
	   80 D(3,1,9,10)     =    175.679711    -0.000000    -0.000110   175.679601
	   81 D(3,1,9,11)     =     60.199547     0.000000    -0.000041    60.199506
	   82 D(3,1,9,15)     =    -61.606630     0.000000    -0.000096   -61.606726
	   83 D(4,1,9,10)     =     56.095616    -0.000000    -0.000127    56.095489
	   84 D(4,1,9,11)     =    -59.384548     0.000000    -0.000058   -59.384606
	   85 D(4,1,9,15)     =    178.809274    -0.000000    -0.000113   178.809162
	   86 D(5,12,24,21)   =   -176.302230    -0.000000    -0.000706  -176.302935
	   87 D(5,12,24,25)   =     61.081184    -0.000000    -0.000639    61.080545
	   88 D(5,12,24,26)   =    -54.389858    -0.000000    -0.000696   -54.390554
	   89 D(6,5,12,13)    =    -57.692717     0.000000     0.000062   -57.692655
	   90 D(6,5,12,14)    =     58.883062    -0.000000     0.000047    58.883109
	   91 D(6,5,12,24)    =   -179.953005     0.000000     0.000123  -179.952882
	   92 D(7,5,12,13)    =   -178.076515     0.000000     0.000056  -178.076459
	   93 D(7,5,12,14)    =    -61.500736    -0.000000     0.000041   -61.500695
	   94 D(7,5,12,24)    =     59.663197     0.000000     0.000117    59.663314
	   95 D(8,5,12,13)    =     62.547506    -0.000000     0.000024    62.547531
	   96 D(8,5,12,14)    =    179.123285    -0.000000     0.000009   179.123294
	   97 D(8,5,12,24)    =    -59.712782     0.000000     0.000085   -59.712697
	   98 D(9,15,18,19)   =    -62.568424     0.000000     0.002358   -62.566065
	   99 D(9,15,18,20)   =   -178.003463     0.000000     0.002270  -178.001194
	  100 D(9,15,18,21)   =     59.167287     0.000000     0.002387    59.169674
	  101 D(10,9,15,16)   =    -94.244095     0.000000     0.000443   -94.243652
	  102 D(10,9,15,17)   =    149.865022    -0.000000     0.000347   149.865368
	  103 D(10,9,15,18)   =     27.022583    -0.000000     0.000399    27.022982
	  104 D(11,9,15,16)   =     21.453737     0.000000     0.000450    21.454187
	  105 D(11,9,15,17)   =    -94.437146    -0.000000     0.000354   -94.436793
	  106 D(11,9,15,18)   =    142.720415    -0.000000     0.000406   142.720821
	  107 D(12,24,21,18)  =    -66.698312     0.000000     0.001050   -66.697262
	  108 D(12,24,21,22)  =    171.671455     0.000000     0.001075   171.672529
	  109 D(12,24,21,23)  =     55.650955    -0.000000     0.000826    55.651781
	  110 D(13,12,24,21)  =     61.867554    -0.000000    -0.000640    61.866913
	  111 D(13,12,24,25)  =    -60.749032     0.000000    -0.000574   -60.749606
	  112 D(13,12,24,26)  =   -176.220074    -0.000000    -0.000630  -176.220705
	  113 D(14,12,24,21)  =    -54.669629    -0.000000    -0.000629   -54.670259
	  114 D(14,12,24,25)  =   -177.286216     0.000000    -0.000562  -177.286778
	  115 D(14,12,24,26)  =     67.242743    -0.000000    -0.000619    67.242123
	  116 D(15,18,21,22)  =    -60.001647    -0.000000    -0.000512   -60.002159
	  117 D(15,18,21,23)  =     56.361878    -0.000000    -0.000440    56.361439
	  118 D(15,18,21,24)  =    178.628009    -0.000000    -0.000549   178.627460
	  119 D(16,15,18,19)  =     59.591665     0.000000     0.002317    59.593982
	  120 D(16,15,18,20)  =    -55.843375    -0.000000     0.002229   -55.841146
	  121 D(16,15,18,21)  =   -178.672624     0.000000     0.002346  -178.670279
	  122 D(17,15,18,19)  =    174.663411     0.000000     0.002344   174.665755
	  123 D(17,15,18,20)  =     59.228371    -0.000000     0.002256    59.230627
	  124 D(17,15,18,21)  =    -63.600878     0.000000     0.002373   -63.598505
	  125 D(18,21,24,25)  =     55.886486     0.000000     0.000994    55.887480
	  126 D(18,21,24,26)  =    171.775728     0.000000     0.001037   171.776765
	  127 D(19,18,21,22)  =     61.860104    -0.000000    -0.000471    61.859633
	  128 D(19,18,21,23)  =    178.223629     0.000000    -0.000398   178.223231
	  129 D(19,18,21,24)  =    -59.510240    -0.000000    -0.000508   -59.510748
	  130 D(20,18,21,22)  =    177.744557     0.000000    -0.000406   177.744151
	  131 D(20,18,21,23)  =    -65.891918     0.000000    -0.000333   -65.892251
	  132 D(20,18,21,24)  =     56.374213    -0.000000    -0.000443    56.373770
	  133 D(22,21,24,25)  =    -65.743747     0.000000     0.001019   -65.742728
	  134 D(22,21,24,26)  =     50.145495     0.000000     0.001062    50.146557
	  135 D(23,21,24,25)  =    178.235753    -0.000000     0.000771   178.236523
	  136 D(23,21,24,26)  =    -65.875005    -0.000000     0.000814   -65.874191
	  137 R(1,21)         =      3.408291    -0.000000     0.000003     3.408294
	 ---------------------------------------------------------------------------

  ==> Convergence Check <==

  Measures of convergence in internal coordinates in au.
  Criteria marked as inactive (o), active & met (*), and active & unmet ( ).
  --------------------------------------------------------------------------------------------- ~
   Step     Total Energy     Delta E     MAX Force     RMS Force      MAX Disp      RMS Disp    ~
  --------------------------------------------------------------------------------------------- ~
    Convergence Criteria             o    2.00e-06 *    1.00e-06 *    6.00e-06 *    4.00e-06 *  ~
  --------------------------------------------------------------------------------------------- ~
      1    -314.98021031   -3.15e+02 o    7.89e-07 *    1.55e-07 *    4.17e-05      1.20e-05    ~
  ---------------------------------------------------------------------------------------------

	Writing optimization data to binary file.
	Structure for next step:
	Cartesian Geometry (in Angstrom)
	    C     3.2029713708  -1.0752818437   0.3892404428
	    H     2.3080462260  -1.6562076475   0.6061603920
	    H     3.6509138633  -0.7926115602   1.3428340972
	    H     3.9080472321  -1.7238474217  -0.1312181483
	    C    -4.0213668935  -0.0849441144  -0.0120501146
	    H    -4.7243612290   0.5000786284   0.5804106841
	    H    -4.2755978199  -1.1387620909   0.1082287583
	    H    -4.1702015704   0.1741737741  -1.0611032263
	    C     2.8831183728   0.1708061963  -0.4324022551
	    H     2.5056947192  -0.1185504789  -1.4175684682
	    H     3.8145408629   0.7109559464  -0.6121964600
	    C    -2.5792664086   0.1745725928   0.4071963675
	    H    -2.3610966111   1.2395555248   0.3099945948
	    H    -2.4506165078  -0.0752446383   1.4642939854
	    C     1.8703561834   1.1088971251   0.2404330822
	    H     2.1471225441   2.1466952807   0.0425640457
	    H     1.9266839367   0.9791797876   1.3259531480
	    C     0.4247091522   0.9131921688  -0.2173806842
	    H     0.3600302626   1.1381408907  -1.2875292545
	    H    -0.2026775522   1.6481862534   0.2919308736
	    C    -0.1334968997  -0.4859276888   0.0189560532
	    H     0.4747085345  -1.2117020541  -0.5256657732
	    H    -0.0464518502  -0.7382240267   1.0813851078
	    C    -1.5891603101  -0.6398451467  -0.4183027253
	    H    -1.6812502532  -0.3572468827  -1.4723941187
	    H    -1.8725591414  -1.6947173027  -0.3564719002
			--------------------------
			 OPTKING Finished Execution 
			--------------------------

    Structure for next step:
    Molecular point group: c1
    Full point group: C1

    Geometry (in Angstrom), charge = 0, multiplicity = 1:

    C            3.202971731651    -1.075280897697     0.389239071440
    H            2.308046586843    -1.656206701458     0.606159020572
    H            3.650914224104    -0.792610614194     1.342832725812
    H            3.908047592878    -1.723846475664    -0.131219519696
    C           -4.021366532649    -0.084943168332    -0.012051485953
    H           -4.724360868164     0.500079574436     0.580409312672
    H           -4.275597459128    -1.138761144861     0.108227386897
    H           -4.170201209582     0.174174720113    -1.061104597659
    C            2.883118733638     0.170807142332    -0.432403626520
    H            2.505695080005    -0.118549532827    -1.417569839594
    H            3.814541223731     0.710956892446    -0.612197831350
    C           -2.579266047754     0.174573538891     0.407194996164
    H           -2.361096250328     1.239556470843     0.309993223382
    H           -2.450616146984    -0.075243692243     1.464292614048
    C            1.870356544231     1.108898071180     0.240431710809
    H            2.147122904943     2.146696226752     0.042562674321
    H            1.926684297517     0.979180733696     1.325951776624
    C            0.424709512960     0.913193114897    -0.217382055536
    H            0.360030623440     1.138141836782    -1.287530625904
    H           -0.202677191442     1.648187199412     0.291929502255
    C           -0.133496538903    -0.485926742705     0.018954681834
    H            0.474708895326    -1.211701108084    -0.525667144614
    H           -0.046451489385    -0.738223080661     1.081383736451
    C           -1.589159949338    -0.639844200654    -0.418304096732
    H           -1.681249892382    -0.357245936663    -1.472395490125
    H           -1.872558780585    -1.694716356685    -0.356473271541

gradient() will perform analytic gradient computation.

*** tstart() called on wr29
*** at Tue Sep 20 22:47:39 2016


         ---------------------------------------------------------
                                   SCF
            by Justin Turney, Rob Parrish, and Andy Simmonett
                              RHF Reference
                       12 Threads,  60000 MiB Core
         ---------------------------------------------------------

  ==> Geometry <==

    Molecular point group: c1
    Full point group: C1

    Geometry (in Angstrom), charge = 0, multiplicity = 1:

       Center              X                  Y                   Z               Mass       
    ------------   -----------------  -----------------  -----------------  -----------------
           C          3.202971731651    -1.075280897697     0.389239071440    12.000000000000
           H          2.308046586843    -1.656206701458     0.606159020572     1.007825032070
           H          3.650914224104    -0.792610614194     1.342832725812     1.007825032070
           H          3.908047592878    -1.723846475664    -0.131219519696     1.007825032070
           C         -4.021366532649    -0.084943168332    -0.012051485953    12.000000000000
           H         -4.724360868164     0.500079574436     0.580409312672     1.007825032070
           H         -4.275597459128    -1.138761144861     0.108227386897     1.007825032070
           H         -4.170201209582     0.174174720113    -1.061104597659     1.007825032070
           C          2.883118733638     0.170807142332    -0.432403626520    12.000000000000
           H          2.505695080005    -0.118549532827    -1.417569839594     1.007825032070
           H          3.814541223731     0.710956892446    -0.612197831350     1.007825032070
           C         -2.579266047754     0.174573538891     0.407194996164    12.000000000000
           H         -2.361096250328     1.239556470843     0.309993223382     1.007825032070
           H         -2.450616146984    -0.075243692243     1.464292614048     1.007825032070
           C          1.870356544231     1.108898071180     0.240431710809    12.000000000000
           H          2.147122904943     2.146696226752     0.042562674321     1.007825032070
           H          1.926684297517     0.979180733696     1.325951776624     1.007825032070
           C          0.424709512960     0.913193114897    -0.217382055536    12.000000000000
           H          0.360030623440     1.138141836782    -1.287530625904     1.007825032070
           H         -0.202677191442     1.648187199412     0.291929502255     1.007825032070
           C         -0.133496538903    -0.485926742705     0.018954681834    12.000000000000
           H          0.474708895326    -1.211701108084    -0.525667144614     1.007825032070
           H         -0.046451489385    -0.738223080661     1.081383736451     1.007825032070
           C         -1.589159949338    -0.639844200654    -0.418304096732    12.000000000000
           H         -1.681249892382    -0.357245936663    -1.472395490125     1.007825032070
           H         -1.872558780585    -1.694716356685    -0.356473271541     1.007825032070

  Running in c1 symmetry.

  Rotational constants: A =      0.17380  B =      0.02288  C =      0.02150 [cm^-1]
  Rotational constants: A =   5210.27812  B =    685.80341  C =    644.70259 [MHz]
  Nuclear repulsion =  391.225702623244501

  Charge       = 0
  Multiplicity = 1
  Electrons    = 66
  Nalpha       = 33
  Nbeta        = 33

  ==> Algorithm <==

  SCF Algorithm Type is DF.
  DIIS enabled.
  MOM disabled.
  Fractional occupation disabled.
  Guess Type is READ.
  Energy threshold   = 1.00e-10
  Density threshold  = 1.00e-10
  Integral threshold = 0.00e+00

  ==> Primary Basis <==

  Basis Set: AUG-CC-PVTZ
    Number of shells: 274
    Number of basis function: 782
    Number of Cartesian functions: 890
    Spherical Harmonics?: true
    Max angular momentum: 3

  ==> Pre-Iterations <==

   -------------------------------------------------------
    Irrep   Nso     Nmo     Nalpha   Nbeta   Ndocc  Nsocc
   -------------------------------------------------------
     A        782     782       0       0       0       0
   -------------------------------------------------------
    Total     782     782      33      33      33       0
   -------------------------------------------------------

  ==> Integral Setup <==

  ==> DFJK: Density-Fitted J/K Matrices <==

    J tasked:                  Yes
    K tasked:                  Yes
    wK tasked:                  No
    OpenMP threads:             12
    Integrals threads:          12
    Memory (MB):             42915
    Algorithm:                Core
    Integral Cache:           NONE
    Schwarz Cutoff:          1E-12
    Fitting Condition:       1E-12

   => Auxiliary Basis Set <=

  Basis Set: 
    Number of shells: 492
    Number of basis function: 1660
    Number of Cartesian functions: 2038
    Spherical Harmonics?: true
    Max angular momentum: 4

  Minimum eigenvalue in the overlap matrix is 1.7355701243E-06.
  Using Symmetric Orthogonalization.
  SCF Guess: Reading in previously saved MOs, projecting if necessary.

  Using orbitals from previous SCF, no projection.
  Recomputing DOCC and SOCC from number of alpha and beta electrons from previous calculation.
              A 
    DOCC [    33 ]

  ==> Iterations <==

                           Total Energy        Delta E     RMS |[F,P]|

   @DF-RHF iter   0:  -313.53875447255700   -3.13539e+02   9.64882e-08 
   @DF-RHF iter   1:  -313.53874651043918    7.96212e-06   2.04005e-08 
   @DF-RHF iter   2:  -313.53874651068804   -2.48860e-10   7.89913e-09 DIIS
   @DF-RHF iter   3:  -313.53874651072476   -3.67208e-11   3.55573e-09 DIIS
   @DF-RHF iter   4:  -313.53874651073090   -6.13909e-12   4.03802e-10 DIIS
   @DF-RHF iter   5:  -313.53874651073090    0.00000e+00   1.30566e-10 DIIS
   @DF-RHF iter   6:  -313.53874651073181   -9.09495e-13   2.95896e-11 DIIS

  ==> Post-Iterations <==

    Orbital Energies (a.u.)
    -----------------------

    Doubly Occupied:                                                      

       1A    -11.212578     2A    -11.211991     3A    -11.210767  
       4A    -11.210612     5A    -11.210162     6A    -11.209685  
       7A    -11.207001     8A    -11.205810     9A     -1.093731  
      10A     -1.059356    11A     -1.007050    12A     -0.951591  
      13A     -0.879280    14A     -0.829877    15A     -0.787217  
      16A     -0.762987    17A     -0.637694    18A     -0.632735  
      19A     -0.611993    20A     -0.592109    21A     -0.575207  
      22A     -0.560297    23A     -0.550537    24A     -0.531342  
      25A     -0.517757    26A     -0.496941    27A     -0.484209  
      28A     -0.474325    29A     -0.468261    30A     -0.460667  
      31A     -0.452633    32A     -0.434326    33A     -0.432544  

    Virtual:                                                              

      34A      0.030546    35A      0.033199    36A      0.033932  
      37A      0.036163    38A      0.045123    39A      0.047453  
      40A      0.049083    41A      0.054288    42A      0.056847  
      43A      0.064457    44A      0.066125    45A      0.067937  
      46A      0.072245    47A      0.085865    48A      0.089069  
      49A      0.093235    50A      0.095791    51A      0.098765  
      52A      0.111805    53A      0.114826    54A      0.117318  
      55A      0.122756    56A      0.125506    57A      0.129706  
      58A      0.134008    59A      0.135318    60A      0.138692  
      61A      0.142312    62A      0.152842    63A      0.155754  
      64A      0.159375    65A      0.159765    66A      0.161898  
      67A      0.166675    68A      0.168508    69A      0.170212  
      70A      0.175017    71A      0.177335    72A      0.182018  
      73A      0.187205    74A      0.198764    75A      0.200510  
      76A      0.210894    77A      0.218226    78A      0.224162  
      79A      0.225638    80A      0.232983    81A      0.239806  
      82A      0.244708    83A      0.246548    84A      0.264154  
      85A      0.267072    86A      0.272034    87A      0.275486  
      88A      0.280979    89A      0.288219    90A      0.288835  
      91A      0.299308    92A      0.303439    93A      0.309715  
      94A      0.311651    95A      0.316906    96A      0.318652  
      97A      0.325385    98A      0.328945    99A      0.331951  
     100A      0.335391   101A      0.342403   102A      0.345133  
     103A      0.347412   104A      0.348723   105A      0.354968  
     106A      0.364516   107A      0.365814   108A      0.366425  
     109A      0.371083   110A      0.373372   111A      0.375739  
     112A      0.380965   113A      0.384304   114A      0.384479  
     115A      0.391930   116A      0.396529   117A      0.397499  
     118A      0.399171   119A      0.402965   120A      0.409921  
     121A      0.410615   122A      0.417433   123A      0.424297  
     124A      0.428019   125A      0.431160   126A      0.436164  
     127A      0.437660   128A      0.442787   129A      0.446526  
     130A      0.451269   131A      0.452528   132A      0.454644  
     133A      0.456397   134A      0.465775   135A      0.468957  
     136A      0.474068   137A      0.475499   138A      0.480197  
     139A      0.482671   140A      0.486624   141A      0.487086  
     142A      0.497573   143A      0.499637   144A      0.501071  
     145A      0.503356   146A      0.508831   147A      0.512515  
     148A      0.514936   149A      0.522967   150A      0.523827  
     151A      0.524528   152A      0.531903   153A      0.536081  
     154A      0.540212   155A      0.542528   156A      0.544472  
     157A      0.549136   158A      0.559077   159A      0.564239  
     160A      0.572833   161A      0.580281   162A      0.582333  
     163A      0.583787   164A      0.589176   165A      0.591036  
     166A      0.591538   167A      0.597995   168A      0.605004  
     169A      0.608158   170A      0.613572   171A      0.618025  
     172A      0.619876   173A      0.632001   174A      0.636112  
     175A      0.637452   176A      0.641621   177A      0.645444  
     178A      0.650452   179A      0.658738   180A      0.661180  
     181A      0.666393   182A      0.675123   183A      0.679515  
     184A      0.687479   185A      0.691060   186A      0.696249  
     187A      0.698712   188A      0.702550   189A      0.707790  
     190A      0.715936   191A      0.723748   192A      0.728598  
     193A      0.730168   194A      0.749566   195A      0.752605  
     196A      0.757472   197A      0.772469   198A      0.773879  
     199A      0.786137   200A      0.803062   201A      0.810500  
     202A      0.816069   203A      0.816859   204A      0.829225  
     205A      0.833451   206A      0.839118   207A      0.844511  
     208A      0.847742   209A      0.850915   210A      0.855029  
     211A      0.863878   212A      0.868762   213A      0.873086  
     214A      0.878276   215A      0.884350   216A      0.893810  
     217A      0.895641   218A      0.896724   219A      0.905187  
     220A      0.906912   221A      0.910894   222A      0.914295  
     223A      0.918189   224A      0.924532   225A      0.927701  
     226A      0.931877   227A      0.943611   228A      0.949417  
     229A      0.951883   230A      0.954177   231A      0.959412  
     232A      0.966608   233A      0.968709   234A      0.973050  
     235A      0.975181   236A      0.981418   237A      0.987133  
     238A      0.991520   239A      1.001154   240A      1.003605  
     241A      1.014973   242A      1.015927   243A      1.021843  
     244A      1.024335   245A      1.028680   246A      1.036077  
     247A      1.049540   248A      1.052035   249A      1.055028  
     250A      1.057724   251A      1.060436   252A      1.070853  
     253A      1.073613   254A      1.077214   255A      1.083132  
     256A      1.092648   257A      1.102102   258A      1.104450  
     259A      1.109100   260A      1.112336   261A      1.120438  
     262A      1.123432   263A      1.131030   264A      1.136730  
     265A      1.140841   266A      1.148562   267A      1.153398  
     268A      1.157279   269A      1.162589   270A      1.166776  
     271A      1.171612   272A      1.174888   273A      1.185107  
     274A      1.188396   275A      1.192592   276A      1.200398  
     277A      1.204592   278A      1.209293   279A      1.213076  
     280A      1.216147   281A      1.219066   282A      1.226117  
     283A      1.240251   284A      1.242232   285A      1.245445  
     286A      1.250224   287A      1.254741   288A      1.260838  
     289A      1.269799   290A      1.271608   291A      1.283812  
     292A      1.286679   293A      1.289168   294A      1.297548  
[...]
	 D(20,18,21,24)   =         0.983907	      56.373731
	 D(22,21,24,25)   =        -1.147454	     -65.744264
	 D(22,21,24,26)   =         0.875196	      50.145018
	 D(23,21,24,25)   =         3.110789	     178.235105
	 D(23,21,24,26)   =        -1.149746	     -65.875613
	 R(1,21)          =         6.440734	       3.408290

	Current energy   :      -314.9802103090

	Energy change for the previous step:
		Projected    :         0.0000000002
		Actual       :        -0.0000000011

	Performing BFGS update.
	Previous computed or guess Hessian on step 1.
	Denominators (dg)(dq) or (dq)(dq) are very small.
	 Skipping Hessian update for step 13.
	Denominators (dg)(dq) or (dq)(dq) are very small.
	 Skipping Hessian update for step 12.
	Denominators (dg)(dq) or (dq)(dq) are very small.
	 Skipping Hessian update for step 11.
	Denominators (dg)(dq) or (dq)(dq) are very small.
	 Skipping Hessian update for step 10.
	Denominators (dg)(dq) or (dq)(dq) are very small.
	 Skipping Hessian update for step 9.
	Denominators (dg)(dq) or (dq)(dq) are very small.
	 Skipping Hessian update for step 8.
	Denominators (dg)(dq) or (dq)(dq) are very small.
	 Skipping Hessian update for step 7.
	Denominators (dg)(dq) or (dq)(dq) are very small.
	 Skipping Hessian update for step 6.
	Denominators (dg)(dq) or (dq)(dq) are very small.
	 Skipping Hessian update for step 5.
	Denominators (dg)(dq) or (dq)(dq) are very small.
	 Skipping Hessian update for step 4.
	Denominators (dg)(dq) or (dq)(dq) are very small.
	 Skipping Hessian update for step 3.
	Denominators (dg)(dq) or (dq)(dq) are very small.
	 Skipping Hessian update for step 2.
	Steps to be used in Hessian update: 1
	Taking RFO optimization step.
	Going to follow RFO solution 1.
	Rejecting RFO root 1 because normalization gives large value.
	Rejecting RFO root 2 because normalization gives large value.
	Using RFO vector 3.
	Norm of target step-size    0.00002
	Projected energy change by RFO approximation:        -0.0000000000

	Back-transformation to cartesian coordinates...
	Successfully converged to displaced geometry.

	--- Internal Coordinate Step in ANG or DEG, aJ/ANG or AJ/DEG ---
	 ---------------------------------------------------------------------------
	   Coordinate                Previous        Force       Change         New 
	   ----------                --------       ------       ------       ------
	    1 R(1,2)          =      1.088770    -0.000001    -0.000000     1.088770
	    2 R(1,3)          =      1.090824    -0.000001    -0.000000     1.090824
	    3 R(1,4)          =      1.090251    -0.000001    -0.000000     1.090251
	    4 R(1,9)          =      1.526479    -0.000001    -0.000000     1.526479
	    5 R(5,6)          =      1.089708    -0.000003    -0.000000     1.089708
	    6 R(5,7)          =      1.090703    -0.000003    -0.000000     1.090703
	    7 R(5,8)          =      1.090782    -0.000003    -0.000000     1.090782
	    8 R(5,12)         =      1.524064    -0.000002    -0.000000     1.524064
	    9 R(9,10)         =      1.093951     0.000001     0.000000     1.093951
	   10 R(9,11)         =      1.091621    -0.000001    -0.000000     1.091621
	   11 R(9,15)         =      1.535711    -0.000000     0.000000     1.535712
	   12 R(12,13)        =      1.091437    -0.000004    -0.000000     1.091437
	   13 R(12,14)        =      1.093807    -0.000005    -0.000000     1.093807
	   14 R(12,24)        =      1.524807    -0.000003    -0.000000     1.524807
	   15 R(15,16)        =      1.092143     0.000002     0.000000     1.092143
	   16 R(15,17)        =      1.094694     0.000003     0.000000     1.094694
	   17 R(15,18)        =      1.528983    -0.000001     0.000000     1.528984
	   18 R(18,19)        =      1.095447    -0.000005     0.000000     1.095447
	   19 R(18,20)        =      1.092350    -0.000003     0.000000     1.092350
	   20 R(18,21)        =      1.524791     0.000002    -0.000000     1.524791
	   21 R(21,22)        =      1.092372    -0.000007     0.000000     1.092372
	   22 R(21,23)        =      1.095440    -0.000010    -0.000000     1.095440
	   23 R(21,24)        =      1.527691     0.000001    -0.000000     1.527691
	   24 R(24,25)        =      1.095194    -0.000006    -0.000000     1.095194
	   25 R(24,26)        =      1.094026    -0.000006    -0.000000     1.094026
	   26 B(1,9,10)       =    109.944309     0.000000     0.000002   109.944312
	   27 B(1,9,11)       =    108.287824     0.000000     0.000010   108.287834
	   28 B(1,9,15)       =    113.641076    -0.000000    -0.000003   113.641072
	   29 B(2,1,3)        =    107.555489     0.000000     0.000001   107.555491
	   30 B(2,1,4)        =    108.015554     0.000000    -0.000003   108.015551
	   31 B(2,1,9)        =    111.750444    -0.000000    -0.000001   111.750443
	   32 B(3,1,4)        =    107.812554     0.000000     0.000004   107.812558
	   33 B(3,1,9)        =    110.185130    -0.000000    -0.000003   110.185127
	   34 B(4,1,9)        =    111.356138     0.000000     0.000003   111.356141
	   35 B(5,12,13)      =    109.317113    -0.000000     0.000011   109.317125
	   36 B(5,12,14)      =    109.770431     0.000000     0.000004   109.770435
	   37 B(5,12,24)      =    111.995760    -0.000000    -0.000015   111.995744
	   38 B(6,5,7)        =    107.961614     0.000000     0.000001   107.961615
	   39 B(6,5,8)        =    107.898414     0.000000     0.000000   107.898414
	   40 B(6,5,12)       =    111.681748     0.000000     0.000012   111.681761
	   41 B(7,5,8)        =    107.684300     0.000000     0.000000   107.684300
	   42 B(7,5,12)       =    110.777477    -0.000000    -0.000011   110.777466
	   43 B(8,5,12)       =    110.684422    -0.000000    -0.000003   110.684419
	   44 B(9,15,16)      =    109.509049     0.000000     0.000000   109.509050
	   45 B(9,15,17)      =    109.155731     0.000000     0.000003   109.155734
	   46 B(9,15,18)      =    114.466352     0.000000     0.000031   114.466383
	   47 B(10,9,11)      =    106.077358    -0.000000     0.000003   106.077361
	   48 B(10,9,15)      =    109.184238     0.000000    -0.000004   109.184234
	   49 B(11,9,15)      =    109.426508     0.000000    -0.000007   109.426500
	   50 B(12,24,21)     =    114.201713    -0.000000     0.000005   114.201718
	   51 B(12,24,25)     =    109.186429     0.000000     0.000007   109.186436
	   52 B(12,24,26)     =    108.432911     0.000000     0.000000   108.432911
	   53 B(13,12,14)     =    106.583667     0.000000     0.000014   106.583681
	   54 B(13,12,24)     =    110.069293     0.000000     0.000005   110.069298
	   55 B(14,12,24)     =    108.956509    -0.000000    -0.000017   108.956492
	   56 B(15,18,19)     =    108.786900     0.000000     0.000019   108.786920
	   57 B(15,18,20)     =    108.500431    -0.000000    -0.000031   108.500400
	   58 B(15,18,21)     =    114.656218     0.000000     0.000042   114.656261
	   59 B(16,15,17)     =    106.213488     0.000000    -0.000007   106.213481
	   60 B(16,15,18)     =    107.877512    -0.000000    -0.000020   107.877493
	   61 B(17,15,18)     =    109.292988    -0.000000    -0.000010   109.292978
	   62 B(18,21,22)     =    109.180065    -0.000000     0.000013   109.180078
	   63 B(18,21,23)     =    109.424877    -0.000000    -0.000019   109.424858
	   64 B(18,21,24)     =    113.385326     0.000000     0.000035   113.385361
	   65 B(19,18,20)     =    106.463439     0.000000    -0.000014   106.463425
	   66 B(19,18,21)     =    108.555631    -0.000000     0.000001   108.555632
	   67 B(20,18,21)     =    109.564789    -0.000000    -0.000021   109.564768
	   68 B(21,24,25)     =    109.244723     0.000000     0.000014   109.244738
	   69 B(21,24,26)     =    109.135227    -0.000000    -0.000031   109.135196
	   70 B(22,21,23)     =    106.635336     0.000000     0.000023   106.635358
	   71 B(22,21,24)     =    108.716318    -0.000000    -0.000009   108.716308
	   72 B(23,21,24)     =    109.275255    -0.000000    -0.000042   109.275213
	   73 B(25,24,26)     =    106.344585    -0.000000     0.000003   106.344588
	   74 D(1,9,15,16)    =    142.625197     0.000000     0.000179   142.625376
	   75 D(1,9,15,17)    =     26.734281    -0.000000     0.000186    26.734467
	   76 D(1,9,15,18)    =    -96.108164     0.000000     0.000175   -96.107989
	   77 D(2,1,9,10)     =    -64.803720     0.000000    -0.000003   -64.803723
	   78 D(2,1,9,11)     =    179.716188    -0.000000    -0.000013   179.716175
	   79 D(2,1,9,15)     =     57.910003     0.000000    -0.000009    57.909994
	   80 D(3,1,9,10)     =    175.679794     0.000000    -0.000001   175.679792
	   81 D(3,1,9,11)     =     60.199702    -0.000000    -0.000012    60.199690
	   82 D(3,1,9,15)     =    -61.606483     0.000000    -0.000008   -61.606491
	   83 D(4,1,9,10)     =     56.095726     0.000000    -0.000005    56.095720
	   84 D(4,1,9,11)     =    -59.384366    -0.000000    -0.000016   -59.384382
	   85 D(4,1,9,15)     =    178.809449     0.000000    -0.000012   178.809437
	   86 D(5,12,24,21)   =   -176.302631     0.000000     0.000270  -176.302361
	   87 D(5,12,24,25)   =     61.080785     0.000000     0.000242    61.081027
	   88 D(5,12,24,26)   =    -54.390249    -0.000000     0.000235   -54.390015
	   89 D(6,5,12,13)    =    -57.692754    -0.000000    -0.000031   -57.692785
	   90 D(6,5,12,14)    =     58.882979     0.000000    -0.000006    58.882973
	   91 D(6,5,12,24)    =   -179.953070    -0.000000    -0.000035  -179.953105
	   92 D(7,5,12,13)    =   -178.076541    -0.000000    -0.000034  -178.076575
	   93 D(7,5,12,14)    =    -61.500809     0.000000    -0.000008   -61.500817
	   94 D(7,5,12,24)    =     59.663142    -0.000000    -0.000037    59.663105
	   95 D(8,5,12,13)    =     62.547441    -0.000000    -0.000025    62.547416
	   96 D(8,5,12,14)    =    179.123173     0.000000     0.000000   179.123174
	   97 D(8,5,12,24)    =    -59.712875    -0.000000    -0.000029   -59.712904
	   98 D(9,15,18,19)   =    -62.568169    -0.000000     0.000141   -62.568028
	   99 D(9,15,18,20)   =   -178.003258    -0.000000     0.000164  -178.003093
	  100 D(9,15,18,21)   =     59.167502    -0.000000     0.000186    59.167688
	  101 D(10,9,15,16)   =    -94.243896     0.000000     0.000176   -94.243721
	  102 D(10,9,15,17)   =    149.865187    -0.000000     0.000183   149.865370
	  103 D(10,9,15,18)   =     27.022743     0.000000     0.000172    27.022914
	  104 D(11,9,15,16)   =     21.453947     0.000000     0.000173    21.454120
	  105 D(11,9,15,17)   =    -94.436969    -0.000000     0.000180   -94.436789
	  106 D(11,9,15,18)   =    142.720586     0.000000     0.000169   142.720755
	  107 D(12,24,21,18)  =    -66.698927     0.000000    -0.000196   -66.699122
	  108 D(12,24,21,22)  =    171.670922    -0.000000    -0.000229   171.670693
	  109 D(12,24,21,23)  =     55.650291    -0.000000    -0.000227    55.650063
	  110 D(13,12,24,21)  =     61.867140     0.000000     0.000263    61.867403
	  111 D(13,12,24,25)  =    -60.749444     0.000000     0.000235   -60.749209
	  112 D(13,12,24,26)  =   -176.220478    -0.000000     0.000227  -176.220250
	  113 D(14,12,24,21)  =    -54.670027     0.000000     0.000253   -54.669774
	  114 D(14,12,24,25)  =   -177.286611     0.000000     0.000226  -177.286385
	  115 D(14,12,24,26)  =     67.242355    -0.000000     0.000218    67.242573
	  116 D(15,18,21,22)  =    -60.002111    -0.000000    -0.000123   -60.002234
	  117 D(15,18,21,23)  =     56.361420     0.000000    -0.000099    56.361321
	  118 D(15,18,21,24)  =    178.627546    -0.000000    -0.000143   178.627403
	  119 D(16,15,18,19)  =     59.591863     0.000000     0.000147    59.592010
	  120 D(16,15,18,20)  =    -55.843226     0.000000     0.000171   -55.843056
	  121 D(16,15,18,21)  =   -178.672467     0.000000     0.000192  -178.672274
	  122 D(17,15,18,19)  =    174.663641    -0.000000     0.000123   174.663764
	  123 D(17,15,18,20)  =     59.228552    -0.000000     0.000146    59.228698
	  124 D(17,15,18,21)  =    -63.600688    -0.000000     0.000168   -63.600521
	  125 D(18,21,24,25)  =     55.885888     0.000000    -0.000172    55.885716
	  126 D(18,21,24,26)  =    171.775169     0.000000    -0.000177   171.774992
	  127 D(19,18,21,22)  =     61.859611     0.000000    -0.000068    61.859543
	  128 D(19,18,21,23)  =    178.223143     0.000000    -0.000045   178.223098
	  129 D(19,18,21,24)  =    -59.510732     0.000000    -0.000089   -59.510820
	  130 D(20,18,21,22)  =    177.744074    -0.000000    -0.000096   177.743978
	  131 D(20,18,21,23)  =    -65.892395     0.000000    -0.000072   -65.892467
	  132 D(20,18,21,24)  =     56.373731    -0.000000    -0.000117    56.373615
	  133 D(22,21,24,25)  =    -65.744264    -0.000000    -0.000205   -65.744469
	  134 D(22,21,24,26)  =     50.145018    -0.000000    -0.000210    50.144808
	  135 D(23,21,24,25)  =    178.235105     0.000000    -0.000204   178.234902
	  136 D(23,21,24,26)  =    -65.875613     0.000000    -0.000209   -65.875822
	  137 R(1,21)         =      3.408290     0.000002     0.000000     3.408290
	 ---------------------------------------------------------------------------

  ==> Convergence Check <==

  Measures of convergence in internal coordinates in au.
  Criteria marked as inactive (o), active & met (*), and active & unmet ( ).
  ---------------------------------------------------------------------------------------------
   Step     Total Energy     Delta E     MAX Force     RMS Force      MAX Disp      RMS Disp   
  ---------------------------------------------------------------------------------------------
    Convergence Criteria             o    2.00e-06 *    1.00e-06 *    6.00e-06 *    4.00e-06 *
  ---------------------------------------------------------------------------------------------
     14    -314.98021031   -1.10e-09 o    1.18e-06 *    2.13e-07 *    4.71e-06 *    1.84e-06 *  ~
  ---------------------------------------------------------------------------------------------


  **** Optimization is complete! (in 14 steps) ****

  ==> Optimization Summary <==

  Measures of convergence in internal coordinates in au.
  --------------------------------------------------------------------------------------------------------------- ~
   Step         Total Energy             Delta E       MAX Force       RMS Force        MAX Disp        RMS Disp  ~
  --------------------------------------------------------------------------------------------------------------- ~
      1    -314.980210308320   -314.980210308320      0.00000079      0.00000015      0.00004166      0.00001196  ~
      2    -314.980210309989     -0.000000001669      0.00000169      0.00000038      0.00003770      0.00001168  ~
      3    -314.980210311946     -0.000000001957      0.00000247      0.00000063      0.00001531      0.00000610  ~
      4    -314.980210309630      0.000000002316      0.00000301      0.00000077      0.00005429      0.00002382  ~
      5    -314.980210306801      0.000000002830      0.00000523      0.00000098      0.00006088      0.00002595  ~
      6    -314.980210305295      0.000000001506      0.00000219      0.00000055      0.00001649      0.00000646  ~
      7    -314.980210310506     -0.000000005211      0.00000237      0.00000058      0.00001409      0.00000553  ~
      8    -314.980210305485      0.000000005021      0.00000051      0.00000014      0.00001054      0.00000438  ~
      9    -314.980210309583     -0.000000004098      0.00000168      0.00000038      0.00001368      0.00000483  ~
     10    -314.980210306532      0.000000003052      0.00000272      0.00000066      0.00007002      0.00002062  ~
     11    -314.980210301867      0.000000004665      0.00000448      0.00000099      0.00008248      0.00002441  ~
     12    -314.980210308800     -0.000000006933      0.00000229      0.00000052      0.00005995      0.00002077  ~
     13    -314.980210307857      0.000000000943      0.00000363      0.00000080      0.00005910      0.00001945  ~
     14    -314.980210308962     -0.000000001104      0.00000118      0.00000021      0.00000471      0.00000184  ~
  --------------------------------------------------------------------------------------------------------------- ~

	Writing optimization data to binary file.
	Final energy is   -314.9802103089617
	Final (previous) structure:
	Cartesian Geometry (in Angstrom)
	    C     3.2029589450  -1.0752833625   0.3892777483
	    H     2.3080295064  -1.6561975847   0.6062133078
	    H     3.6509036534  -0.7925909081   1.3428643831
	    H     3.9080306655  -1.7238677346  -0.1311639035
	    C    -4.0213680185  -0.0849602602  -0.0120322443
	    H    -4.7243628622   0.5000327222   0.5804577443
	    H    -4.2755864509  -1.1387854532   0.1082097221
	    H    -4.1702161979   0.1741952180  -1.0610742400
	    C     2.8831161085   0.1707851134  -0.4323985736
	    H     2.5056869994  -0.1185947083  -1.4175563132
	    H     3.8145445131   0.7109201541  -0.6122095069
	    C    -2.5792661248   0.1745564933   0.4072098290
	    H    -2.3611078334   1.2395450514   0.3100444949
	    H    -2.4506044855  -0.0752971083   1.4642973565
	    C     1.8703656895   1.1089060091   0.2404130049
	    H     2.1471463117   2.1466956615   0.0425178524
	    H     1.9266926856   0.9792150805   1.3259365797
	    C     0.4247154708   0.9132094801  -0.2173956746
	    H     0.3600328616   1.1381694060  -1.2875425383
	    H    -0.2026676226   1.6482005867   0.2919254910
	    C    -0.1334943715  -0.4859121176   0.0189279399
	    H     0.4747078157  -1.2116818284  -0.5257052551
	    H    -0.0464454216  -0.7382229114   1.0813544006
	    C    -1.5891595372  -0.6398229155  -0.4183266851
	    H    -1.6812587186  -0.3571865396  -1.4724069848
	    H    -1.8725517081  -1.6946989320  -0.3565330863
	Saving final (previous) structure.
			--------------------------
			 OPTKING Finished Execution 
			--------------------------

    Final optimized geometry and variables:
    Molecular point group: c1
    Full point group: C1

    Geometry (in Angstrom), charge = 0, multiplicity = 1:

    C            3.202958944967    -1.075283362467     0.389277748345
    H            2.308029506401    -1.656197584659     0.606213307784
    H            3.650903653421    -0.792590908105     1.342864383134
    H            3.908030665489    -1.723867734560    -0.131163903462
    C           -4.021368018478    -0.084960260214    -0.012032244254
    H           -4.724362862188     0.500032722233     0.580457744282
    H           -4.275586450910    -1.138785453175     0.108209722057
    H           -4.170216197914     0.174195218003    -1.061074240038
    C            2.883116108545     0.170785113369    -0.432398573596
    H            2.505686999388    -0.118594708292    -1.417556313173
    H            3.814544513118     0.710920154125    -0.612209506917
    C           -2.579266124849     0.174556493323     0.407209828957
    H           -2.361107833406     1.239545051400     0.310044494912
    H           -2.450604485502    -0.075297108312     1.464297356480
    C            1.870365689458     1.108906009064     0.240413004939
    H            2.147146311682     2.146695661526     0.042517852408
    H            1.926692685648     0.979215080536     1.325936579690
    C            0.424715470814     0.913209480144    -0.217395674606
    H            0.360032861605     1.138169406019    -1.287542538301
    H           -0.202667622576     1.648200586711     0.291925491011
    C           -0.133494371501    -0.485912117621     0.018927939938
    H            0.474707815737    -1.211681828376    -0.525705255056
    H           -0.046445421594    -0.738222911408     1.081354400551
    C           -1.589159537202    -0.639822915477    -0.418326685093
    H           -1.681258718609    -0.357186539621    -1.472406984810
    H           -1.872551708053    -1.694698931991    -0.356533086296

	Cleaning optimization helper files.

*** Psi4 exiting successfully. Buy a developer a beer!
