    -----------------------------------------------------------------------
          Psi4: An Open-Source Ab Initio Electronic Structure Package
                              Psi4 1.0.0 Driver

                          Git: Rev {master} 6a9a71b dirty

    J. M. Turney, A. C. Simmonett, R. M. Parrish, E. G. Hohenstein,
    F. A. Evangelista, J. T. Fermann, B. J. Mintz, L. A. Burns, J. J. Wilke,
    M. L. Abrams, N. J. Russ, M. L. Leininger, C. L. Janssen, E. T. Seidl,
    W. D. Allen, H. F. Schaefer, R. A. King, E. F. Valeev, C. D. Sherrill,
    and T. D. Crawford, WIREs Comput. Mol. Sci. 2, 556-565 (2012)
    (doi: 10.1002/wcms.93)

                         Additional Contributions by
    A. E. DePrince, U. Bozkaya, A. Yu. Sokolov, D. G. A. Smith, R. Di Remigio,
    R. M. Richard, J. F. Gonthier, H. R. McAlexander, M. Saitow, and
    B. P. Pritchard
    -----------------------------------------------------------------------


    Psi4 started on: Tue Sep 20 19:39:39 2016

    Process ID:  23453
    PSI4DATADIR: /usr/local/hpc5/psi4conda/share/psi4
    Memory level set to 256.000 MB

  ==> Input File <==

--------------------------------------------------------------------------
memory 30 Gb

molecule molecule_79_psi {
0 1
symmetry c1
    C            2.134838494151     1.623987565098    -0.214607204767
    H            1.763871533404     1.952683630957     0.755015616366
    H            1.281291921109     1.516809294680    -0.880223486585
    H            2.767815175715     2.412680114890    -0.615918440582
    C           -2.924845339006     1.287764297311     0.254121419875
    H           -3.894831738523     1.641049036179     0.596912096764
    H           -2.684198444188     1.812960131943    -0.669464475991
    H           -2.187942875535     1.571887941039     1.000915194270
    C            2.904447704342     0.321227336220    -0.087166659129
    H            3.799003773056     0.489835301963     0.513153605442
    H            3.248108683792     0.009838889566    -1.075246252227
    C           -2.934493037624    -0.213901120070     0.026920398585
    H           -3.122588791617    -0.725380184411     0.972624359259
    H           -3.760211878291    -0.472871093953    -0.636161587677
    C            2.103181847880    -0.817692134105     0.526228850491
    H            1.836422409392    -0.557416823360     1.553426471771
    H            2.747147858315    -1.694933979027     0.587606079575
    C            0.830728771034    -1.162082040722    -0.247542864978
    H            0.678022026100    -2.242151114177    -0.252949587120
    H            0.952911133262    -0.867944234660    -1.293580534007
    C           -0.422506176632    -0.507723917301     0.310604884588
    H           -0.616275585810    -0.911630237486     1.307948789363
    H           -0.249910916520     0.559223609336     0.438665788596
    C           -1.637334956507    -0.735813509350    -0.568667646872
    H           -1.468614649820    -0.256972112342    -1.536947762960
    H           -1.733194461847    -1.805894602276    -0.764480146877
}

set globals {
  reference rhf
  g_convergence gau_verytight
  basis aug-cc-pvtz
  freeze_core true
  scf_type df
  mp_type df
}
optimize('mp2')
--------------------------------------------------------------------------
/usr/local/hpc5/psi4conda/lib/python2.7/site-packages/v2rdm_casscf/v2rdm_casscf.so loaded.

  Memory set to  30.000 GiB by Python script.
gradient() will perform analytic gradient computation.

*** tstart() called on wr42
*** at Tue Sep 20 19:39:40 2016


         ---------------------------------------------------------
                                   SCF
            by Justin Turney, Rob Parrish, and Andy Simmonett
                              RHF Reference
                       12 Threads,  30000 MiB Core
         ---------------------------------------------------------

  ==> Geometry <==

    Molecular point group: c1
    Full point group: C1

    Geometry (in Angstrom), charge = 0, multiplicity = 1:

       Center              X                  Y                   Z               Mass       
    ------------   -----------------  -----------------  -----------------  -----------------
           C          2.134838494151     1.623987565098    -0.214607204767    12.000000000000
           H          1.763871533404     1.952683630957     0.755015616366     1.007825032070
           H          1.281291921109     1.516809294680    -0.880223486585     1.007825032070
           H          2.767815175715     2.412680114890    -0.615918440582     1.007825032070
           C         -2.924845339006     1.287764297311     0.254121419875    12.000000000000
           H         -3.894831738523     1.641049036179     0.596912096764     1.007825032070
           H         -2.684198444188     1.812960131943    -0.669464475991     1.007825032070
           H         -2.187942875535     1.571887941039     1.000915194270     1.007825032070
           C          2.904447704342     0.321227336220    -0.087166659129    12.000000000000
           H          3.799003773056     0.489835301963     0.513153605442     1.007825032070
           H          3.248108683792     0.009838889566    -1.075246252227     1.007825032070
           C         -2.934493037624    -0.213901120070     0.026920398585    12.000000000000
           H         -3.122588791617    -0.725380184411     0.972624359259     1.007825032070
           H         -3.760211878291    -0.472871093953    -0.636161587677     1.007825032070
           C          2.103181847880    -0.817692134105     0.526228850491    12.000000000000
           H          1.836422409392    -0.557416823360     1.553426471771     1.007825032070
           H          2.747147858315    -1.694933979027     0.587606079575     1.007825032070
           C          0.830728771034    -1.162082040722    -0.247542864978    12.000000000000
           H          0.678022026100    -2.242151114177    -0.252949587120     1.007825032070
           H          0.952911133262    -0.867944234660    -1.293580534007     1.007825032070
           C         -0.422506176632    -0.507723917301     0.310604884588    12.000000000000
           H         -0.616275585810    -0.911630237486     1.307948789363     1.007825032070
           H         -0.249910916520     0.559223609336     0.438665788596     1.007825032070
           C         -1.637334956507    -0.735813509350    -0.568667646872    12.000000000000
           H         -1.468614649820    -0.256972112342    -1.536947762960     1.007825032070
           H         -1.733194461847    -1.805894602276    -0.764480146877     1.007825032070

  Running in c1 symmetry.

  Rotational constants: A =      0.11350  B =      0.02852  C =      0.02454 [cm^-1]
  Rotational constants: A =   3402.64940  B =    855.07539  C =    735.61782 [MHz]
  Nuclear repulsion =  397.236256225110139

  Charge       = 0
  Multiplicity = 1
  Electrons    = 66
  Nalpha       = 33
  Nbeta        = 33

  ==> Algorithm <==

  SCF Algorithm Type is DF.
  DIIS enabled.
  MOM disabled.
  Fractional occupation disabled.
  Guess Type is SAD.
  Energy threshold   = 1.00e-10
  Density threshold  = 1.00e-10
  Integral threshold = 0.00e+00

  ==> Primary Basis <==

  Basis Set: AUG-CC-PVTZ
    Number of shells: 274
    Number of basis function: 782
    Number of Cartesian functions: 890
    Spherical Harmonics?: true
    Max angular momentum: 3

  ==> Pre-Iterations <==

   -------------------------------------------------------
    Irrep   Nso     Nmo     Nalpha   Nbeta   Ndocc  Nsocc
   -------------------------------------------------------
     A        782     782       0       0       0       0
   -------------------------------------------------------
    Total     782     782      33      33      33       0
   -------------------------------------------------------

  ==> Integral Setup <==

  ==> DFJK: Density-Fitted J/K Matrices <==

    J tasked:                  Yes
    K tasked:                  Yes
    wK tasked:                  No
    OpenMP threads:             12
    Integrals threads:          12
    Memory (MB):             21457
    Algorithm:                Core
    Integral Cache:           NONE
    Schwarz Cutoff:          1E-12
    Fitting Condition:       1E-12

   => Auxiliary Basis Set <=

  Basis Set: 
    Number of shells: 492
    Number of basis function: 1660
    Number of Cartesian functions: 2038
    Spherical Harmonics?: true
    Max angular momentum: 4

  Minimum eigenvalue in the overlap matrix is 1.7416998951E-06.
  Using Symmetric Orthogonalization.
  SCF Guess: Superposition of Atomic Densities via on-the-fly atomic UHF.

  ==> Iterations <==

                           Total Energy        Delta E     RMS |[F,P]|

   @DF-RHF iter   0:  -317.02426886653524   -3.17024e+02   7.05642e-03 
   @DF-RHF iter   1:  -313.27284405884831    3.75142e+00   7.67521e-04 
   @DF-RHF iter   2:  -313.50037457807724   -2.27531e-01   2.98966e-04 DIIS
   @DF-RHF iter   3:  -313.53273652805325   -3.23619e-02   1.06433e-04 DIIS
   @DF-RHF iter   4:  -313.53837807460349   -5.64155e-03   1.63433e-05 DIIS
   @DF-RHF iter   5:  -313.53856681119231   -1.88737e-04   4.51880e-06 DIIS
   @DF-RHF iter   6:  -313.53857861820364   -1.18070e-05   1.48552e-06 DIIS
   @DF-RHF iter   7:  -313.53857992069373   -1.30249e-06   2.74558e-07 DIIS
   @DF-RHF iter   8:  -313.53857998071675   -6.00230e-08   7.28738e-08 DIIS
   @DF-RHF iter   9:  -313.53857998418943   -3.47268e-09   2.30636e-08 DIIS
   @DF-RHF iter  10:  -313.53857998450377   -3.14344e-10   6.33081e-09 DIIS
   @DF-RHF iter  11:  -313.53857998452742   -2.36469e-11   1.47911e-09 DIIS
   @DF-RHF iter  12:  -313.53857998452935   -1.93268e-12   3.81750e-10 DIIS
   @DF-RHF iter  13:  -313.53857998452969   -3.41061e-13   1.19268e-10 DIIS
   @DF-RHF iter  14:  -313.53857998452901    6.82121e-13   3.25185e-11 DIIS

  ==> Post-Iterations <==

    Orbital Energies (a.u.)
    -----------------------

    Doubly Occupied:                                                      

       1A    -11.211468     2A    -11.210731     3A    -11.208561  
       4A    -11.207999     5A    -11.207845     6A    -11.205931  
       7A    -11.205856     8A    -11.204964     9A     -1.096796  
      10A     -1.064140    11A     -1.008735    12A     -0.948279  
      13A     -0.890633    14A     -0.828215    15A     -0.773376  
      16A     -0.771209    17A     -0.652372    18A     -0.626446  
      19A     -0.608412    20A     -0.601766    21A     -0.582865  
      22A     -0.560069    23A     -0.540068    24A     -0.526529  
      25A     -0.523549    26A     -0.498793    27A     -0.485899  
      28A     -0.481907    29A     -0.461835    30A     -0.459465  
      31A     -0.452523    32A     -0.441540    33A     -0.428524  

    Virtual:                                                              

      34A      0.028583    35A      0.032602    36A      0.034428  
      37A      0.034956    38A      0.045613    39A      0.046862  
      40A      0.049635    41A      0.054179    42A      0.056477  
      43A      0.067467    44A      0.068761    45A      0.070588  
      46A      0.073894    47A      0.076918    48A      0.088044  
      49A      0.093005    50A      0.096091    51A      0.106923  
      52A      0.114196    53A      0.115768    54A      0.117857  
      55A      0.120271    56A      0.124866    57A      0.130636  
      58A      0.134174    59A      0.136689    60A      0.140881  
      61A      0.141761    62A      0.141998    63A      0.149850  
      64A      0.155382    65A      0.160920    66A      0.163184  
      67A      0.164606    68A      0.167095    69A      0.169764  
      70A      0.174869    71A      0.179301    72A      0.181959  
      73A      0.192119    74A      0.196802    75A      0.199859  
      76A      0.204170    77A      0.212667    78A      0.217144  
      79A      0.224260    80A      0.229924    81A      0.239992  
      82A      0.243598    83A      0.252217    84A      0.255456  
      85A      0.268090    86A      0.270547    87A      0.279633  
      88A      0.288170    89A      0.292698    90A      0.296752  
      91A      0.301170    92A      0.305675    93A      0.310163  
      94A      0.311385    95A      0.315047    96A      0.315917  
      97A      0.321464    98A      0.324692    99A      0.329317  
     100A      0.336067   101A      0.337019   102A      0.344292  
     103A      0.348400   104A      0.351935   105A      0.354990  
     106A      0.358588   107A      0.361435   108A      0.367817  
     109A      0.368389   110A      0.371329   111A      0.375911  
     112A      0.378043   113A      0.382127   114A      0.387550  
     115A      0.392716   116A      0.396144   117A      0.398586  
     118A      0.402616   119A      0.409011   120A      0.412544  
     121A      0.418160   122A      0.423488   123A      0.426457  
     124A      0.429753   125A      0.431835   126A      0.435613  
     127A      0.442108   128A      0.443885   129A      0.450843  
     130A      0.454551   131A      0.458459   132A      0.460184  
     133A      0.468447   134A      0.471665   135A      0.473309  
     136A      0.475301   137A      0.477173   138A      0.481828  
     139A      0.487469   140A      0.489005   141A      0.494201  
     142A      0.495638   143A      0.498502   144A      0.504341  
     145A      0.507443   146A      0.511520   147A      0.514593  
     148A      0.521155   149A      0.526186   150A      0.530182  
     151A      0.532445   152A      0.542839   153A      0.545218  
     154A      0.548349   155A      0.550637   156A      0.552420  
     157A      0.556681   158A      0.563176   159A      0.568363  
     160A      0.573223   161A      0.573829   162A      0.580322  
     163A      0.581507   164A      0.588097   165A      0.590153  
     166A      0.594344   167A      0.597508   168A      0.606487  
     169A      0.610947   170A      0.614403   171A      0.623497  
     172A      0.627607   173A      0.635097   174A      0.638243  
     175A      0.640840   176A      0.648260   177A      0.652255  
     178A      0.655258   179A      0.656739   180A      0.662421  
     181A      0.664368   182A      0.673140   183A      0.683284  
     184A      0.687067   185A      0.691297   186A      0.694051  
     187A      0.707049   188A      0.714303   189A      0.717131  
     190A      0.720798   191A      0.729296   192A      0.730400  
     193A      0.738610   194A      0.741878   195A      0.744484  
     196A      0.748338   197A      0.761430   198A      0.773834  
     199A      0.780913   200A      0.784421   201A      0.809243  
     202A      0.815857   203A      0.822471   204A      0.823183  
     205A      0.837906   206A      0.839773   207A      0.847030  
     208A      0.853169   209A      0.859173   210A      0.863341  
     211A      0.865991   212A      0.873398   213A      0.875777  
     214A      0.881762   215A      0.889099   216A      0.892089  
     217A      0.901891   218A      0.906736   219A      0.907251  
     220A      0.911781   221A      0.916929   222A      0.922625  
     223A      0.924850   224A      0.930017   225A      0.941691  
     226A      0.943311   227A      0.947864   228A      0.954037  
     229A      0.956886   230A      0.962757   231A      0.970760  
     232A      0.974650   233A      0.979495   234A      0.986332  
     235A      0.988270   236A      0.991364   237A      0.998530  
     238A      1.006071   239A      1.012404   240A      1.015844  
     241A      1.024105   242A      1.026911   243A      1.032669  
     244A      1.038198   245A      1.042750   246A      1.045386  
     247A      1.049881   248A      1.053761   249A      1.060837  
     250A      1.062665   251A      1.069391   252A      1.073163  
     253A      1.079155   254A      1.085245   255A      1.095236  
     256A      1.101443   257A      1.102413   258A      1.105508  
     259A      1.109854   260A      1.117489   261A      1.123231  
     262A      1.128149   263A      1.134644   264A      1.138184  
     265A      1.142788   266A      1.152041   267A      1.155056  
     268A      1.159580   269A      1.170755   270A      1.174044  
     271A      1.177794   272A      1.181699   273A      1.190479  
     274A      1.195161   275A      1.197511   276A      1.202327  
     277A      1.206591   278A      1.209100   279A      1.215498  
     280A      1.220347   281A      1.230979   282A      1.234295  
     283A      1.240596   284A      1.248586   285A      1.249353  
     286A      1.255211   287A      1.257639   288A      1.264255  
     289A      1.267543   290A      1.274973   291A      1.278900  
     292A      1.286052   293A      1.292956   294A      1.302624  
     295A      1.302858   296A      1.310127   297A      1.315066  
     298A      1.322935   299A      1.332680   300A      1.334528  
     301A      1.338876   302A      1.346626   303A      1.353598  
     304A      1.357580   305A      1.364762   306A      1.377437  
     307A      1.383765   308A      1.390660   309A      1.400360  
     310A      1.406762   311A      1.415325   312A      1.420583  
     313A      1.425404   314A      1.432681   315A      1.440924  
     316A      1.449079   317A      1.452578   318A      1.464884  
     319A      1.474125   320A      1.483449   321A      1.487220  
     322A      1.495995   323A      1.504781   324A      1.512002  
     325A      1.513418   326A      1.520795   327A      1.525450  
     328A      1.529867   329A      1.545173   330A      1.547293  
     331A      1.556497   332A      1.560968   333A      1.567930  
     334A      1.578538   335A      1.585159   336A      1.594881  
     337A      1.596505   338A      1.610698   339A      1.612377  
     340A      1.617387   341A      1.630480   342A      1.641482  
     343A      1.644651   344A      1.648599   345A      1.656793  
     346A      1.663851   347A      1.673870   348A      1.678093  
     349A      1.684155   350A      1.690643   351A      1.695899  
     352A      1.707811   353A      1.715684   354A      1.719634  
     355A      1.720625   356A      1.727998   357A      1.737082  
     358A      1.739310   359A      1.743992   360A      1.749387  
     361A      1.753729   362A      1.758246   363A      1.759929  
     364A      1.767099   365A      1.779894   366A      1.781031  
     367A      1.787505   368A      1.793440   369A      1.800977  
     370A      1.806118   371A      1.809851   372A      1.812958  
     373A      1.820635   374A      1.823780   375A      1.829665  
     376A      1.834552   377A      1.851848   378A      1.857593  
     379A      1.866273   380A      1.872737   381A      1.882506  
     382A      1.884119   383A      1.893170   384A      1.900614  
     385A      1.904650   386A      1.914546   387A      1.916989  
     388A      1.931426   389A      1.935865   390A      1.943320  
     391A      1.946831   392A      1.951935   393A      1.959125  
     394A      1.967305   395A      1.969768   396A      1.972256  
     397A      1.974785   398A      1.988806   399A      1.995958  
     400A      2.000117   401A      2.009309   402A      2.013870  
     403A      2.024240   404A      2.027521   405A      2.035841  
     406A      2.039551   407A      2.040659   408A      2.055135  
     409A      2.058470   410A      2.062665   411A      2.071712  
     412A      2.078317   413A      2.084700   414A      2.090655  
     415A      2.091326   416A      2.102139   417A      2.106912  
     418A      2.113258   419A      2.118343   420A      2.132487  
     421A      2.138906   422A      2.158048   423A      2.171050  
     424A      2.180124   425A      2.191860   426A      2.202470  
     427A      2.212589   428A      2.224284   429A      2.228689  
     430A      2.234398   431A      2.238318   432A      2.262673  
     433A      2.264743   434A      2.267522   435A      2.280714  
     436A      2.285569   437A      2.290990   438A      2.310285  
     439A      2.312377   440A      2.317465   441A      2.321316  
     442A      2.332909   443A      2.336654   444A      2.344730  
     445A      2.354702   446A      2.358841   447A      2.365199  
     448A      2.381424   449A      2.389185   450A      2.398388  
     451A      2.414408   452A      2.415440   453A      2.429188  
     454A      2.436261   455A      2.450085   456A      2.458614  
     457A      2.464038   458A      2.471027   459A      2.479470  
     460A      2.490935   461A      2.500767   462A      2.516924  
     463A      2.527218   464A      2.536829   465A      2.542737  
     466A      2.554475   467A      2.572648   468A      2.584500  
     469A      2.590948   470A      2.614416   471A      2.619396  
     472A      2.632151   473A      2.635386   474A      2.667265  
     475A      2.673663   476A      2.692092   477A      2.701653  
     478A      2.741043   479A      2.752802   480A      2.762830  
     481A      2.795898   482A      2.815766   483A      2.828385  
     484A      2.884604   485A      2.956783   486A      2.967971  
     487A      3.006641   488A      3.025321   489A      3.058316  
     490A      3.157667   491A      3.202482   492A      3.223008  
     493A      3.299226   494A      3.347603   495A      3.385146  
     496A      3.413998   497A      3.432201   498A      3.447268  
     499A      3.477559   500A      3.481644   501A      3.484411  
     502A      3.497106   503A      3.511230   504A      3.517889  
     505A      3.541247   506A      3.551870   507A      3.572103  
     508A      3.581434   509A      3.586394   510A      3.605113  
     511A      3.607803   512A      3.612923   513A      3.618947  
     514A      3.649519   515A      3.657744   516A      3.671322  
     517A      3.681606   518A      3.686788   519A      3.697858  
     520A      3.705545   521A      3.719436   522A      3.725130  
     523A      3.733716   524A      3.741367   525A      3.744566  
     526A      3.750394   527A      3.761842   528A      3.769161  
     529A      3.782493   530A      3.791962   531A      3.801374  
     532A      3.808850   533A      3.812005   534A      3.816365  
     535A      3.822947   536A      3.832003   537A      3.844487  
     538A      3.853644   539A      3.860562   540A      3.874559  
     541A      3.881680   542A      3.889423   543A      3.898164  
     544A      3.914868   545A      3.916817   546A      3.924971  
     547A      3.934232   548A      3.938554   549A      3.950087  
     550A      3.956733   551A      3.963349   552A      3.968087  
     553A      3.978966   554A      3.980150   555A      3.983234  
     556A      3.993963   557A      4.002332   558A      4.017390  
     559A      4.019100   560A      4.024817   561A      4.030623  
     562A      4.044780   563A      4.047477   564A      4.056317  
     565A      4.064241   566A      4.072341   567A      4.081423  
     568A      4.090398   569A      4.093959   570A      4.100126  
     571A      4.104635   572A      4.115845   573A      4.118588  
     574A      4.125737   575A      4.130757   576A      4.143913  
     577A      4.155946   578A      4.159396   579A      4.176113  
     580A      4.180079   581A      4.187441   582A      4.210011  
     583A      4.215893   584A      4.230197   585A      4.237295  
     586A      4.239808   587A      4.249103   588A      4.254775  
     589A      4.271125   590A      4.278239   591A      4.284127  
     592A      4.297164   593A      4.300600   594A      4.318796  
     595A      4.329873   596A      4.340448   597A      4.340947  
     598A      4.367848   599A      4.382505   600A      4.394994  
     601A      4.401784   602A      4.411064   603A      4.425430  
     604A      4.433325   605A      4.443924   606A      4.452515  
     607A      4.465756   608A      4.474461   609A      4.497979  
     610A      4.507437   611A      4.520197   612A      4.528614  
     613A      4.539092   614A      4.544644   615A      4.554538  
     616A      4.567694   617A      4.592139   618A      4.600442  
     619A      4.612238   620A      4.616401   621A      4.627100  
     622A      4.644051   623A      4.661913   624A      4.676920  
     625A      4.688103   626A      4.700267   627A      4.714288  
     628A      4.720053   629A      4.727429   630A      4.747203  
     631A      4.761113   632A      4.769927   633A      4.771650  
     634A      4.786900   635A      4.791272   636A      4.805439  
     637A      4.821373   638A      4.828490   639A      4.831887  
     640A      4.848903   641A      4.863578   642A      4.881083  
     643A      4.896063   644A      4.901745   645A      4.909793  
     646A      4.916173   647A      4.925831   648A      4.943416  
     649A      4.947434   650A      4.955901   651A      4.963332  
     652A      4.978028   653A      4.982174   654A      4.995018  
     655A      5.002134   656A      5.010886   657A      5.030723  
     658A      5.049346   659A      5.058021   660A      5.080317  
     661A      5.085681   662A      5.109307   663A      5.117278  
     664A      5.124902   665A      5.131961   666A      5.149668  
     667A      5.153463   668A      5.165672   669A      5.186566  
     670A      5.189034   671A      5.197272   672A      5.207142  
     673A      5.222076   674A      5.233246   675A      5.238990  
     676A      5.254142   677A      5.275999   678A      5.285197  
     679A      5.290134   680A      5.301089   681A      5.314214  
     682A      5.325498   683A      5.339001   684A      5.352410  
     685A      5.354853   686A      5.361549   687A      5.373021  
     688A      5.392007   689A      5.407008   690A      5.408695  
     691A      5.415391   692A      5.431390   693A      5.444355  
     694A      5.454046   695A      5.469504   696A      5.479644  
     697A      5.495046   698A      5.498625   699A      5.508024  
     700A      5.518370   701A      5.531770   702A      5.548983  
     703A      5.554260   704A      5.573983   705A      5.581418  
     706A      5.607498   707A      5.617259   708A      5.627646  
     709A      5.637207   710A      5.643019   711A      5.656335  
     712A      5.661733   713A      5.674659   714A      5.678917  
     715A      5.694213   716A      5.707307   717A      5.717089  
     718A      5.730950   719A      5.747177   720A      5.753211  
     721A      5.759878   722A      5.786497   723A      5.803762  
     724A      5.815584   725A      5.845104   726A      5.852765  
     727A      5.870176   728A      5.885927   729A      5.896667  
     730A      5.932185   731A      5.950660   732A      5.978032  
     733A      5.987606   734A      6.012170   735A      6.045583  
     736A      6.060194   737A      6.073880   738A      6.091939  
     739A      6.111297   740A      6.127534   741A      6.148532  
     742A      6.172579   743A      6.195308   744A      6.226135  
     745A      6.245796   746A      6.252623   747A      6.265239  
     748A      6.291277   749A      6.302893   750A      6.319672  
     751A      6.324006   752A      6.348826   753A      6.371775  
     754A      6.374654   755A      6.391242   756A      6.417436  
     757A      6.429436   758A      6.474992   759A      6.618568  
     760A      6.625099   761A      6.643538   762A      6.691317  
     763A      6.760235   764A      6.780488   765A      6.802665  
     766A      6.814122   767A      6.933477   768A      6.944176  
     769A      6.975021   770A      6.981836   771A      7.006649  
     772A      7.037725   773A      7.060923   774A      7.154501  
     775A     18.058842   776A     18.131878   777A     18.499352  
     778A     18.683899   779A     18.915610   780A     19.243497  
     781A     19.770481   782A     19.871167  

    Final Occupation by Irrep:
              A 
    DOCC [    33 ]

  Energy converged.

  @DF-RHF Final Energy:  -313.53857998452901

   => Energetics <=

    Nuclear Repulsion Energy =            397.2362562251101394
    One-Electron Energy =               -1209.5950737508519524
    Two-Electron Energy =                 498.8202375412128617
    DFT Exchange-Correlation Energy =       0.0000000000000000
    Empirical Dispersion Energy =           0.0000000000000000
    PCM Polarization Energy =               0.0000000000000000
    EFP Energy =                            0.0000000000000000
    Total Energy =                       -313.5385799845290080


  Saving occupied orbitals to File 180.

*** tstop() called on wr42 at Tue Sep 20 19:40:58 2016
Module time:
	user time   =     797.81 seconds =      13.30 minutes
	system time =       9.43 seconds =       0.16 minutes
	total time  =         78 seconds =       1.30 minutes
Total time:
	user time   =     797.81 seconds =      13.30 minutes
	system time =       9.43 seconds =       0.16 minutes
	total time  =         78 seconds =       1.30 minutes


Properties will be evaluated at   0.000000,   0.000000,   0.000000 Bohr

Properties computed using the SCF density matrix

  Nuclear Dipole Moment: (a.u.)
     X:    -0.6030      Y:     2.2797      Z:     0.0012

  Electronic Dipole Moment: (a.u.)
     X:     0.6231      Y:    -2.3151      Z:     0.0043

  Dipole Moment: (a.u.)
     X:     0.0201      Y:    -0.0354      Z:     0.0055     Total:     0.0411

  Dipole Moment: (Debye)
     X:     0.0512      Y:    -0.0899      Z:     0.0140     Total:     0.1044


  //>>>>>>>>>>>>>>>>>>>>>>>>>>>>>>>>>>>//
  //               DFMP2               //
  //<<<<<<<<<<<<<<<<<<<<<<<<<<<<<<<<<<<//


*** tstart() called on wr42
*** at Tue Sep 20 19:40:58 2016


*** tstop() called on wr42 at Tue Sep 20 19:40:58 2016
Module time:
	user time   =       4.63 seconds =       0.08 minutes
	system time =       0.16 seconds =       0.00 minutes
	total time  =          0 seconds =       0.00 minutes
Total time:
	user time   =     802.56 seconds =      13.38 minutes
	system time =       9.59 seconds =       0.16 minutes
	total time  =         78 seconds =       1.30 minutes
	 --------------------------------------------------------
	                          DF-MP2                         
	      2nd-Order Density-Fitted Moller-Plesset Theory     
	              RMP2 Wavefunction,  12 Threads             
	                                                         
	        Rob Parrish, Justin Turney, Andy Simmonett,      
	           Ed Hohenstein, and C. David Sherrill          
	 --------------------------------------------------------

   => Auxiliary Basis Set <=

  Basis Set: 
    Number of shells: 476
    Number of basis function: 1676
    Number of Cartesian functions: 2078
    Spherical Harmonics?: true
    Max angular momentum: 4

	 --------------------------------------------------------
	                 NBF =   782, NAUX =  1676
	 --------------------------------------------------------
	   CLASS    FOCC     OCC    AOCC    AVIR     VIR    FVIR
	   PAIRS       8      33      25     749     749       0
	 --------------------------------------------------------

DGAS Warning! /src/lib/libfock/apps.cc:80 is not currently checking restricted

         ------------------------------------------------------------
                                     CPHF                           
                                  Rob Parrish                       
         ------------------------------------------------------------

  ==> Geometry <==

    Molecular point group: c1
    Full point group: C1

    Geometry (in Angstrom), charge = 0, multiplicity = 1:

       Center              X                  Y                   Z               Mass       
    ------------   -----------------  -----------------  -----------------  -----------------
           C          2.134838494151     1.623987565098    -0.214607204767    12.000000000000
           H          1.763871533404     1.952683630957     0.755015616366     1.007825032070
           H          1.281291921109     1.516809294680    -0.880223486585     1.007825032070
           H          2.767815175715     2.412680114890    -0.615918440582     1.007825032070
           C         -2.924845339006     1.287764297311     0.254121419875    12.000000000000
           H         -3.894831738523     1.641049036179     0.596912096764     1.007825032070
           H         -2.684198444188     1.812960131943    -0.669464475991     1.007825032070
           H         -2.187942875535     1.571887941039     1.000915194270     1.007825032070
           C          2.904447704342     0.321227336220    -0.087166659129    12.000000000000
           H          3.799003773056     0.489835301963     0.513153605442     1.007825032070
           H          3.248108683792     0.009838889566    -1.075246252227     1.007825032070
           C         -2.934493037624    -0.213901120070     0.026920398585    12.000000000000
           H         -3.122588791617    -0.725380184411     0.972624359259     1.007825032070
           H         -3.760211878291    -0.472871093953    -0.636161587677     1.007825032070
           C          2.103181847880    -0.817692134105     0.526228850491    12.000000000000
           H          1.836422409392    -0.557416823360     1.553426471771     1.007825032070
           H          2.747147858315    -1.694933979027     0.587606079575     1.007825032070
           C          0.830728771034    -1.162082040722    -0.247542864978    12.000000000000
           H          0.678022026100    -2.242151114177    -0.252949587120     1.007825032070
           H          0.952911133262    -0.867944234660    -1.293580534007     1.007825032070
           C         -0.422506176632    -0.507723917301     0.310604884588    12.000000000000
           H         -0.616275585810    -0.911630237486     1.307948789363     1.007825032070
           H         -0.249910916520     0.559223609336     0.438665788596     1.007825032070
           C         -1.637334956507    -0.735813509350    -0.568667646872    12.000000000000
           H         -1.468614649820    -0.256972112342    -1.536947762960     1.007825032070
           H         -1.733194461847    -1.805894602276    -0.764480146877     1.007825032070

  Nuclear repulsion =  397.236256225110139
  Reference energy  = -313.538579984529008

  ==> Basis Set <==

  Basis Set: AUG-CC-PVTZ
    Number of shells: 274
    Number of basis function: 782
    Number of Cartesian functions: 890
    Spherical Harmonics?: true
    Max angular momentum: 3

  ==> CGRSolver (by Rob Parrish) <==

   Number of roots    =         1
   Preconditioning    =    JACOBI
   Convergence cutoff =     1E-06
   Maximum iterations =       100

  ==> CPHFRHamiltonian (by Rob Parrish) <== 

  ==> DFJK: Density-Fitted J/K Matrices <==

    J tasked:                  Yes
    K tasked:                  Yes
    wK tasked:                  No
    OpenMP threads:             12
    Integrals threads:          12
    Memory (MB):             21457
    Algorithm:                Core
    Integral Cache:           NONE
    Schwarz Cutoff:          1E-12
    Fitting Condition:       1E-12

   => Auxiliary Basis Set <=

  Basis Set: 
    Number of shells: 492
    Number of basis function: 1660
    Number of Cartesian functions: 2038
    Spherical Harmonics?: true
    Max angular momentum: 4

  ==> CPHF Iterations <==

  => Iterations <=

             Iter  Converged  Remaining    Residual
  CGR           1          0          1   9.194E-02
  CGR           2          0          1   1.303E-02
  CGR           3          0          1   3.404E-03
  CGR           4          0          1   7.670E-04
  CGR           5          0          1   1.906E-04
  CGR           6          0          1   4.461E-05
  CGR           7          0          1   1.128E-05
  CGR           8          0          1   3.029E-06
  CGR           9          1          0   8.019E-07

    CGRSolver converged.

  ==> DFCorrGrad: Density-Fitted Correlated Gradients <==

    OpenMP threads:             12
    Integrals threads:          12
    Memory (MB):             21457
    Schwarz Cutoff:          0E+00
    Fitting Condition:       1E-12

   => Auxiliary Basis Set <=

  Basis Set: 
    Number of shells: 492
    Number of basis function: 1660
    Number of Cartesian functions: 2038
    Spherical Harmonics?: true
    Max angular momentum: 4

	-----------------------------------------------------------
	 ==================> DF-MP2 Energies <==================== 
	-----------------------------------------------------------
	 Reference Energy          =    -313.5385799845290080 [Eh]
	 Singles Energy            =      -0.0000000000000001 [Eh]
	 Same-Spin Energy          =      -0.3167176452794636 [Eh]
	 Opposite-Spin Energy      =      -1.1252517466007146 [Eh]
	 Correlation Energy        =      -1.4419693918801781 [Eh]
	 Total Energy              =    -314.9805493764091580 [Eh]
	-----------------------------------------------------------
	 ================> DF-SCS-MP2 Energies <================== 
	-----------------------------------------------------------
	 SCS Same-Spin Scale       =       0.3333333333333333 [-]
	 SCS Opposite-Spin Scale   =       1.2000000000000000 [-]
	 SCS Same-Spin Energy      =      -0.1055725484264878 [Eh]
	 SCS Opposite-Spin Energy  =      -1.3503020959208574 [Eh]
	 SCS Correlation Energy    =      -1.4558746443473451 [Eh]
	 SCS Total Energy          =    -314.9944546288763263 [Eh]
	-----------------------------------------------------------


  -Total Gradient:
     Atom            X                  Y                   Z
    ------   -----------------  -----------------  -----------------
       1        0.000395513403    -0.001588485074     0.000094241302
       2        0.000562665837    -0.000670490354    -0.001281900166
       3        0.001318884035    -0.000142955099     0.001007717955
       4       -0.000671038472    -0.001039156699     0.000489151805
       5        0.000380452322    -0.001578966131    -0.000187699619
       6        0.001144247958    -0.000577971336    -0.000426730905
       7       -0.000282900597    -0.000947243683     0.001140201862
       8       -0.001007208887    -0.000763059584    -0.001021080245
       9       -0.002024715464     0.000033032933     0.000725737910
      10       -0.001330109980    -0.000148350096    -0.000589425443
      11       -0.000740221034     0.000286945750     0.001270424420
      12        0.001774298098     0.001157133954    -0.000600035420
      13        0.000559585596     0.000738252160    -0.001151856299
      14        0.001196645770     0.000393217085     0.000651377467
      15       -0.000338774574     0.001100697538    -0.001745883328
      16        0.000133580413     0.000104982044    -0.001548405834
      17       -0.000907910597     0.000953666559    -0.000306849186
      18       -0.000155604067     0.001160342331     0.001493396231
      19        0.000352522062     0.001316697013     0.000267392565
      20       -0.000333098442     0.000025484083     0.001500336954
      21       -0.000003805893    -0.000686871175    -0.001749686685
      22        0.000233181103     0.000303997147    -0.001446819483
      23       -0.000108425851    -0.001478956477    -0.000432413535
      24       -0.000218622879     0.001100503539     0.001913800782
      25       -0.000152255203    -0.000336657235     0.001422175035
      26        0.000223115344     0.001284210807     0.000512831860


			-----------------------------------------
			 OPTKING 2.0: for geometry optimizations 
			  - R.A. King,  Bethel University        
			-----------------------------------------

	Internal coordinates to be generated automatically.
	Detected frag 1 with atoms:  1 2 3 4 5 6 7 8 9 10 11 12 13 14 15 16 17 18 19 20
	 21 22 23 24 25 26
	---Fragment 1 Bond Connectivity---
	 1 : 2 3 4 9
	 2 : 1
	 3 : 1
	 4 : 1
	 5 : 6 7 8 12
	 6 : 5
	 7 : 5
	 8 : 5
	 9 : 1 10 11 15
	 10 : 9
	 11 : 9
	 12 : 5 13 14 24
	 13 : 12
	 14 : 12
	 15 : 9 16 17 18
	 16 : 15
	 17 : 15
	 18 : 15 19 20 21
	 19 : 18
	 20 : 18
	 21 : 18 22 23 24
	 22 : 21
	 23 : 21
	 24 : 12 21 25 26
	 25 : 24
	 26 : 24

	---Fragment 1 Geometry and Gradient---
	 C           4.0342600919        3.0688917412       -0.4055488432
	 H           3.3332341317        3.6900372867        1.4267727410
	 H           2.4212908272        2.8663541628       -1.6633813254
	 H           5.2304126685        4.5593046634       -1.1639171729
	 C          -5.5271566718        2.4335218456        0.4802198881
	 H          -7.3601653195        3.1011332490        1.1280003883
	 H          -5.0723999458        3.4259981392       -1.2651045153
	 H          -4.1346128292        2.9704377201        1.8914555994
	 C           5.4886107285        0.6070316919       -0.1647211137
	 H           7.1790767089        0.9256545709        0.9697197784
	 H           6.1380358622        0.0185928067       -2.0319209421
	 C          -5.5453881800       -0.4042145364        0.0508721807
	 H          -5.9008376418       -1.3707698908        1.8379936692
	 H          -7.1057706516       -0.8935968637       -1.2021711770
	 C           3.9744377001       -1.5452141945        0.9944284107
	 H           3.4703354180       -1.0533651380        2.9355505992
	 H           5.1913570988       -3.2029610337        1.1104145644
	 C           1.5698498680       -2.1960168009       -0.4677882210
	 H           1.2812759414       -4.2370515543       -0.4780054451
	 H           1.8007410708       -1.6401769021       -2.4445129401
	 C          -0.7984209633       -0.9594591548        0.5869581674
	 H          -1.1645920796       -1.7227314833        2.4716650077
	 H          -0.4722631898        1.0567794687        0.8289582043
	 C          -3.0941146556       -1.3904860175       -1.0746261132
	 H          -2.7752794829       -0.4856069161       -2.9044103525
	 H          -3.2752628679       -3.4126462232       -1.4446581116
	             0.0003955134       -0.0015884851        0.0000942413
	             0.0005626658       -0.0006704904       -0.0012819002
	             0.0013188840       -0.0001429551        0.0010077180
	            -0.0006710385       -0.0010391567        0.0004891518
	             0.0003804523       -0.0015789661       -0.0001876996
	             0.0011442480       -0.0005779713       -0.0004267309
	            -0.0002829006       -0.0009472437        0.0011402019
	            -0.0010072089       -0.0007630596       -0.0010210802
	            -0.0020247155        0.0000330329        0.0007257379
	            -0.0013301100       -0.0001483501       -0.0005894254
	            -0.0007402210        0.0002869457        0.0012704244
	             0.0017742981        0.0011571340       -0.0006000354
	             0.0005595856        0.0007382522       -0.0011518563
	             0.0011966458        0.0003932171        0.0006513775
	            -0.0003387746        0.0011006975       -0.0017458833
	             0.0001335804        0.0001049820       -0.0015484058
	            -0.0009079106        0.0009536666       -0.0003068492
	            -0.0001556041        0.0011603423        0.0014933962
	             0.0003525221        0.0013166970        0.0002673926
	            -0.0003330984        0.0000254841        0.0015003370
	            -0.0000038059       -0.0006868712       -0.0017496867
	             0.0002331811        0.0003039971       -0.0014468195
	            -0.0001084259       -0.0014789565       -0.0004324135
	            -0.0002186229        0.0011005035        0.0019138008
	            -0.0001522552       -0.0003366572        0.0014221750
	             0.0002231153        0.0012842108        0.0005128319

	Previous optimization step data not found.  Starting new optimization.

	---Fragment 1 Intrafragment Coordinates---
	 - Coordinate -           - BOHR/RAD -       - ANG/DEG -
	 R(1,2)           =         2.057829	       1.088956
	 R(1,3)           =         2.055440	       1.087692
	 R(1,4)           =         2.056024	       1.088001
	 R(1,9)           =         2.869475	       1.518461
	 R(5,6)           =         2.055540	       1.087745
	 R(5,7)           =         2.058633	       1.089382
	 R(5,8)           =         2.054031	       1.086946
	 R(5,12)          =         2.870091	       1.518786
	 R(9,10)          =         2.060619	       1.090433
	 R(9,11)          =         2.062631	       1.091498
	 R(9,15)          =         2.875502	       1.521650
	 R(12,13)         =         2.062614	       1.091488
	 R(12,14)         =         2.060196	       1.090209
	 R(12,24)         =         2.871971	       1.519782
	 R(15,16)         =         2.064943	       1.092721
	 R(15,17)         =         2.059726	       1.089960
	 R(15,18)         =         2.888540	       1.528550
	 R(18,19)         =         2.061359	       1.090824
	 R(18,20)         =         2.066328	       1.093453
	 R(18,21)         =         2.872329	       1.519971
	 R(21,22)         =         2.066104	       1.093335
	 R(21,23)         =         2.056736	       1.088378
	 R(21,24)         =         2.866506	       1.516890
	 R(24,25)         =         2.066052	       1.093308
	 R(24,26)         =         2.063703	       1.092065
	 B(1,9,10)        =         1.906397	     109.228484
	 B(1,9,11)        =         1.905366	     109.169449
	 B(1,9,15)        =         1.992262	     114.148210
	 B(2,1,3)         =         1.883157	     107.896947
	 B(2,1,4)         =         1.883691	     107.927553
	 B(2,1,9)         =         1.935740	     110.909746
	 B(3,1,4)         =         1.877849	     107.592835
	 B(3,1,9)         =         1.943945	     111.379851
	 B(4,1,9)         =         1.936940	     110.978489
	 B(5,12,13)       =         1.912195	     109.560729
	 B(5,12,14)       =         1.907800	     109.308861
	 B(5,12,24)       =         1.974410	     113.125354
	 B(6,5,7)         =         1.883449	     107.913667
	 B(6,5,8)         =         1.878788	     107.646614
	 B(6,5,12)        =         1.941856	     111.260163
	 B(7,5,8)         =         1.882530	     107.861030
	 B(7,5,12)        =         1.929698	     110.563564
	 B(8,5,12)        =         1.945004	     111.440540
	 B(9,15,16)       =         1.906264	     109.220864
	 B(9,15,17)       =         1.890192	     108.300004
	 B(9,15,18)       =         1.985510	     113.761356
	 B(10,9,11)       =         1.858956	     106.510361
	 B(10,9,15)       =         1.902647	     109.013628
	 B(11,9,15)       =         1.893553	     108.492614
	 B(12,24,21)      =         1.987507	     113.875764
	 B(12,24,25)      =         1.905389	     109.170733
	 B(12,24,26)      =         1.909058	     109.380948
	 B(13,12,14)      =         1.859953	     106.567468
	 B(13,12,24)      =         1.902557	     109.008487
	 B(14,12,24)      =         1.903416	     109.057701
	 B(15,18,19)      =         1.919979	     110.006706
	 B(15,18,20)      =         1.907774	     109.307407
	 B(15,18,21)      =         1.986125	     113.796553
	 B(16,15,17)      =         1.857719	     106.439470
	 B(16,15,18)      =         1.903184	     109.044429
	 B(17,15,18)      =         1.916651	     109.816021
	 B(18,21,22)      =         1.898697	     108.787299
	 B(18,21,23)      =         1.911856	     109.541262
	 B(18,21,24)      =         1.963554	     112.503336
	 B(19,18,20)      =         1.851725	     106.096010
	 B(19,18,21)      =         1.888786	     108.219440
	 B(20,18,21)      =         1.904570	     109.123843
	 B(21,24,25)      =         1.900666	     108.900132
	 B(21,24,26)      =         1.898187	     108.758109
	 B(22,21,23)      =         1.857639	     106.434852
	 B(22,21,24)      =         1.908454	     109.346342
	 B(23,21,24)      =         1.920491	     110.036052
	 B(25,24,26)      =         1.858660	     106.493367
	 D(1,9,15,16)     =        -1.109043	     -63.543476
	 D(1,9,15,17)     =        -3.125415	    -179.073088
	 D(1,9,15,18)     =         1.021605	      58.533643
	 D(2,1,9,10)      =        -1.131730	     -64.843344
	 D(2,1,9,11)      =         3.125169	     179.058987
	 D(2,1,9,15)      =         1.002992	      57.467196
	 D(3,1,9,10)      =         3.053762	     174.967660
	 D(3,1,9,11)      =         1.027475	      58.869991
	 D(3,1,9,15)      =        -1.094702	     -62.721800
	 D(4,1,9,10)      =         0.961974	      55.117033
	 D(4,1,9,11)      =        -1.064313	     -60.980636
	 D(4,1,9,15)      =         3.096695	     177.427573
	 D(5,12,24,21)    =         1.075851	      61.641743
	 D(5,12,24,25)    =        -1.052270	     -60.290653
	 D(5,12,24,26)    =        -3.079702	    -176.453919
	 D(6,5,12,13)     =        -1.103069	     -63.201220
	 D(6,5,12,14)     =         0.929052	      53.230760
	 D(6,5,12,24)     =         3.053550	     174.955522
	 D(7,5,12,13)     =         3.087486	     176.899937
	 D(7,5,12,14)     =        -1.163578	     -66.668083
	 D(7,5,12,24)     =         0.960920	      55.056679
	 D(8,5,12,13)     =         0.993943	      56.948711
	 D(8,5,12,14)     =         3.026064	     173.380691
	 D(8,5,12,24)     =        -1.132624	     -64.894547
	 D(9,15,18,19)    =         2.473233	     141.705811
	 D(9,15,18,20)    =         0.446619	      25.589390
	 D(9,15,18,21)    =        -1.687362	     -96.678729
	 D(10,9,15,16)    =         1.027730	      58.884580
	 D(10,9,15,17)    =        -0.988642	     -56.645033
	 D(10,9,15,18)    =        -3.124808	    -179.038302
	 D(11,9,15,16)    =         3.045462	     174.492133
	 D(11,9,15,17)    =         1.029090	      58.962521
	 D(11,9,15,18)    =        -1.107075	     -63.430748
	 D(12,24,21,18)   =         3.041468	     174.263263
	 D(12,24,21,22)   =         0.929760	      53.271350
	 D(12,24,21,23)   =        -1.104686	     -63.293827
	 D(13,12,24,21)   =        -1.056112	     -60.510768
	 D(13,12,24,25)   =         3.098951	     177.556837
	 D(13,12,24,26)   =         1.071520	      61.393570
	 D(14,12,24,21)   =        -3.080376	    -176.492538
	 D(14,12,24,25)   =         1.074688	      61.575066
	 D(14,12,24,26)   =        -0.952744	     -54.588200
	 D(15,18,21,22)   =        -1.141000	     -65.374486
	 D(15,18,21,23)   =         0.883005	      50.592470
	 D(15,18,21,24)   =         3.024899	     173.313942
	 D(16,15,18,19)   =        -1.677603	     -96.119593
	 D(16,15,18,20)   =         2.578968	     147.763986
	 D(16,15,18,21)   =         0.444987	      25.495867
	 D(17,15,18,19)   =         0.351711	      20.151565
	 D(17,15,18,20)   =        -1.674903	     -95.964856
	 D(17,15,18,21)   =         2.474301	     141.767025
	 D(18,21,24,25)   =        -1.110989	     -63.654971
	 D(18,21,24,26)   =         0.907840	      52.015377
	 D(19,18,21,22)   =         0.998817	      57.228019
	 D(19,18,21,23)   =         3.022823	     173.194975
	 D(19,18,21,24)   =        -1.118469	     -64.083553
	 D(20,18,21,22)   =         3.006439	     172.256262
	 D(20,18,21,23)   =        -1.252741	     -71.776782
	 D(20,18,21,24)   =         0.889153	      50.944690
	 D(22,21,24,25)   =         3.060489	     175.353116
	 D(22,21,24,26)   =        -1.203868	     -68.976536
	 D(23,21,24,25)   =         1.026043	      58.787940
	 D(23,21,24,26)   =         3.044872	     174.458287
	 R(1,21)          =         6.369261	       3.370468

	Current energy   :      -314.9805493764

	Generating empirical Hessian (Schlegel '84) for each fragment.
	Taking RFO optimization step.
	Going to follow RFO solution 1.
	Using RFO vector 1.
	Norm of target step-size    0.16101
	Projected energy change by RFO approximation:        -0.0012050588

	Back-transformation to cartesian coordinates...
	Successfully converged to displaced geometry.

	--- Internal Coordinate Step in ANG or DEG, aJ/ANG or AJ/DEG ---
	 ---------------------------------------------------------------------------
	   Coordinate                Previous        Force       Change         New 
	   ----------                --------       ------       ------       ------
	    1 R(1,2)          =      1.088956     0.012650     0.002322     1.091278
	    2 R(1,3)          =      1.087692     0.013491     0.002466     1.090158
	    3 R(1,4)          =      1.088001     0.010909     0.001996     1.089997
	    4 R(1,9)          =      1.518461     0.029854     0.006487     1.524948
	    5 R(5,6)          =      1.087745     0.011061     0.002022     1.089767
	    6 R(5,7)          =      1.089382     0.012241     0.002250     1.091632
	    7 R(5,8)          =      1.086946     0.013049     0.002379     1.089326
	    8 R(5,12)         =      1.518786     0.032100     0.006750     1.525537
	    9 R(9,10)         =      1.090433     0.011852     0.002186     1.092619
	   10 R(9,11)         =      1.091498     0.012069     0.002234     1.093732
	   11 R(9,15)         =      1.521650     0.029063     0.007361     1.529011
	   12 R(12,13)        =      1.091488     0.011867     0.002197     1.093685
	   13 R(12,14)        =      1.090209     0.011501     0.002120     1.092328
	   14 R(12,24)        =      1.519782     0.036094     0.007614     1.527396
	   15 R(15,16)        =      1.092721     0.012055     0.002240     1.094961
	   16 R(15,17)        =      1.089960     0.010885     0.002005     1.091965
	   17 R(15,18)        =      1.528550     0.028984     0.007192     1.535742
	   18 R(18,19)        =      1.090824     0.011158     0.002061     1.092885
	   19 R(18,20)        =      1.093453     0.012075     0.002250     1.095703
	   20 R(18,21)        =      1.519971     0.031162     0.007100     1.527071
	   21 R(21,22)        =      1.093335     0.012139     0.002261     1.095596
	   22 R(21,23)        =      1.088378     0.012506     0.002291     1.090669
	   23 R(21,24)        =      1.516890     0.035209     0.007360     1.524249
	   24 R(24,25)        =      1.093308     0.011785     0.002195     1.095502
	   25 R(24,26)        =      1.092065     0.011286     0.002093     1.094158
	   26 B(1,9,10)       =    109.228484     0.000029    -0.065850   109.162634
	   27 B(1,9,11)       =    109.169449     0.000020     0.030999   109.200448
	   28 B(1,9,15)       =    114.148210    -0.000080     0.164077   114.312288
	   29 B(2,1,3)        =    107.896947    -0.000018    -0.035448   107.861499
	   30 B(2,1,4)        =    107.927553    -0.000014    -0.112441   107.815112
	   31 B(2,1,9)        =    110.909746     0.000017     0.091304   111.001050
	   32 B(3,1,4)        =    107.592835    -0.000018    -0.126665   107.466170
	   33 B(3,1,9)        =    111.379851     0.000028     0.142305   111.522157
	   34 B(4,1,9)        =    110.978489     0.000003     0.025173   111.003662
	   35 B(5,12,13)      =    109.560729    -0.000004     0.074017   109.634746
	   36 B(5,12,14)      =    109.308861    -0.000020    -0.127643   109.181218
	   37 B(5,12,24)      =    113.125354     0.000037     0.181922   113.307275
	   38 B(6,5,7)        =    107.913667    -0.000016    -0.115849   107.797818
	   39 B(6,5,8)        =    107.646614    -0.000019    -0.109358   107.537256
	   40 B(6,5,12)       =    111.260163     0.000005     0.019150   111.279313
	   41 B(7,5,8)        =    107.861030    -0.000025    -0.101013   107.760018
	   42 B(7,5,12)       =    110.563564     0.000019     0.102310   110.665875
	   43 B(8,5,12)       =    111.440540     0.000033     0.186299   111.626839
	   44 B(9,15,16)      =    109.220864     0.000016     0.121179   109.342043
	   45 B(9,15,17)      =    108.300004     0.000029    -0.125851   108.174152
	   46 B(9,15,18)      =    113.761356    -0.000072     0.174033   113.935388
	   47 B(10,9,11)      =    106.510361    -0.000023    -0.177964   106.332397
	   48 B(10,9,15)      =    109.013628     0.000025    -0.066809   108.946819
	   49 B(11,9,15)      =    108.492614     0.000034     0.091610   108.584225
	   50 B(12,24,21)     =    113.875764     0.000032     0.153352   114.029117
	   51 B(12,24,25)     =    109.170733    -0.000010     0.013377   109.184110
	   52 B(12,24,26)     =    109.380948    -0.000012    -0.079101   109.301847
	   53 B(13,12,14)     =    106.567468    -0.000006    -0.188595   106.378873
	   54 B(13,12,24)     =    109.008487    -0.000005     0.082943   109.091431
	   55 B(14,12,24)     =    109.057701    -0.000005    -0.046100   109.011602
	   56 B(15,18,19)     =    110.006706     0.000016    -0.030711   109.975995
	   57 B(15,18,20)     =    109.307407     0.000009     0.033729   109.341136
	   58 B(15,18,21)     =    113.796553    -0.000034     0.164925   113.961478
	   59 B(16,15,17)     =    106.439470    -0.000026    -0.259941   106.179528
	   60 B(16,15,18)     =    109.044429     0.000024     0.124740   109.169169
	   61 B(17,15,18)     =    109.816021     0.000031    -0.065920   109.750101
	   62 B(18,21,22)     =    108.787299     0.000001     0.008535   108.795834
	   63 B(18,21,23)     =    109.541262     0.000001     0.071388   109.612650
	   64 B(18,21,24)     =    112.503336     0.000011     0.074942   112.578278
	   65 B(19,18,20)     =    106.096010    -0.000018    -0.225632   105.870378
	   66 B(19,18,21)     =    108.219440     0.000018    -0.110169   108.109271
	   67 B(20,18,21)     =    109.123843     0.000010     0.139202   109.263045
	   68 B(21,24,25)     =    108.900132     0.000002     0.112268   109.012400
	   69 B(21,24,26)     =    108.758109    -0.000007    -0.024714   108.733395
	   70 B(22,21,23)     =    106.434852    -0.000009    -0.169217   106.265634
	   71 B(22,21,24)     =    109.346342    -0.000007    -0.053920   109.292422
	   72 B(23,21,24)     =    110.036052     0.000001     0.053182   110.089234
	   73 B(25,24,26)     =    106.493367    -0.000007    -0.199667   106.293700
	   74 D(1,9,15,16)    =    -63.543476    -0.000000     0.950853   -62.592623
	   75 D(1,9,15,17)    =   -179.073088     0.000001     1.262947  -177.810141
	   76 D(1,9,15,18)    =     58.533643    -0.000002     1.322986    59.856629
	   77 D(2,1,9,10)     =    -64.843344     0.000001     0.002722   -64.840622
	   78 D(2,1,9,11)     =    179.058987     0.000001     0.235020   179.294008
	   79 D(2,1,9,15)     =     57.467196     0.000001    -0.019358    57.447838
	   80 D(3,1,9,10)     =    174.967660    -0.000001    -0.109954   174.857706
	   81 D(3,1,9,11)     =     58.869991    -0.000000     0.122344    58.992335
	   82 D(3,1,9,15)     =    -62.721800    -0.000001    -0.132034   -62.853834
	   83 D(4,1,9,10)     =     55.117033    -0.000000    -0.061668    55.055365
	   84 D(4,1,9,11)     =    -60.980636     0.000000     0.170630   -60.810006
	   85 D(4,1,9,15)     =    177.427573    -0.000001    -0.083748   177.343825
	   86 D(5,12,24,21)   =     61.641743     0.000003     1.413744    63.055486
	   87 D(5,12,24,25)   =    -60.290653    -0.000000     1.153057   -59.137596
	   88 D(5,12,24,26)   =   -176.453919     0.000004     1.428921  -175.024999
	   89 D(6,5,12,13)    =    -63.201220     0.000003     0.409462   -62.791758
	   90 D(6,5,12,14)    =     53.230760    -0.000002     0.151769    53.382529
	   91 D(6,5,12,24)    =    174.955522    -0.000001     0.123708   175.079230
	   92 D(7,5,12,13)    =    176.899937     0.000004     0.474633   177.374570
	   93 D(7,5,12,14)    =    -66.668083    -0.000001     0.216940   -66.451143
	   94 D(7,5,12,24)    =     55.056679     0.000000     0.188879    55.245558
	   95 D(8,5,12,13)    =     56.948711     0.000003     0.410026    57.358737
	   96 D(8,5,12,14)    =    173.380691    -0.000002     0.152332   173.533024
	   97 D(8,5,12,24)    =    -64.894547    -0.000001     0.124272   -64.770275
	   98 D(9,15,18,19)   =    141.705811     0.000004     1.613370   143.319181
	   99 D(9,15,18,20)   =     25.589390     0.000006     1.883478    27.472868
	  100 D(9,15,18,21)   =    -96.678729     0.000007     1.562866   -95.115863
	  101 D(10,9,15,16)   =     58.884580    -0.000000     0.928956    59.813536
	  102 D(10,9,15,17)   =    -56.645033     0.000001     1.241051   -55.403982
	  103 D(10,9,15,18)   =   -179.038302    -0.000002     1.301089  -177.737212
	  104 D(11,9,15,16)   =    174.492133     0.000000     0.731775   175.223908
	  105 D(11,9,15,17)   =     58.962521     0.000002     1.043869    60.006390
	  106 D(11,9,15,18)   =    -63.430748    -0.000001     1.103908   -62.326840
	  107 D(12,24,21,18)  =    174.263263    -0.000001     0.426307   174.689570
	  108 D(12,24,21,22)  =     53.271350    -0.000002     0.403616    53.674967
	  109 D(12,24,21,23)  =    -63.293827     0.000002     0.609145   -62.684681
	  110 D(13,12,24,21)  =    -60.510768    -0.000000     1.134974   -59.375793
	  111 D(13,12,24,25)  =    177.556837    -0.000004     0.874288   178.431125
	  112 D(13,12,24,26)  =     61.393570     0.000001     1.150151    62.543722
	  113 D(14,12,24,21)  =   -176.492538     0.000003     1.339643  -175.152896
	  114 D(14,12,24,25)  =     61.575066    -0.000001     1.078956    62.654023
	  115 D(14,12,24,26)  =    -54.588200     0.000004     1.354820   -53.233381
	  116 D(15,18,21,22)  =    -65.374486     0.000001     1.578678   -63.795808
	  117 D(15,18,21,23)  =     50.592470    -0.000001     1.420438    52.012908
	  118 D(15,18,21,24)  =    173.313942     0.000001     1.592115   174.906058
	  119 D(16,15,18,19)  =    -96.119593     0.000001     1.982830   -94.136763
	  120 D(16,15,18,20)  =    147.763986     0.000003     2.252938   150.016924
	  121 D(16,15,18,21)  =     25.495867     0.000004     1.932326    27.428193
	  122 D(17,15,18,19)  =     20.151565     0.000001     1.704404    21.855969
	  123 D(17,15,18,20)  =    -95.964856     0.000003     1.974513   -93.990344
	  124 D(17,15,18,21)  =    141.767025     0.000004     1.653901   143.420925
	  125 D(18,21,24,25)  =    -63.654971     0.000002     0.631887   -63.023084
	  126 D(18,21,24,26)  =     52.015377    -0.000001     0.442046    52.457422
	  127 D(19,18,21,22)  =     57.228019     0.000003     1.569162    58.797182
	  128 D(19,18,21,23)  =    173.194975     0.000001     1.410922   174.605897
	  129 D(19,18,21,24)  =    -64.083553     0.000003     1.582599   -62.500953
	  130 D(20,18,21,22)  =    172.256262     0.000002     1.316449   173.572712
	  131 D(20,18,21,23)  =    -71.776782    -0.000000     1.158209   -70.618573
	  132 D(20,18,21,24)  =     50.944690     0.000002     1.329886    52.274577
	  133 D(22,21,24,25)  =    175.353116     0.000001     0.609197   175.962313
	  134 D(22,21,24,26)  =    -68.976536    -0.000002     0.419355   -68.557181
	  135 D(23,21,24,25)  =     58.787940     0.000004     0.814726    59.602665
	  136 D(23,21,24,26)  =    174.458287     0.000001     0.624884   175.083171
	  137 R(1,21)         =      3.370468     0.008117     0.009131     3.379599
	 ---------------------------------------------------------------------------

  ==> Convergence Check <==

  Measures of convergence in internal coordinates in au.
  Criteria marked as inactive (o), active & met (*), and active & unmet ( ).
  --------------------------------------------------------------------------------------------- ~
   Step     Total Energy     Delta E     MAX Force     RMS Force      MAX Disp      RMS Disp    ~
  --------------------------------------------------------------------------------------------- ~
    Convergence Criteria             o    2.00e-06 *    1.00e-06 *    6.00e-06 *    4.00e-06 *  ~
  --------------------------------------------------------------------------------------------- ~
      1    -314.98054938   -3.15e+02 o    4.38e-03      1.05e-03      3.93e-02      1.38e-02    ~
  ---------------------------------------------------------------------------------------------

	Writing optimization data to binary file.
	Structure for next step:
	Cartesian Geometry (in Angstrom)
	    C     2.1593154863   1.6376786040  -0.0990801972
	    H     1.7988170596   1.9297307318   0.8886621636
	    H     1.2976004968   1.5720610923  -0.7635996861
	    H     2.7988890847   2.4382218571  -0.4707918430
	    C    -2.9511313359   1.3109344628   0.1567834574
	    H    -3.9239529782   1.6705245690   0.4913060469
	    H    -2.7214476699   1.8023757388  -0.7905237118
	    H    -2.2118395312   1.6362568367   0.8877028394
	    C     2.9184260212   0.3166404290  -0.0352314370
	    H     3.8213505928   0.4505009473   0.5652889890
	    H     3.2547353699   0.0461005165  -1.0401956641
	    C    -2.9484637086  -0.2055774944  -0.0088877138
	    H    -3.1339280105  -0.6812557162   0.9583143795
	    H    -3.7762723238  -0.4970121209  -0.6592567801
	    C     2.1092182286  -0.8473446375   0.5376530376
	    H     1.8383895994  -0.6248913000   1.5750085350
	    H     2.7558783348  -1.7264965167   0.5738377588
	    C     0.8360348258  -1.1719813687  -0.2574053639
	    H     0.6703976948  -2.2521391316  -0.2722933821
	    H     0.9757569899  -0.8758313587  -1.3030334156
	    C    -0.4241304354  -0.5060434362   0.2907319443
	    H    -0.6205371900  -0.8954902664   1.2957621857
	    H    -0.2516559879   0.5646799639   0.4063258037
	    C    -1.6442466548  -0.7476937132  -0.5903229098
	    H    -1.4713043308  -0.2930852501  -1.5719275407
	    H    -1.7450571482  -1.8233233927  -0.7636405907
			--------------------------
			 OPTKING Finished Execution 
			--------------------------

    Structure for next step:
    Molecular point group: c1
    Full point group: C1

    Geometry (in Angstrom), charge = 0, multiplicity = 1:

    C            2.159218689674     1.638560131683    -0.098536047204
    H            1.798720262988     1.930612259453     0.889206313664
    H            1.297503700195     1.572942619984    -0.763055536116
    H            2.798792288107     2.439103384749    -0.470247693026
    C           -2.951228132561     1.311815990469     0.157327607454
    H           -3.924049774825     1.671406096686     0.491850196968
    H           -2.721544466497     1.803257266493    -0.789979561762
    H           -2.211936327784     1.637138364320     0.888246989444
    C            2.918329224523     0.317521956693    -0.034687287011
    H            3.821253796204     0.451382474955     0.565833138996
    H            3.254638573241     0.046982044119    -1.039651514087
    C           -2.948560505247    -0.204695966770    -0.008343563735
    H           -3.134024807130    -0.680374188562     0.958858529559
    H           -3.776369120431    -0.496130593278    -0.658712630113
    C            2.109121431944    -0.846463109855     0.538197187636
    H            1.838292802760    -0.624009772383     1.575552685016
    H            2.755781538126    -1.725614989040     0.574381908783
    C            0.835938029216    -1.171099841067    -0.256861213827
    H            0.670300898194    -2.251257603992    -0.271749232040
    H            0.975660193311    -0.874949831072    -1.302489265541
    C           -0.424227232004    -0.505161908534     0.291276094327
    H           -0.620633986642    -0.894608738771     1.296306335747
    H           -0.251752784512     0.565561491526     0.406869953709
    C           -1.644343451416    -0.746812185530    -0.589778759729
    H           -1.471401127437    -0.292203722460    -1.571383390641
    H           -1.745153944799    -1.822441865095    -0.763096440687

gradient() will perform analytic gradient computation.

*** tstart() called on wr42
*** at Tue Sep 20 19:45:20 2016


         ---------------------------------------------------------
                                   SCF
            by Justin Turney, Rob Parrish, and Andy Simmonett
                              RHF Reference
                       12 Threads,  30000 MiB Core
         ---------------------------------------------------------

  ==> Geometry <==

    Molecular point group: c1
    Full point group: C1

    Geometry (in Angstrom), charge = 0, multiplicity = 1:

       Center              X                  Y                   Z               Mass       
    ------------   -----------------  -----------------  -----------------  -----------------
           C          2.159218689674     1.638560131683    -0.098536047204    12.000000000000
           H          1.798720262988     1.930612259453     0.889206313664     1.007825032070
           H          1.297503700195     1.572942619984    -0.763055536116     1.007825032070
           H          2.798792288107     2.439103384749    -0.470247693026     1.007825032070
           C         -2.951228132561     1.311815990469     0.157327607454    12.000000000000
           H         -3.924049774825     1.671406096686     0.491850196968     1.007825032070
           H         -2.721544466497     1.803257266493    -0.789979561762     1.007825032070
           H         -2.211936327784     1.637138364320     0.888246989444     1.007825032070
           C          2.918329224523     0.317521956693    -0.034687287011    12.000000000000
           H          3.821253796204     0.451382474955     0.565833138996     1.007825032070
           H          3.254638573241     0.046982044119    -1.039651514087     1.007825032070
           C         -2.948560505247    -0.204695966770    -0.008343563735    12.000000000000
           H         -3.134024807130    -0.680374188562     0.958858529559     1.007825032070
           H         -3.776369120431    -0.496130593278    -0.658712630113     1.007825032070
           C          2.109121431944    -0.846463109855     0.538197187636    12.000000000000
           H          1.838292802760    -0.624009772383     1.575552685016     1.007825032070
           H          2.755781538126    -1.725614989040     0.574381908783     1.007825032070
           C          0.835938029216    -1.171099841067    -0.256861213827    12.000000000000
           H          0.670300898194    -2.251257603992    -0.271749232040     1.007825032070
           H          0.975660193311    -0.874949831072    -1.302489265541     1.007825032070
           C         -0.424227232004    -0.505161908534     0.291276094327    12.000000000000
           H         -0.620633986642    -0.894608738771     1.296306335747     1.007825032070
           H         -0.251752784512     0.565561491526     0.406869953709     1.007825032070
           C         -1.644343451416    -0.746812185530    -0.589778759729    12.000000000000
           H         -1.471401127437    -0.292203722460    -1.571383390641     1.007825032070
           H         -1.745153944799    -1.822441865095    -0.763096440687     1.007825032070

  Running in c1 symmetry.

  Rotational constants: A =      0.11214  B =      0.02822  C =      0.02417 [cm^-1]
  Rotational constants: A =   3361.96262  B =    845.98019  C =    724.46381 [MHz]
  Nuclear repulsion =  395.220549932297047

  Charge       = 0
  Multiplicity = 1
  Electrons    = 66
  Nalpha       = 33
  Nbeta        = 33

  ==> Algorithm <==

  SCF Algorithm Type is DF.
  DIIS enabled.
  MOM disabled.
  Fractional occupation disabled.
  Guess Type is READ.
  Energy threshold   = 1.00e-10
  Density threshold  = 1.00e-10
  Integral threshold = 0.00e+00

  ==> Primary Basis <==

  Basis Set: AUG-CC-PVTZ
    Number of shells: 274
    Number of basis function: 782
    Number of Cartesian functions: 890
    Spherical Harmonics?: true
    Max angular momentum: 3

  ==> Pre-Iterations <==

   -------------------------------------------------------
    Irrep   Nso     Nmo     Nalpha   Nbeta   Ndocc  Nsocc
   -------------------------------------------------------
     A        782     782       0       0       0       0
   -------------------------------------------------------
    Total     782     782      33      33      33       0
   -------------------------------------------------------

  ==> Integral Setup <==

  ==> DFJK: Density-Fitted J/K Matrices <==

    J tasked:                  Yes
    K tasked:                  Yes
    wK tasked:                  No
    OpenMP threads:             12
    Integrals threads:          12
    Memory (MB):             21457
    Algorithm:                Core
    Integral Cache:           NONE
    Schwarz Cutoff:          1E-12
    Fitting Condition:       1E-12

   => Auxiliary Basis Set <=

  Basis Set: 
    Number of shells: 492
    Number of basis function: 1660
    Number of Cartesian functions: 2038
    Spherical Harmonics?: true
    Max angular momentum: 4

  Minimum eigenvalue in the overlap matrix is 1.9102101771E-06.
  Using Symmetric Orthogonalization.
  SCF Guess: Reading in previously saved MOs, projecting if necessary.

  Using orbitals from previous SCF, no projection.
  Recomputing DOCC and SOCC from number of alpha and beta electrons from previous calculation.
              A 
    DOCC [    33 ]

  ==> Iterations <==

                           Total Energy        Delta E     RMS |[F,P]|

   @DF-RHF iter   0:  -313.47369922164233   -3.13474e+02   1.45957e-04 
   @DF-RHF iter   1:  -313.53839217812691   -6.46930e-02   3.20539e-05 
   @DF-RHF iter   2:  -313.53888933486149   -4.97157e-04   1.40135e-05 DIIS
   @DF-RHF iter   3:  -313.53896675838581   -7.74235e-05   4.69884e-06 DIIS
   @DF-RHF iter   4:  -313.53898148957973   -1.47312e-05   4.93425e-07 DIIS
   @DF-RHF iter   5:  -313.53898168517418   -1.95594e-07   1.52772e-07 DIIS
   @DF-RHF iter   6:  -313.53898169802318   -1.28490e-08   4.37080e-08 DIIS
   @DF-RHF iter   7:  -313.53898169921598   -1.19280e-09   9.61133e-09 DIIS
   @DF-RHF iter   8:  -313.53898169927601   -6.00267e-11   2.67808e-09 DIIS
   @DF-RHF iter   9:  -313.53898169928021   -4.20641e-12   7.71576e-10 DIIS
   @DF-RHF iter  10:  -313.53898169928044   -2.27374e-13   2.06994e-10 DIIS
   @DF-RHF iter  11:  -313.53898169928078   -3.41061e-13   4.91872e-11 DIIS

  ==> Post-Iterations <==

    Orbital Energies (a.u.)
    -----------------------

    Doubly Occupied:                                                      

       1A    -11.213505     2A    -11.212872     3A    -11.210823  
       4A    -11.210145     5A    -11.210074     6A    -11.207969  
       7A    -11.207334     8A    -11.206587     9A     -1.092838  
      10A     -1.060711    11A     -1.006487    12A     -0.946937  
      13A     -0.889446    14A     -0.827272    15A     -0.772884  
      16A     -0.771406    17A     -0.649700    18A     -0.623689  
      19A     -0.605825    20A     -0.600462    21A     -0.581437  
      22A     -0.558468    23A     -0.539243    24A     -0.525134  
      25A     -0.522899    26A     -0.499155    27A     -0.484760  
      28A     -0.481245    29A     -0.461758    30A     -0.459747  
      31A     -0.452681    32A     -0.440879    33A     -0.428109  

    Virtual:                                                              

      34A      0.028551    35A      0.032585    36A      0.034509  
      37A      0.035156    38A      0.045497    39A      0.046701  
      40A      0.049840    41A      0.054014    42A      0.056783  
      43A      0.067286    44A      0.068604    45A      0.070456  
      46A      0.073965    47A      0.076650    48A      0.088640  
      49A      0.093129    50A      0.096176    51A      0.106165  
      52A      0.114066    53A      0.116041    54A      0.117697  
      55A      0.120172    56A      0.125077    57A      0.130709  
      58A      0.133958    59A      0.136660    60A      0.140430  
      61A      0.141942    62A      0.142596    63A      0.150155  
      64A      0.155838    65A      0.160337    66A      0.163622  
      67A      0.164725    68A      0.166669    69A      0.169167  
      70A      0.174333    71A      0.179123    72A      0.181732  
      73A      0.191487    74A      0.197533    75A      0.200007  
      76A      0.204786    77A      0.211946    78A      0.217552  
      79A      0.222244    80A      0.229754    81A      0.240832  
      82A      0.244197    83A      0.252658    84A      0.255691  
      85A      0.266708    86A      0.268830    87A      0.278377  
      88A      0.288077    89A      0.291729    90A      0.295976  
      91A      0.299770    92A      0.306098    93A      0.309947  
      94A      0.311973    95A      0.314552    96A      0.316425  
      97A      0.321278    98A      0.324274    99A      0.328881  
     100A      0.335489   101A      0.337285   102A      0.344718  
     103A      0.348233   104A      0.352151   105A      0.355662  
     106A      0.357804   107A      0.359346   108A      0.365967  
     109A      0.367908   110A      0.370512   111A      0.375985  
     112A      0.377790   113A      0.381411   114A      0.385284  
     115A      0.391990   116A      0.397217   117A      0.398150  
     118A      0.402295   119A      0.407695   120A      0.409742  
     121A      0.417385   122A      0.420988   123A      0.426263  
     124A      0.428251   125A      0.430526   126A      0.435176  
     127A      0.440553   128A      0.442809   129A      0.449161  
     130A      0.453240   131A      0.456353   132A      0.459295  
     133A      0.467801   134A      0.470783   135A      0.472862  
     136A      0.474274   137A      0.476654   138A      0.479468  
     139A      0.484904   140A      0.488357   141A      0.491573  
     142A      0.494715   143A      0.497886   144A      0.502039  
     145A      0.504523   146A      0.511706   147A      0.512744  
     148A      0.521223   149A      0.524437   150A      0.530014  
     151A      0.532036   152A      0.541508   153A      0.542905  
     154A      0.546733   155A      0.548359   156A      0.549734  
     157A      0.555487   158A      0.560824   159A      0.567298  
     160A      0.570436   161A      0.572118   162A      0.579075  
     163A      0.581820   164A      0.585479   165A      0.590768  
     166A      0.592284   167A      0.595673   168A      0.603231  
     169A      0.610174   170A      0.614178   171A      0.622261  
     172A      0.626991   173A      0.630533   174A      0.634246  
     175A      0.639638   176A      0.645541   177A      0.651524  
     178A      0.653146   179A      0.656473   180A      0.661458  
     181A      0.663057   182A      0.672073   183A      0.680253  
     184A      0.685429   185A      0.689591   186A      0.692661  
     187A      0.704519   188A      0.711971   189A      0.713794  
     190A      0.719583   191A      0.727381   192A      0.729493  
     193A      0.738606   194A      0.739768   195A      0.741144  
     196A      0.749371   197A      0.764348   198A      0.770476  
     199A      0.778659   200A      0.781972   201A      0.808513  
     202A      0.814318   203A      0.822403   204A      0.823035  
     205A      0.835155   206A      0.839947   207A      0.846345  
     208A      0.852728   209A      0.856767   210A      0.863503  
     211A      0.865933   212A      0.872751   213A      0.874987  
     214A      0.882463   215A      0.886982   216A      0.892398  
     217A      0.898431   218A      0.903534   219A      0.905027  
     220A      0.911248   221A      0.915393   222A      0.920721  
     223A      0.924562   224A      0.930558   225A      0.937078  
     226A      0.941188   227A      0.946508   228A      0.952077  
     229A      0.953620   230A      0.961622   231A      0.967940  
     232A      0.972198   233A      0.978392   234A      0.981738  
     235A      0.988234   236A      0.990128   237A      0.996918  
     238A      1.005583   239A      1.009650   240A      1.014006  
     241A      1.018968   242A      1.024745   243A      1.028790  
     244A      1.035415   245A      1.041674   246A      1.043696  
     247A      1.048440   248A      1.051687   249A      1.057040  
     250A      1.062846   251A      1.067781   252A      1.069608  
     253A      1.076404   254A      1.082078   255A      1.094295  
     256A      1.100744   257A      1.101977   258A      1.104573  
     259A      1.108017   260A      1.116248   261A      1.124140  
     262A      1.127133   263A      1.132488   264A      1.135208  
     265A      1.138645   266A      1.150631   267A      1.155154  
     268A      1.156540   269A      1.168173   270A      1.173115  
     271A      1.175861   272A      1.178099   273A      1.183552  
[...]
	 D(16,15,18,21)   =         0.467905	      26.809007
	 D(17,15,18,19)   =         0.374845	      21.477008
	 D(17,15,18,20)   =        -1.648695	     -94.463241
	 D(17,15,18,21)   =         2.493505	     142.867314
	 D(18,21,24,25)   =        -1.084594	     -62.142631
	 D(18,21,24,26)   =         0.934265	      53.529427
	 D(19,18,21,22)   =         1.034908	      59.295848
	 D(19,18,21,23)   =         3.059658	     175.305500
	 D(19,18,21,24)   =        -1.079403	     -61.845213
	 D(20,18,21,22)   =         3.040875	     174.229311
	 D(20,18,21,23)   =        -1.217560	     -69.761038
	 D(20,18,21,24)   =         0.926565	      53.088250
	 D(22,21,24,25)   =         3.088974	     176.985149
	 D(22,21,24,26)   =        -1.175353	     -67.342793
	 D(23,21,24,25)   =         1.056088	      60.509408
	 D(23,21,24,26)   =         3.074947	     176.181467
	 R(1,21)          =         6.405959	       3.389887

	Current energy   :      -314.9808306976

	Energy change for the previous step:
		Projected    :        -0.0000000001
		Actual       :         0.0000000002

	Performing BFGS update.
	Previous computed or guess Hessian on step 1.
	Denominators (dg)(dq) or (dq)(dq) are very small.
	 Skipping Hessian update for step 13.
	Denominators (dg)(dq) or (dq)(dq) are very small.
	 Skipping Hessian update for step 12.
	Denominators (dg)(dq) or (dq)(dq) are very small.
	 Skipping Hessian update for step 11.
	Denominators (dg)(dq) or (dq)(dq) are very small.
	 Skipping Hessian update for step 10.
	Denominators (dg)(dq) or (dq)(dq) are very small.
	 Skipping Hessian update for step 9.
	Denominators (dg)(dq) or (dq)(dq) are very small.
	 Skipping Hessian update for step 8.
	Denominators (dg)(dq) or (dq)(dq) are very small.
	 Skipping Hessian update for step 7.
	Steps to be used in Hessian update: 6 5
	Taking RFO optimization step.
	Going to follow RFO solution 1.
	Using RFO vector 1.
	Norm of target step-size    0.00002
	Projected energy change by RFO approximation:         0.0000000000

	Back-transformation to cartesian coordinates...
	Successfully converged to displaced geometry.

	--- Internal Coordinate Step in ANG or DEG, aJ/ANG or AJ/DEG ---
	 ---------------------------------------------------------------------------
	   Coordinate                Previous        Force       Change         New 
	   ----------                --------       ------       ------       ------
	    1 R(1,2)          =      1.091182     0.000001     0.000000     1.091183
	    2 R(1,3)          =      1.090046     0.000002     0.000000     1.090046
	    3 R(1,4)          =      1.089989     0.000000     0.000000     1.089989
	    4 R(1,9)          =      1.524601     0.000001     0.000000     1.524601
	    5 R(5,6)          =      1.089756    -0.000001    -0.000000     1.089756
	    6 R(5,7)          =      1.091454    -0.000001    -0.000000     1.091454
	    7 R(5,8)          =      1.089350    -0.000000    -0.000000     1.089350
	    8 R(5,12)         =      1.525097    -0.000000    -0.000000     1.525097
	    9 R(9,10)         =      1.092555     0.000000     0.000000     1.092555
	   10 R(9,11)         =      1.093563     0.000002     0.000000     1.093563
	   11 R(9,15)         =      1.528564     0.000001     0.000000     1.528564
	   12 R(12,13)        =      1.093517    -0.000002    -0.000000     1.093517
	   13 R(12,14)        =      1.092256    -0.000003    -0.000001     1.092256
	   14 R(12,24)        =      1.526951    -0.000001    -0.000000     1.526950
	   15 R(15,16)        =      1.094778     0.000002     0.000000     1.094779
	   16 R(15,17)        =      1.092045     0.000000     0.000000     1.092046
	   17 R(15,18)        =      1.534931     0.000002     0.000000     1.534932
	   18 R(18,19)        =      1.092981     0.000003     0.000000     1.092982
	   19 R(18,20)        =      1.095532     0.000003     0.000001     1.095532
	   20 R(18,21)        =      1.526538     0.000002     0.000000     1.526539
	   21 R(21,22)        =      1.095343     0.000004     0.000001     1.095344
	   22 R(21,23)        =      1.090614     0.000004     0.000001     1.090614
	   23 R(21,24)        =      1.523818    -0.000000    -0.000000     1.523818
	   24 R(24,25)        =      1.095288    -0.000001    -0.000000     1.095288
	   25 R(24,26)        =      1.093989    -0.000001    -0.000000     1.093989
	   26 B(1,9,10)       =    109.178305     0.000000     0.000033   109.178338
	   27 B(1,9,11)       =    109.172366     0.000000     0.000009   109.172375
	   28 B(1,9,15)       =    114.351267    -0.000000    -0.000038   114.351228
	   29 B(2,1,3)        =    107.898715    -0.000000     0.000004   107.898719
	   30 B(2,1,4)        =    107.909209     0.000000     0.000016   107.909225
	   31 B(2,1,9)        =    110.961773    -0.000000     0.000002   110.961775
	   32 B(3,1,4)        =    107.547186    -0.000000    -0.000015   107.547170
	   33 B(3,1,9)        =    111.454803     0.000000     0.000002   111.454805
	   34 B(4,1,9)        =    110.909978    -0.000000    -0.000007   110.909970
	   35 B(5,12,13)      =    109.633019     0.000000    -0.000007   109.633012
	   36 B(5,12,14)      =    109.163478     0.000000     0.000035   109.163513
	   37 B(5,12,24)      =    113.199229    -0.000000    -0.000075   113.199153
	   38 B(6,5,7)        =    107.864691     0.000000     0.000003   107.864694
	   39 B(6,5,8)        =    107.607214     0.000000     0.000003   107.607217
	   40 B(6,5,12)       =    111.212166     0.000000     0.000010   111.212175
	   41 B(7,5,8)        =    107.808095     0.000000     0.000011   107.808106
	   42 B(7,5,12)       =    110.588434    -0.000000    -0.000012   110.588422
	   43 B(8,5,12)       =    111.596931    -0.000000    -0.000014   111.596916
	   44 B(9,15,16)      =    109.374112    -0.000000     0.000006   109.374118
	   45 B(9,15,17)      =    108.056289     0.000000    -0.000022   108.056267
	   46 B(9,15,18)      =    114.026636     0.000000     0.000049   114.026685
	   47 B(10,9,11)      =    106.402830    -0.000000     0.000023   106.402853
	   48 B(10,9,15)      =    108.876513     0.000000     0.000023   108.876536
	   49 B(11,9,15)      =    108.560469     0.000000    -0.000046   108.560423
	   50 B(12,24,21)     =    113.849893    -0.000000    -0.000063   113.849830
	   51 B(12,24,25)     =    109.158953     0.000000    -0.000015   109.158938
	   52 B(12,24,26)     =    109.322125     0.000000    -0.000041   109.322084
	   53 B(13,12,14)     =    106.478688    -0.000000     0.000014   106.478703
	   54 B(13,12,24)     =    109.094914     0.000000     0.000004   109.094918
	   55 B(14,12,24)     =    109.049131     0.000000     0.000034   109.049165
	   56 B(15,18,19)     =    109.869744     0.000000    -0.000007   109.869737
	   57 B(15,18,20)     =    109.307160    -0.000000    -0.000009   109.307151
	   58 B(15,18,21)     =    113.988208     0.000000     0.000074   113.988282
	   59 B(16,15,17)     =    106.285421     0.000000     0.000015   106.285437
	   60 B(16,15,18)     =    109.147211     0.000000     0.000034   109.147245
	   61 B(17,15,18)     =    109.662518    -0.000000    -0.000085   109.662433
	   62 B(18,21,22)     =    108.774755    -0.000000     0.000004   108.774759
	   63 B(18,21,23)     =    109.714450    -0.000000     0.000009   109.714459
	   64 B(18,21,24)     =    112.453316     0.000000     0.000044   112.453360
	   65 B(19,18,20)     =    106.014406     0.000000    -0.000009   106.014397
	   66 B(19,18,21)     =    108.021184    -0.000000    -0.000097   108.021087
	   67 B(20,18,21)     =    109.330399     0.000000     0.000042   109.330442
	   68 B(21,24,25)     =    109.070843     0.000000     0.000094   109.070937
	   69 B(21,24,26)     =    108.756013     0.000000     0.000032   108.756045
	   70 B(22,21,23)     =    106.396515     0.000000    -0.000010   106.396506
	   71 B(22,21,24)     =    109.243765    -0.000000    -0.000005   109.243760
	   72 B(23,21,24)     =    110.065140    -0.000000    -0.000044   110.065095
	   73 B(25,24,26)     =    106.417890    -0.000000    -0.000004   106.417886
	   74 D(1,9,15,16)    =    -63.263212    -0.000000    -0.000186   -63.263397
	   75 D(1,9,15,17)    =   -178.559037    -0.000000    -0.000195  -178.559233
	   76 D(1,9,15,18)    =     59.245439     0.000000    -0.000103    59.245336
	   77 D(2,1,9,10)     =    -65.370126     0.000000     0.000172   -65.369954
	   78 D(2,1,9,11)     =    178.687180    -0.000000     0.000121   178.687300
	   79 D(2,1,9,15)     =     56.865915     0.000000     0.000200    56.866115
	   80 D(3,1,9,10)     =    174.353095     0.000000     0.000165   174.353260
	   81 D(3,1,9,11)     =     58.410401    -0.000000     0.000114    58.410514
	   82 D(3,1,9,15)     =    -63.410864     0.000000     0.000193   -63.410671
	   83 D(4,1,9,10)     =     54.556252     0.000000     0.000188    54.556440
	   84 D(4,1,9,11)     =    -61.386443    -0.000000     0.000137   -61.386306
	   85 D(4,1,9,15)     =    176.792293     0.000000     0.000217   176.792509
	   86 D(5,12,24,21)   =     63.517285    -0.000000    -0.000234    63.517050
	   87 D(5,12,24,25)   =    -58.609061    -0.000000    -0.000302   -58.609363
	   88 D(5,12,24,26)   =   -174.642387    -0.000000    -0.000266  -174.642653
	   89 D(6,5,12,13)    =    -62.275288    -0.000000    -0.000045   -62.275333
	   90 D(6,5,12,14)    =     54.007904     0.000000    -0.000012    54.007893
	   91 D(6,5,12,24)    =    175.667088     0.000000     0.000006   175.667094
	   92 D(7,5,12,13)    =    177.902436    -0.000000    -0.000047   177.902389
	   93 D(7,5,12,14)    =    -65.814371     0.000000    -0.000014   -65.814385
	   94 D(7,5,12,24)    =     55.844812     0.000000     0.000004    55.844816
	   95 D(8,5,12,13)    =     57.897954    -0.000000    -0.000044    57.897909
	   96 D(8,5,12,14)    =    174.181146     0.000000    -0.000011   174.181135
	   97 D(8,5,12,24)    =    -64.159670     0.000000     0.000007   -64.159664
	   98 D(9,15,18,19)   =    142.785938     0.000000     0.000021   142.785958
	   99 D(9,15,18,20)   =     26.845688     0.000000     0.000041    26.845729
	  100 D(9,15,18,21)   =    -95.823757    -0.000000    -0.000059   -95.823816
	  101 D(10,9,15,16)   =     59.137347    -0.000000    -0.000152    59.137195
	  102 D(10,9,15,17)   =    -56.158479    -0.000000    -0.000161   -56.158640
	  103 D(10,9,15,18)   =   -178.354003     0.000000    -0.000068  -178.354071
	  104 D(11,9,15,16)   =    174.580747     0.000000    -0.000137   174.580609
	  105 D(11,9,15,17)   =     59.284921    -0.000000    -0.000147    59.284774
	  106 D(11,9,15,18)   =    -62.910603     0.000000    -0.000054   -62.910657
	  107 D(12,24,21,18)  =    175.682439     0.000000     0.000004   175.682443
	  108 D(12,24,21,22)  =     54.810219    -0.000000    -0.000025    54.810193
	  109 D(12,24,21,23)  =    -61.665522     0.000000     0.000015   -61.665507
	  110 D(13,12,24,21)  =    -58.840563     0.000000    -0.000178   -58.840740
	  111 D(13,12,24,25)  =    179.033091    -0.000000    -0.000245   179.032846
	  112 D(13,12,24,26)  =     62.999766     0.000000    -0.000209    62.999557
	  113 D(14,12,24,21)  =   -174.759375    -0.000000    -0.000216  -174.759591
	  114 D(14,12,24,25)  =     63.114279    -0.000000    -0.000283    63.113996
	  115 D(14,12,24,26)  =    -52.919047    -0.000000    -0.000247   -52.919294
	  116 D(15,18,21,22)  =    -63.113952     0.000000     0.000110   -63.113842
	  117 D(15,18,21,23)  =     52.895699     0.000000     0.000106    52.895805
	  118 D(15,18,21,24)  =    175.744987    -0.000000     0.000086   175.745072
	  119 D(16,15,18,19)  =    -94.581298     0.000000     0.000088   -94.581210
	  120 D(16,15,18,20)  =    149.478453     0.000000     0.000109   149.478562
	  121 D(16,15,18,21)  =     26.809007    -0.000000     0.000009    26.809016
	  122 D(17,15,18,19)  =     21.477008     0.000000     0.000078    21.477086
	  123 D(17,15,18,20)  =    -94.463241     0.000000     0.000099   -94.463143
	  124 D(17,15,18,21)  =    142.867314    -0.000000    -0.000001   142.867312
	  125 D(18,21,24,25)  =    -62.142631    -0.000000     0.000011   -62.142620
	  126 D(18,21,24,26)  =     53.529427     0.000000     0.000075    53.529503
	  127 D(19,18,21,22)  =     59.295848     0.000000     0.000080    59.295928
	  128 D(19,18,21,23)  =    175.305500     0.000000     0.000075   175.305575
	  129 D(19,18,21,24)  =    -61.845213     0.000000     0.000055   -61.845157
	  130 D(20,18,21,22)  =    174.229311    -0.000000     0.000038   174.229349
	  131 D(20,18,21,23)  =    -69.761038    -0.000000     0.000034   -69.761004
	  132 D(20,18,21,24)  =     53.088250    -0.000000     0.000014    53.088263
	  133 D(22,21,24,25)  =    176.985149    -0.000000    -0.000018   176.985131
	  134 D(22,21,24,26)  =    -67.342793     0.000000     0.000046   -67.342747
	  135 D(23,21,24,25)  =     60.509408    -0.000000     0.000022    60.509430
	  136 D(23,21,24,26)  =    176.181467     0.000000     0.000086   176.181552
	  137 R(1,21)         =      3.389887     0.000001     0.000003     3.389890
	 ---------------------------------------------------------------------------

  ==> Convergence Check <==

  Measures of convergence in internal coordinates in au.
  Criteria marked as inactive (o), active & met (*), and active & unmet ( ).
  ---------------------------------------------------------------------------------------------
   Step     Total Energy     Delta E     MAX Force     RMS Force      MAX Disp      RMS Disp   
  ---------------------------------------------------------------------------------------------
    Convergence Criteria             o    2.00e-06 *    1.00e-06 *    6.00e-06 *    4.00e-06 *
  ---------------------------------------------------------------------------------------------
     14    -314.98083070    1.92e-10 o    4.60e-07 *    1.16e-07 *    5.27e-06 *    1.68e-06 *  ~
  ---------------------------------------------------------------------------------------------


  **** Optimization is complete! (in 14 steps) ****

  ==> Optimization Summary <==

  Measures of convergence in internal coordinates in au.
  --------------------------------------------------------------------------------------------------------------- ~
   Step         Total Energy             Delta E       MAX Force       RMS Force        MAX Disp        RMS Disp  ~
  --------------------------------------------------------------------------------------------------------------- ~
      1    -314.980549376409   -314.980549376409      0.00438107      0.00104571      0.03932119      0.01375568  ~
      2    -314.980801385233     -0.000252008824      0.00083065      0.00019166      0.02820625      0.01068096  ~
      3    -314.980811848466     -0.000010463233      0.00058549      0.00013547      0.00820352      0.00266974  ~
      4    -314.980826724267     -0.000014875800      0.00006260      0.00002623      0.00736594      0.00266987  ~
      5    -314.980830306067     -0.000003581800      0.00008206      0.00001942      0.00455926      0.00127713  ~
      6    -314.980830621413     -0.000000315346      0.00004879      0.00000902      0.00176223      0.00056842  ~
      7    -314.980830692341     -0.000000070928      0.00002327      0.00000341      0.00046192      0.00010819  ~
      8    -314.980830696430     -0.000000004089      0.00000327      0.00000077      0.00008257      0.00002642  ~
      9    -314.980830696019      0.000000000412      0.00000146      0.00000030      0.00002324      0.00000738  ~
     10    -314.980830698829     -0.000000002810      0.00000088      0.00000023      0.00002169      0.00000774  ~
     11    -314.980830692711      0.000000006118      0.00000041      0.00000009      0.00000855      0.00000278  ~
     12    -314.980830699409     -0.000000006698      0.00000065      0.00000013      0.00002488      0.00000763  ~
     13    -314.980830697810      0.000000001599      0.00000066      0.00000017      0.00001702      0.00000509  ~
     14    -314.980830697618      0.000000000192      0.00000046      0.00000012      0.00000527      0.00000168  ~
  --------------------------------------------------------------------------------------------------------------- ~

	Writing optimization data to binary file.
	Final energy is   -314.9808306976180
	Final (previous) structure:
	Cartesian Geometry (in Angstrom)
	    C     2.1726242993   1.6321669630  -0.0823416154
	    H     1.7931898491   1.9110166663   0.9020116510
	    H     1.3248791354   1.5793527866  -0.7655241545
	    H     2.8249673177   2.4334484719  -0.4294328722
	    C    -2.9442147105   1.3227638002   0.1489391412
	    H    -3.9103056418   1.6876965036   0.4968782368
	    H    -2.7290818096   1.8037654981  -0.8068994181
	    H    -2.1909346580   1.6510607514   0.8641131845
	    C     2.9236063217   0.3067262796  -0.0220011952
	    H     3.8193667501   0.4293359772   0.5913957378
	    H     3.2700387434   0.0442266132  -1.0254739327
	    C    -2.9498876134  -0.1946795798  -0.0035567627
	    H    -3.1296673178  -0.6610199440   0.9690613962
	    H    -3.7831558528  -0.4873354789  -0.6462388006
	    C     2.1022680935  -0.8585062842   0.5294914772
	    H     1.8299205608  -0.6508171790   1.5693142274
	    H     2.7421241496  -1.7431921326   0.5513648384
	    C     0.8296082740  -1.1612917713  -0.2734229583
	    H     0.6624379333  -2.2407397269  -0.3115499531
	    H     0.9712423370  -0.8405431113  -1.3113292843
	    C    -0.4297833948  -0.5079702397   0.2899797665
	    H    -0.6201279969  -0.9132348421   1.2896331529
	    H    -0.2631991810   0.5621901560   0.4182163064
	    C    -1.6516028118  -0.7452276788  -0.5891602242
	    H    -1.4794293124  -0.2916723372  -1.5711480703
	    H    -1.7587839706  -1.8205115552  -0.7597168784
	Saving final (previous) structure.
			--------------------------
			 OPTKING Finished Execution 
			--------------------------

    Final optimized geometry and variables:
    Molecular point group: c1
    Full point group: C1

    Geometry (in Angstrom), charge = 0, multiplicity = 1:

    C            2.172624299282     1.632166962967    -0.082341615442
    H            1.793189849060     1.911016666269     0.902011651030
    H            1.324879135427     1.579352786579    -0.765524154532
    H            2.824967317710     2.433448471876    -0.429432872235
    C           -2.944214710519     1.322763800209     0.148939141152
    H           -3.910305641804     1.687696503601     0.496878236846
    H           -2.729081809607     1.803765498053    -0.806899418089
    H           -2.190934657987     1.651060751417     0.864113184512
    C            2.923606321653     0.306726279599    -0.022001195212
    H            3.819366750148     0.429335977238     0.591395737835
    H            3.270038743389     0.044226613161    -1.025473932702
    C           -2.949887613369    -0.194679579839    -0.003556762736
    H           -3.129667317781    -0.661019944016     0.969061396174
    H           -3.783155852797    -0.487335478939    -0.646238800590
    C            2.102268093518    -0.858506284228     0.529491477232
    H            1.829920560817    -0.650817179039     1.569314227353
    H            2.742124149584    -1.743192132607     0.551364838392
    C            0.829608273975    -1.161291771322    -0.273422958327
    H            0.662437933273    -2.240739726932    -0.311549953117
    H            0.971242337007    -0.840543111258    -1.311329284316
    C           -0.429783394787    -0.507970239685     0.289979766479
    H           -0.620127996923    -0.913234842134     1.289633152930
    H           -0.263199181005     0.562190156002     0.418216306365
    C           -1.651602811797    -0.745227678760    -0.589160224211
    H           -1.479429312419    -0.291672337228    -1.571148070252
    H           -1.758783970570    -1.820511555195    -0.759716878377

	Cleaning optimization helper files.

*** Psi4 exiting successfully. Buy a developer a beer!
