    -----------------------------------------------------------------------
          Psi4: An Open-Source Ab Initio Electronic Structure Package
                              Psi4 1.0.0 Driver

                          Git: Rev {master} 6a9a71b dirty

    J. M. Turney, A. C. Simmonett, R. M. Parrish, E. G. Hohenstein,
    F. A. Evangelista, J. T. Fermann, B. J. Mintz, L. A. Burns, J. J. Wilke,
    M. L. Abrams, N. J. Russ, M. L. Leininger, C. L. Janssen, E. T. Seidl,
    W. D. Allen, H. F. Schaefer, R. A. King, E. F. Valeev, C. D. Sherrill,
    and T. D. Crawford, WIREs Comput. Mol. Sci. 2, 556-565 (2012)
    (doi: 10.1002/wcms.93)

                         Additional Contributions by
    A. E. DePrince, U. Bozkaya, A. Yu. Sokolov, D. G. A. Smith, R. Di Remigio,
    R. M. Richard, J. F. Gonthier, H. R. McAlexander, M. Saitow, and
    B. P. Pritchard
    -----------------------------------------------------------------------


    Psi4 started on: Wed Sep 21 15:18:45 2016

    Process ID:  14435
    PSI4DATADIR: /usr/local/hpc5/psi4conda/share/psi4
    Memory level set to 256.000 MB

  ==> Input File <==

--------------------------------------------------------------------------
memory 60 Gb

molecule molecule_13_psi {
0 1
C           -2.946266966301    -1.130162707508     0.497741700867
H           -3.412665162721    -2.093021802061     0.290707992900
H           -3.666834913043    -0.518682905224     1.043719305288
H           -2.097087209373    -1.310056243211     1.157117514271
C            3.367194922523    -0.322618137666    -0.861620963071
H            2.642495747888    -0.548996446802    -1.642738984894
H            4.244075941883    -0.946009540449    -1.034723863815
H            3.669068606017     0.719727331277    -0.977948998021
C           -2.516603808280    -0.437441076647    -0.790547071382
H           -3.370680386297    -0.372460172131    -1.468232730052
H           -1.768094129479    -1.046284916282    -1.302238391357
C            2.786583967006    -0.561371389057     0.528149811263
H            2.454598860924    -1.599807589615     0.613720041491
H            3.572931837455    -0.425221559900     1.273935982371
C           -1.968546164308     0.970644374586    -0.560175342636
H           -2.772192083479     1.601739700320    -0.169349839532
H           -1.674674399900     1.400735999040    -1.521971192726
C           -0.776545239506     1.035385614094     0.393642534309
H           -1.084434727065     0.735047131169     1.398934038424
H           -0.447620862469     2.075381661809     0.475868590628
C            0.406334402999     0.179518617091    -0.044385836210
H            0.124056889366    -0.877905518671    -0.043819039574
H            0.664122535061     0.432879337734    -1.076684606231
C            1.619070246618     0.364467951024     0.861011789531
H            1.955222711336     1.404947276440     0.803164397768
H            1.310373071180     0.196079528933     1.896959337083
}

set globals {
  reference rhf
  g_convergence gau_verytight
  basis aug-cc-pvtz
  freeze_core true
  scf_type df
  mp_type df
}
optimize('mp2')
--------------------------------------------------------------------------
/usr/local/hpc5/psi4conda/lib/python2.7/site-packages/v2rdm_casscf/v2rdm_casscf.so loaded.

  Memory set to  60.000 GiB by Python script.
gradient() will perform analytic gradient computation.

*** tstart() called on wr42
*** at Wed Sep 21 15:18:46 2016


         ---------------------------------------------------------
                                   SCF
            by Justin Turney, Rob Parrish, and Andy Simmonett
                              RHF Reference
                       12 Threads,  60000 MiB Core
         ---------------------------------------------------------

  ==> Geometry <==

    Molecular point group: c1
    Full point group: C1

    Geometry (in Angstrom), charge = 0, multiplicity = 1:

       Center              X                  Y                   Z               Mass       
    ------------   -----------------  -----------------  -----------------  -----------------
           C         -2.946266966301    -1.130162707508     0.497741700867    12.000000000000
           H         -3.412665162721    -2.093021802061     0.290707992900     1.007825032070
           H         -3.666834913043    -0.518682905224     1.043719305288     1.007825032070
           H         -2.097087209373    -1.310056243211     1.157117514271     1.007825032070
           C          3.367194922523    -0.322618137666    -0.861620963071    12.000000000000
           H          2.642495747888    -0.548996446802    -1.642738984894     1.007825032070
           H          4.244075941883    -0.946009540449    -1.034723863815     1.007825032070
           H          3.669068606017     0.719727331277    -0.977948998021     1.007825032070
           C         -2.516603808280    -0.437441076647    -0.790547071382    12.000000000000
           H         -3.370680386297    -0.372460172131    -1.468232730052     1.007825032070
           H         -1.768094129479    -1.046284916282    -1.302238391357     1.007825032070
           C          2.786583967006    -0.561371389057     0.528149811263    12.000000000000
           H          2.454598860924    -1.599807589615     0.613720041491     1.007825032070
           H          3.572931837455    -0.425221559900     1.273935982371     1.007825032070
           C         -1.968546164308     0.970644374586    -0.560175342636    12.000000000000
           H         -2.772192083479     1.601739700320    -0.169349839532     1.007825032070
           H         -1.674674399900     1.400735999040    -1.521971192726     1.007825032070
           C         -0.776545239506     1.035385614094     0.393642534309    12.000000000000
           H         -1.084434727065     0.735047131169     1.398934038424     1.007825032070
           H         -0.447620862469     2.075381661809     0.475868590628     1.007825032070
           C          0.406334402999     0.179518617091    -0.044385836210    12.000000000000
           H          0.124056889366    -0.877905518671    -0.043819039574     1.007825032070
           H          0.664122535061     0.432879337734    -1.076684606231     1.007825032070
           C          1.619070246618     0.364467951024     0.861011789531    12.000000000000
           H          1.955222711336     1.404947276440     0.803164397768     1.007825032070
           H          1.310373071180     0.196079528933     1.896959337083     1.007825032070

  Running in c1 symmetry.

  Rotational constants: A =      0.12624  B =      0.02490  C =      0.02442 [cm^-1]
  Rotational constants: A =   3784.63803  B =    746.51922  C =    731.98338 [MHz]
  Nuclear repulsion =  394.189826411306342

  Charge       = 0
  Multiplicity = 1
  Electrons    = 66
  Nalpha       = 33
  Nbeta        = 33

  ==> Algorithm <==

  SCF Algorithm Type is DF.
  DIIS enabled.
  MOM disabled.
  Fractional occupation disabled.
  Guess Type is SAD.
  Energy threshold   = 1.00e-10
  Density threshold  = 1.00e-10
  Integral threshold = 0.00e+00

  ==> Primary Basis <==

  Basis Set: AUG-CC-PVTZ
    Number of shells: 274
    Number of basis function: 782
    Number of Cartesian functions: 890
    Spherical Harmonics?: true
    Max angular momentum: 3

  ==> Pre-Iterations <==

   -------------------------------------------------------
    Irrep   Nso     Nmo     Nalpha   Nbeta   Ndocc  Nsocc
   -------------------------------------------------------
     A        782     782       0       0       0       0
   -------------------------------------------------------
    Total     782     782      33      33      33       0
   -------------------------------------------------------

  ==> Integral Setup <==

  ==> DFJK: Density-Fitted J/K Matrices <==

    J tasked:                  Yes
    K tasked:                  Yes
    wK tasked:                  No
    OpenMP threads:             12
    Integrals threads:          12
    Memory (MB):             42915
    Algorithm:                Core
    Integral Cache:           NONE
    Schwarz Cutoff:          1E-12
    Fitting Condition:       1E-12

   => Auxiliary Basis Set <=

  Basis Set: 
    Number of shells: 492
    Number of basis function: 1660
    Number of Cartesian functions: 2038
    Spherical Harmonics?: true
    Max angular momentum: 4

  Minimum eigenvalue in the overlap matrix is 2.3423965036E-06.
  Using Symmetric Orthogonalization.
  SCF Guess: Superposition of Atomic Densities via on-the-fly atomic UHF.

  ==> Iterations <==

                           Total Energy        Delta E     RMS |[F,P]|

   @DF-RHF iter   0:  -317.00585102291888   -3.17006e+02   7.02839e-03 
   @DF-RHF iter   1:  -313.29282028070833    3.71303e+00   7.36939e-04 
   @DF-RHF iter   2:  -313.50586839238014   -2.13048e-01   2.87625e-04 DIIS
   @DF-RHF iter   3:  -313.53627449138179   -3.04061e-02   1.04452e-04 DIIS
   @DF-RHF iter   4:  -313.54175615198136   -5.48166e-03   1.57474e-05 DIIS
   @DF-RHF iter   5:  -313.54192937395322   -1.73222e-04   4.59799e-06 DIIS
   @DF-RHF iter   6:  -313.54194101004026   -1.16361e-05   1.40574e-06 DIIS
   @DF-RHF iter   7:  -313.54194215809542   -1.14806e-06   2.56413e-07 DIIS
   @DF-RHF iter   8:  -313.54194220795893   -4.98635e-08   7.36802e-08 DIIS
   @DF-RHF iter   9:  -313.54194221116671   -3.20779e-09   2.28065e-08 DIIS
   @DF-RHF iter  10:  -313.54194221149220   -3.25485e-10   5.91579e-09 DIIS
   @DF-RHF iter  11:  -313.54194221151516   -2.29647e-11   1.40376e-09 DIIS
   @DF-RHF iter  12:  -313.54194221151653   -1.36424e-12   3.77188e-10 DIIS
   @DF-RHF iter  13:  -313.54194221151641    1.13687e-13   1.12202e-10 DIIS
   @DF-RHF iter  14:  -313.54194221151698   -5.68434e-13   2.79567e-11 DIIS

  ==> Post-Iterations <==

    Orbital Energies (a.u.)
    -----------------------

    Doubly Occupied:                                                      

       1A    -11.212897     2A    -11.212003     3A    -11.210566  
       4A    -11.210464     5A    -11.209483     6A    -11.208873  
       7A    -11.206942     8A    -11.206667     9A     -1.094793  
      10A     -1.061284    11A     -1.006198    12A     -0.946541  
      13A     -0.886904    14A     -0.836839    15A     -0.778165  
      16A     -0.756546    17A     -0.647737    18A     -0.628437  
      19A     -0.610596    20A     -0.606216    21A     -0.572916  
      22A     -0.553821    23A     -0.547457    24A     -0.529048  
      25A     -0.513636    26A     -0.506196    27A     -0.488055  
      28A     -0.474252    29A     -0.463518    30A     -0.459707  
      31A     -0.449727    32A     -0.442170    33A     -0.431361  

    Virtual:                                                              

      34A      0.028768    35A      0.032150    36A      0.034128  
      37A      0.034714    38A      0.046941    39A      0.047513  
      40A      0.048107    41A      0.054182    42A      0.056247  
      43A      0.066415    44A      0.066873    45A      0.070528  
      46A      0.074766    47A      0.076400    48A      0.086097  
      49A      0.091716    50A      0.098047    51A      0.099697  
      52A      0.113787    53A      0.114900    54A      0.119202  
      55A      0.124146    56A      0.126674    57A      0.130409  
      58A      0.131944    59A      0.135897    60A      0.139444  
      61A      0.142015    62A      0.146650    63A      0.152504  
      64A      0.154629    65A      0.160163    66A      0.160707  
      67A      0.164041    68A      0.168136    69A      0.169755  
      70A      0.174848    71A      0.179013    72A      0.182893  
      73A      0.187329    74A      0.192472    75A      0.196181  
      76A      0.202430    77A      0.215123    78A      0.220797  
      79A      0.226912    80A      0.230414    81A      0.234285  
      82A      0.246233    83A      0.254021    84A      0.261258  
      85A      0.271978    86A      0.281528    87A      0.283006  
      88A      0.283941    89A      0.289354    90A      0.297931  
      91A      0.299185    92A      0.304798    93A      0.307034  
      94A      0.312831    95A      0.314715    96A      0.323681  
      97A      0.327412    98A      0.327756    99A      0.329162  
     100A      0.332736   101A      0.337712   102A      0.340608  
     103A      0.344261   104A      0.345231   105A      0.354274  
     106A      0.357694   107A      0.361503   108A      0.363294  
     109A      0.367109   110A      0.370216   111A      0.370696  
     112A      0.378964   113A      0.380420   114A      0.386630  
     115A      0.391345   116A      0.394449   117A      0.398738  
     118A      0.405116   119A      0.406512   120A      0.409856  
     121A      0.413525   122A      0.425566   123A      0.426233  
     124A      0.426933   125A      0.430778   126A      0.441219  
     127A      0.442399   128A      0.446514   129A      0.447639  
     130A      0.451268   131A      0.455004   132A      0.456787  
     133A      0.461679   134A      0.464848   135A      0.469807  
     136A      0.472901   137A      0.474088   138A      0.478125  
     139A      0.482084   140A      0.487953   141A      0.490515  
     142A      0.496330   143A      0.500548   144A      0.504396  
     145A      0.507479   146A      0.511240   147A      0.515518  
     148A      0.519218   149A      0.520785   150A      0.523213  
     151A      0.530387   152A      0.536487   153A      0.543560  
     154A      0.544474   155A      0.546576   156A      0.549823  
     157A      0.557173   158A      0.561370   159A      0.568749  
     160A      0.570968   161A      0.571801   162A      0.576284  
     163A      0.580994   164A      0.584893   165A      0.590579  
     166A      0.598495   167A      0.601739   168A      0.604933  
     169A      0.605977   170A      0.614933   171A      0.616144  
     172A      0.620909   173A      0.630272   174A      0.633743  
     175A      0.639660   176A      0.643795   177A      0.648513  
     178A      0.654342   179A      0.656788   180A      0.665379  
     181A      0.668277   182A      0.675886   183A      0.680317  
     184A      0.685738   185A      0.690916   186A      0.695952  
     187A      0.698309   188A      0.705113   189A      0.711758  
     190A      0.716295   191A      0.719760   192A      0.732545  
     193A      0.733247   194A      0.738075   195A      0.748227  
     196A      0.752954   197A      0.761889   198A      0.768884  
     199A      0.775173   200A      0.789964   201A      0.798211  
     202A      0.803770   203A      0.814187   204A      0.818264  
     205A      0.833023   206A      0.836534   207A      0.841834  
     208A      0.852435   209A      0.859322   210A      0.861699  
     211A      0.866396   212A      0.870092   213A      0.880864  
     214A      0.883527   215A      0.889043   216A      0.891065  
     217A      0.900924   218A      0.902149   219A      0.908983  
     220A      0.911231   221A      0.918646   222A      0.925164  
     223A      0.926608   224A      0.933903   225A      0.936867  
     226A      0.942506   227A      0.944398   228A      0.950266  
     229A      0.952122   230A      0.956076   231A      0.964402  
     232A      0.972956   233A      0.974291   234A      0.977568  
     235A      0.979532   236A      0.981267   237A      0.998442  
     238A      1.000789   239A      1.005036   240A      1.009319  
     241A      1.012862   242A      1.024231   243A      1.028200  
     244A      1.032539   245A      1.036201   246A      1.038062  
     247A      1.041715   248A      1.049491   249A      1.058570  
     250A      1.061936   251A      1.069771   252A      1.071665  
     253A      1.076430   254A      1.085545   255A      1.089499  
     256A      1.096263   257A      1.097063   258A      1.101007  
     259A      1.104924   260A      1.119810   261A      1.121405  
     262A      1.127322   263A      1.131974   264A      1.133291  
     265A      1.136249   266A      1.144540   267A      1.148109  
     268A      1.153710   269A      1.160990   270A      1.168289  
     271A      1.172580   272A      1.182846   273A      1.184481  
     274A      1.187235   275A      1.196040   276A      1.199371  
     277A      1.208158   278A      1.214777   279A      1.216744  
     280A      1.220931   281A      1.222521   282A      1.228153  
     283A      1.233599   284A      1.235028   285A      1.244823  
     286A      1.250779   287A      1.254652   288A      1.260089  
     289A      1.265235   290A      1.274229   291A      1.277449  
     292A      1.282694   293A      1.287540   294A      1.292820  
     295A      1.296173   296A      1.302529   297A      1.310288  
     298A      1.318944   299A      1.321024   300A      1.325469  
     301A      1.335884   302A      1.344485   303A      1.346516  
     304A      1.354509   305A      1.361691   306A      1.366700  
     307A      1.372907   308A      1.379999   309A      1.395043  
     310A      1.406372   311A      1.409984   312A      1.412334  
     313A      1.420433   314A      1.423854   315A      1.436299  
     316A      1.443231   317A      1.451135   318A      1.455733  
     319A      1.461986   320A      1.477506   321A      1.480758  
     322A      1.490206   323A      1.494932   324A      1.498643  
     325A      1.503027   326A      1.509932   327A      1.521027  
     328A      1.523170   329A      1.525850   330A      1.538505  
     331A      1.548631   332A      1.557035   333A      1.565402  
     334A      1.579346   335A      1.580890   336A      1.584884  
     337A      1.590459   338A      1.602060   339A      1.604820  
     340A      1.613228   341A      1.619933   342A      1.632400  
     343A      1.634021   344A      1.636311   345A      1.655017  
     346A      1.656794   347A      1.663869   348A      1.672140  
     349A      1.676352   350A      1.681396   351A      1.689595  
     352A      1.692060   353A      1.701509   354A      1.710160  
     355A      1.714053   356A      1.715592   357A      1.727289  
     358A      1.731905   359A      1.733874   360A      1.737957  
     361A      1.747987   362A      1.754709   363A      1.761966  
     364A      1.771011   365A      1.779152   366A      1.783779  
     367A      1.791437   368A      1.794305   369A      1.802606  
     370A      1.804257   371A      1.814006   372A      1.817291  
     373A      1.821955   374A      1.828991   375A      1.834642  
     376A      1.838252   377A      1.846664   378A      1.853838  
     379A      1.856714   380A      1.860558   381A      1.868543  
     382A      1.876566   383A      1.882752   384A      1.887919  
     385A      1.890128   386A      1.896232   387A      1.909304  
     388A      1.912613   389A      1.922613   390A      1.929012  
     391A      1.937228   392A      1.939936   393A      1.962910  
     394A      1.965909   395A      1.972510   396A      1.975606  
     397A      1.981349   398A      1.983003   399A      1.987590  
     400A      1.994197   401A      2.002880   402A      2.009264  
     403A      2.011257   404A      2.029046   405A      2.031222  
     406A      2.035693   407A      2.042321   408A      2.047010  
     409A      2.055007   410A      2.062591   411A      2.070620  
     412A      2.079173   413A      2.084445   414A      2.094096  
     415A      2.106806   416A      2.108280   417A      2.113381  
     418A      2.122965   419A      2.125782   420A      2.133181  
     421A      2.134943   422A      2.140832   423A      2.155491  
     424A      2.161308   425A      2.167561   426A      2.176711  
     427A      2.183750   428A      2.198551   429A      2.206987  
     430A      2.222834   431A      2.232816   432A      2.241606  
     433A      2.244300   434A      2.270748   435A      2.277706  
     436A      2.281079   437A      2.295168   438A      2.298500  
     439A      2.306771   440A      2.315226   441A      2.320835  
     442A      2.326068   443A      2.327783   444A      2.343166  
     445A      2.357222   446A      2.362111   447A      2.369618  
     448A      2.384439   449A      2.387073   450A      2.397869  
     451A      2.415126   452A      2.418318   453A      2.424450  
     454A      2.437652   455A      2.443962   456A      2.449117  
     457A      2.458160   458A      2.468394   459A      2.476612  
     460A      2.492419   461A      2.511089   462A      2.520794  
     463A      2.534212   464A      2.547338   465A      2.549459  
     466A      2.561867   467A      2.565802   468A      2.577855  
     469A      2.592228   470A      2.599363   471A      2.609960  
     472A      2.617878   473A      2.641908   474A      2.649936  
     475A      2.657857   476A      2.679133   477A      2.683078  
     478A      2.712706   479A      2.737582   480A      2.765070  
     481A      2.767587   482A      2.791679   483A      2.865465  
     484A      2.875902   485A      2.884629   486A      2.937785  
     487A      2.973927   488A      2.998534   489A      3.034884  
     490A      3.113444   491A      3.149153   492A      3.216699  
     493A      3.277842   494A      3.308280   495A      3.324136  
     496A      3.405954   497A      3.425072   498A      3.431816  
     499A      3.453687   500A      3.464140   501A      3.483151  
     502A      3.495587   503A      3.500681   504A      3.511457  
     505A      3.537669   506A      3.540172   507A      3.555277  
     508A      3.565536   509A      3.584896   510A      3.590273  
     511A      3.618223   512A      3.626368   513A      3.629078  
     514A      3.634639   515A      3.648980   516A      3.655445  
     517A      3.666643   518A      3.679515   519A      3.688830  
     520A      3.695543   521A      3.702455   522A      3.714725  
     523A      3.729803   524A      3.740988   525A      3.749482  
     526A      3.759935   527A      3.767657   528A      3.772080  
     529A      3.778409   530A      3.795251   531A      3.799250  
     532A      3.805018   533A      3.811398   534A      3.821002  
     535A      3.829397   536A      3.833923   537A      3.848272  
     538A      3.854902   539A      3.857213   540A      3.863314  
     541A      3.872028   542A      3.879405   543A      3.884483  
     544A      3.906765   545A      3.912278   546A      3.926630  
     547A      3.933005   548A      3.933978   549A      3.940995  
     550A      3.958194   551A      3.962914   552A      3.967820  
     553A      3.974524   554A      3.982195   555A      3.986905  
     556A      4.000924   557A      4.007508   558A      4.019222  
     559A      4.022092   560A      4.027208   561A      4.028300  
     562A      4.041778   563A      4.043170   564A      4.049380  
     565A      4.051046   566A      4.060076   567A      4.072571  
     568A      4.076644   569A      4.082378   570A      4.084841  
     571A      4.096470   572A      4.105009   573A      4.110638  
     574A      4.114821   575A      4.120402   576A      4.133306  
     577A      4.136811   578A      4.154485   579A      4.161928  
     580A      4.163692   581A      4.175529   582A      4.197920  
     583A      4.200899   584A      4.209521   585A      4.218672  
     586A      4.228524   587A      4.239766   588A      4.249956  
     589A      4.259809   590A      4.272690   591A      4.277095  
     592A      4.278518   593A      4.288052   594A      4.305724  
     595A      4.317052   596A      4.326012   597A      4.331717  
     598A      4.338179   599A      4.360483   600A      4.365873  
     601A      4.387010   602A      4.395089   603A      4.401794  
     604A      4.405894   605A      4.426651   606A      4.433453  
     607A      4.443755   608A      4.448797   609A      4.475137  
     610A      4.485278   611A      4.498215   612A      4.515573  
     613A      4.528532   614A      4.544881   615A      4.553914  
     616A      4.560892   617A      4.576215   618A      4.588145  
     619A      4.605552   620A      4.611721   621A      4.626198  
     622A      4.632881   623A      4.648726   624A      4.671175  
     625A      4.683208   626A      4.688917   627A      4.689466  
     628A      4.702153   629A      4.711932   630A      4.724824  
     631A      4.749313   632A      4.754653   633A      4.765761  
     634A      4.781688   635A      4.788601   636A      4.803792  
     637A      4.805762   638A      4.815785   639A      4.822920  
     640A      4.836552   641A      4.848821   642A      4.856354  
     643A      4.876641   644A      4.880557   645A      4.884952  
     646A      4.899091   647A      4.905719   648A      4.914689  
     649A      4.925397   650A      4.944453   651A      4.947073  
     652A      4.957814   653A      4.969217   654A      4.984719  
     655A      4.990380   656A      5.016883   657A      5.024650  
     658A      5.032649   659A      5.035295   660A      5.051237  
     661A      5.071798   662A      5.077979   663A      5.095501  
     664A      5.113758   665A      5.129495   666A      5.144812  
     667A      5.152656   668A      5.159215   669A      5.183439  
     670A      5.188938   671A      5.193609   672A      5.201117  
     673A      5.220723   674A      5.224344   675A      5.231643  
     676A      5.245688   677A      5.256863   678A      5.283912  
     679A      5.290768   680A      5.302192   681A      5.317994  
     682A      5.325214   683A      5.339072   684A      5.343131  
     685A      5.358862   686A      5.368751   687A      5.380040  
     688A      5.393991   689A      5.402563   690A      5.404323  
     691A      5.408716   692A      5.419726   693A      5.425854  
     694A      5.435809   695A      5.450721   696A      5.470141  
     697A      5.474144   698A      5.482107   699A      5.500204  
     700A      5.504690   701A      5.519255   702A      5.538078  
     703A      5.545861   704A      5.573354   705A      5.581017  
     706A      5.591387   707A      5.602901   708A      5.608307  
     709A      5.620233   710A      5.641146   711A      5.645094  
     712A      5.655567   713A      5.665466   714A      5.674193  
     715A      5.682311   716A      5.685389   717A      5.712051  
     718A      5.715423   719A      5.724202   720A      5.743028  
     721A      5.754462   722A      5.761759   723A      5.803019  
     724A      5.814066   725A      5.828393   726A      5.855619  
     727A      5.862490   728A      5.881577   729A      5.893046  
     730A      5.899673   731A      5.911999   732A      5.948399  
     733A      5.957212   734A      5.986068   735A      5.998824  
     736A      6.033581   737A      6.050835   738A      6.073371  
     739A      6.084901   740A      6.117376   741A      6.126641  
     742A      6.139860   743A      6.170263   744A      6.178626  
     745A      6.215314   746A      6.253939   747A      6.258230  
     748A      6.276500   749A      6.282069   750A      6.299804  
     751A      6.317924   752A      6.332393   753A      6.336470  
     754A      6.341067   755A      6.369752   756A      6.375358  
     757A      6.396935   758A      6.415138   759A      6.589285  
     760A      6.605491   761A      6.654238   762A      6.672079  
     763A      6.714581   764A      6.777929   765A      6.803496  
     766A      6.862524   767A      6.874723   768A      6.915322  
     769A      6.921155   770A      6.986276   771A      7.019256  
     772A      7.032214   773A      7.062879   774A      7.149051  
     775A     17.832573   776A     17.948473   777A     18.248511  
     778A     18.418080   779A     18.584599   780A     18.819939  
     781A     19.267533   782A     19.771991  

    Final Occupation by Irrep:
              A 
    DOCC [    33 ]

  Energy converged.

  @DF-RHF Final Energy:  -313.54194221151698

   => Energetics <=

    Nuclear Repulsion Energy =            394.1898264113063419
    One-Electron Energy =               -1203.5235033744256725
    Two-Electron Energy =                 495.7917347516022346
    DFT Exchange-Correlation Energy =       0.0000000000000000
    Empirical Dispersion Energy =           0.0000000000000000
    PCM Polarization Energy =               0.0000000000000000
    EFP Energy =                            0.0000000000000000
    Total Energy =                       -313.5419422115171528


  Saving occupied orbitals to File 180.

*** tstop() called on wr42 at Wed Sep 21 15:19:49 2016
Module time:
	user time   =     607.33 seconds =      10.12 minutes
	system time =       7.66 seconds =       0.13 minutes
	total time  =         63 seconds =       1.05 minutes
Total time:
	user time   =     607.33 seconds =      10.12 minutes
	system time =       7.66 seconds =       0.13 minutes
	total time  =         63 seconds =       1.05 minutes


Properties will be evaluated at   0.000000,   0.000000,   0.000000 Bohr

Properties computed using the SCF density matrix

  Nuclear Dipole Moment: (a.u.)
     X:     0.3212      Y:    -1.0986      Z:    -0.2658

  Electronic Dipole Moment: (a.u.)
     X:    -0.3216      Y:     1.0997      Z:     0.2619

  Dipole Moment: (a.u.)
     X:    -0.0003      Y:     0.0011      Z:    -0.0040     Total:     0.0041

  Dipole Moment: (Debye)
     X:    -0.0008      Y:     0.0027      Z:    -0.0101     Total:     0.0105


  //>>>>>>>>>>>>>>>>>>>>>>>>>>>>>>>>>>>//
  //               DFMP2               //
  //<<<<<<<<<<<<<<<<<<<<<<<<<<<<<<<<<<<//


*** tstart() called on wr42
*** at Wed Sep 21 15:19:49 2016


*** tstop() called on wr42 at Wed Sep 21 15:19:50 2016
Module time:
	user time   =       4.14 seconds =       0.07 minutes
	system time =       0.15 seconds =       0.00 minutes
	total time  =          1 seconds =       0.02 minutes
Total time:
	user time   =     611.57 seconds =      10.19 minutes
	system time =       7.81 seconds =       0.13 minutes
	total time  =         64 seconds =       1.07 minutes
	 --------------------------------------------------------
	                          DF-MP2                         
	      2nd-Order Density-Fitted Moller-Plesset Theory     
	              RMP2 Wavefunction,  12 Threads             
	                                                         
	        Rob Parrish, Justin Turney, Andy Simmonett,      
	           Ed Hohenstein, and C. David Sherrill          
	 --------------------------------------------------------

   => Auxiliary Basis Set <=

  Basis Set: 
    Number of shells: 476
    Number of basis function: 1676
    Number of Cartesian functions: 2078
    Spherical Harmonics?: true
    Max angular momentum: 4

	 --------------------------------------------------------
	                 NBF =   782, NAUX =  1676
	 --------------------------------------------------------
	   CLASS    FOCC     OCC    AOCC    AVIR     VIR    FVIR
	   PAIRS       8      33      25     749     749       0
	 --------------------------------------------------------

DGAS Warning! /src/lib/libfock/apps.cc:80 is not currently checking restricted

         ------------------------------------------------------------
                                     CPHF                           
                                  Rob Parrish                       
         ------------------------------------------------------------

  ==> Geometry <==

    Molecular point group: c1
    Full point group: C1

    Geometry (in Angstrom), charge = 0, multiplicity = 1:

       Center              X                  Y                   Z               Mass       
    ------------   -----------------  -----------------  -----------------  -----------------
           C         -2.946266966301    -1.130162707508     0.497741700867    12.000000000000
           H         -3.412665162721    -2.093021802061     0.290707992900     1.007825032070
           H         -3.666834913043    -0.518682905224     1.043719305288     1.007825032070
           H         -2.097087209373    -1.310056243211     1.157117514271     1.007825032070
           C          3.367194922523    -0.322618137666    -0.861620963071    12.000000000000
           H          2.642495747888    -0.548996446802    -1.642738984894     1.007825032070
           H          4.244075941883    -0.946009540449    -1.034723863815     1.007825032070
           H          3.669068606017     0.719727331277    -0.977948998021     1.007825032070
           C         -2.516603808280    -0.437441076647    -0.790547071382    12.000000000000
           H         -3.370680386297    -0.372460172131    -1.468232730052     1.007825032070
           H         -1.768094129479    -1.046284916282    -1.302238391357     1.007825032070
           C          2.786583967006    -0.561371389057     0.528149811263    12.000000000000
           H          2.454598860924    -1.599807589615     0.613720041491     1.007825032070
           H          3.572931837455    -0.425221559900     1.273935982371     1.007825032070
           C         -1.968546164308     0.970644374586    -0.560175342636    12.000000000000
           H         -2.772192083479     1.601739700320    -0.169349839532     1.007825032070
           H         -1.674674399900     1.400735999040    -1.521971192726     1.007825032070
           C         -0.776545239506     1.035385614094     0.393642534309    12.000000000000
           H         -1.084434727065     0.735047131169     1.398934038424     1.007825032070
           H         -0.447620862469     2.075381661809     0.475868590628     1.007825032070
           C          0.406334402999     0.179518617091    -0.044385836210    12.000000000000
           H          0.124056889366    -0.877905518671    -0.043819039574     1.007825032070
           H          0.664122535061     0.432879337734    -1.076684606231     1.007825032070
           C          1.619070246618     0.364467951024     0.861011789531    12.000000000000
           H          1.955222711336     1.404947276440     0.803164397768     1.007825032070
           H          1.310373071180     0.196079528933     1.896959337083     1.007825032070

  Nuclear repulsion =  394.189826411306342
  Reference energy  = -313.541942211516982

  ==> Basis Set <==

  Basis Set: AUG-CC-PVTZ
    Number of shells: 274
    Number of basis function: 782
    Number of Cartesian functions: 890
    Spherical Harmonics?: true
    Max angular momentum: 3

  ==> CGRSolver (by Rob Parrish) <==

   Number of roots    =         1
   Preconditioning    =    JACOBI
   Convergence cutoff =     1E-06
   Maximum iterations =       100

  ==> CPHFRHamiltonian (by Rob Parrish) <== 

  ==> DFJK: Density-Fitted J/K Matrices <==

    J tasked:                  Yes
    K tasked:                  Yes
    wK tasked:                  No
    OpenMP threads:             12
    Integrals threads:          12
    Memory (MB):             42915
    Algorithm:                Core
    Integral Cache:           NONE
    Schwarz Cutoff:          1E-12
    Fitting Condition:       1E-12

   => Auxiliary Basis Set <=

  Basis Set: 
    Number of shells: 492
    Number of basis function: 1660
    Number of Cartesian functions: 2038
    Spherical Harmonics?: true
    Max angular momentum: 4

  ==> CPHF Iterations <==

  => Iterations <=

             Iter  Converged  Remaining    Residual
  CGR           1          0          1   9.168E-02
  CGR           2          0          1   1.285E-02
  CGR           3          0          1   3.320E-03
  CGR           4          0          1   8.251E-04
  CGR           5          0          1   2.016E-04
  CGR           6          0          1   4.490E-05
  CGR           7          0          1   1.336E-05
  CGR           8          0          1   3.074E-06
  CGR           9          1          0   7.802E-07

    CGRSolver converged.

  ==> DFCorrGrad: Density-Fitted Correlated Gradients <==

    OpenMP threads:             12
    Integrals threads:          12
    Memory (MB):             42915
    Schwarz Cutoff:          0E+00
    Fitting Condition:       1E-12

   => Auxiliary Basis Set <=

  Basis Set: 
    Number of shells: 492
    Number of basis function: 1660
    Number of Cartesian functions: 2038
    Spherical Harmonics?: true
    Max angular momentum: 4

	-----------------------------------------------------------
	 ==================> DF-MP2 Energies <==================== 
	-----------------------------------------------------------
	 Reference Energy          =    -313.5419422115169823 [Eh]
	 Singles Energy            =      -0.0000000000000000 [Eh]
	 Same-Spin Energy          =      -0.3163533130169486 [Eh]
	 Opposite-Spin Energy      =      -1.1253517620182076 [Eh]
	 Correlation Energy        =      -1.4417050750351561 [Eh]
	 Total Energy              =    -314.9836472865521273 [Eh]
	-----------------------------------------------------------
	 ================> DF-SCS-MP2 Energies <================== 
	-----------------------------------------------------------
	 SCS Same-Spin Scale       =       0.3333333333333333 [-]
	 SCS Opposite-Spin Scale   =       1.2000000000000000 [-]
	 SCS Same-Spin Energy      =      -0.1054511043389829 [Eh]
	 SCS Opposite-Spin Energy  =      -1.3504221144218491 [Eh]
	 SCS Correlation Energy    =      -1.4558732187608321 [Eh]
	 SCS Total Energy          =    -314.9978154302777966 [Eh]
	-----------------------------------------------------------


  -Total Gradient:
     Atom            X                  Y                   Z
    ------   -----------------  -----------------  -----------------
       1        0.000000044892     0.000000065218    -0.000000141646
       2       -0.000000008764    -0.000000018741     0.000000033858
       3       -0.000000062573     0.000000059372     0.000000078683
       4        0.000000063567    -0.000000027761     0.000000053617
       5       -0.000000097694     0.000000064766    -0.000000149616
       6        0.000000107232     0.000000022626     0.000000056792
       7       -0.000000092701     0.000000034943     0.000000010679
       8       -0.000000036058    -0.000000171731     0.000000058218
       9        0.000000136349    -0.000000026521    -0.000000091415
      10        0.000000053188    -0.000000050911     0.000000037740
      11       -0.000000110387     0.000000119477     0.000000117872
      12        0.000000002573     0.000000062346     0.000000255001
      13        0.000000080335     0.000000109521     0.000000001163
      14       -0.000000158848    -0.000000013354    -0.000000080812
      15        0.000000053074    -0.000000013319     0.000000045014
      16        0.000000007333    -0.000000024736    -0.000000054763
      17        0.000000016968    -0.000000069890     0.000000157016
      18       -0.000000386156    -0.000000187998    -0.000000359643
      19       -0.000000132089    -0.000000034087     0.000000132756
      20        0.000000074277     0.000000175353     0.000000014310
      21        0.000000245845     0.000000258598     0.000000179043
      22        0.000000017005    -0.000000118284    -0.000000190286
      23        0.000000043557    -0.000000028083    -0.000000135577
      24        0.000000133330    -0.000000212867    -0.000000009407
      25        0.000000024129    -0.000000014332    -0.000000055888
      26       -0.000000018382     0.000000040394     0.000000037288


			-----------------------------------------
			 OPTKING 2.0: for geometry optimizations 
			  - R.A. King,  Bethel University        
			-----------------------------------------

	Internal coordinates to be generated automatically.
	Detected frag 1 with atoms:  1 2 3 4 5 6 7 8 9 10 11 12 13 14 15 16 17 18 19 20
	 21 22 23 24 25 26
	---Fragment 1 Bond Connectivity---
	 1 : 2 3 4 9
	 2 : 1
	 3 : 1
	 4 : 1
	 5 : 6 7 8 12
	 6 : 5
	 7 : 5
	 8 : 5
	 9 : 1 10 11 15
	 10 : 9
	 11 : 9
	 12 : 5 13 14 24
	 13 : 12
	 14 : 12
	 15 : 9 16 17 18
	 16 : 15
	 17 : 15
	 18 : 15 19 20 21
	 19 : 18
	 20 : 18
	 21 : 18 22 23 24
	 22 : 21
	 23 : 21
	 24 : 12 21 25 26
	 25 : 24
	 26 : 24

	---Fragment 1 Geometry and Gradient---
	 C          -5.5676376807       -2.1356980028        0.9405954996
	 H          -6.4490025408       -3.9552379961        0.5493584912
	 H          -6.9293137602       -0.9801686407        1.9723436466
	 H          -3.9629205025       -2.4756475183        2.1866352055
	 C           6.3630762396       -0.6096599257       -1.6282276506
	 H           4.9935932708       -1.0374529324       -3.1043267893
	 H           8.0201412173       -1.7876989505       -1.9553447258
	 H           6.9335348281        1.3600875465       -1.8480557782
	 C          -4.7556919826       -0.8266438341       -1.4939174601
	 H          -6.3696628116       -0.7038477207       -2.7745577591
	 H          -3.3412136819       -1.9771919487       -2.4608739194
	 C           5.2658805439       -1.0608381842        0.9980585004
	 H           4.6385196132       -3.0231982097        1.1597628007
	 H           6.7518626643       -0.8035522940        2.4073901175
	 C          -3.7200131305        1.8342520404       -1.0585779840
	 H          -5.2386838255        3.0268493698       -0.3200248174
	 H          -3.1646759776        2.6470074227       -2.8761087364
	 C          -1.4674578325        1.9565952526        0.7438765841
	 H          -2.0492846431        1.3890377727        2.6436022106
	 H          -0.8458808414        3.9219029620        0.8992613115
	 C           0.7678607400        0.3392410221       -0.0838770746
	 H           0.2344335458       -1.6590010008       -0.0828059842
	 H           1.2550097099        0.8180233969       -2.0346390373
	 C           3.0595993560        0.6887446116        1.6270764794
	 H           3.6948354532        2.6549655836        1.5177607515
	 H           2.4762462364        0.3705366099        3.5847336323
	             0.0000000449        0.0000000652       -0.0000001416
	            -0.0000000088       -0.0000000187        0.0000000339
	            -0.0000000626        0.0000000594        0.0000000787
	             0.0000000636       -0.0000000278        0.0000000536
	            -0.0000000977        0.0000000648       -0.0000001496
	             0.0000001072        0.0000000226        0.0000000568
	            -0.0000000927        0.0000000349        0.0000000107
	            -0.0000000361       -0.0000001717        0.0000000582
	             0.0000001363       -0.0000000265       -0.0000000914
	             0.0000000532       -0.0000000509        0.0000000377
	            -0.0000001104        0.0000001195        0.0000001179
	             0.0000000026        0.0000000623        0.0000002550
	             0.0000000803        0.0000001095        0.0000000012
	            -0.0000001588       -0.0000000134       -0.0000000808
	             0.0000000531       -0.0000000133        0.0000000450
	             0.0000000073       -0.0000000247       -0.0000000548
	             0.0000000170       -0.0000000699        0.0000001570
	            -0.0000003862       -0.0000001880       -0.0000003596
	            -0.0000001321       -0.0000000341        0.0000001328
	             0.0000000743        0.0000001754        0.0000000143
	             0.0000002458        0.0000002586        0.0000001790
	             0.0000000170       -0.0000001183       -0.0000001903
	             0.0000000436       -0.0000000281       -0.0000001356
	             0.0000001333       -0.0000002129       -0.0000000094
	             0.0000000241       -0.0000000143       -0.0000000559
	            -0.0000000184        0.0000000404        0.0000000373

	Previous optimization step data not found.  Starting new optimization.

	---Fragment 1 Intrafragment Coordinates---
	 - Coordinate -           - BOHR/RAD -       - ANG/DEG -
	 R(1,2)           =         2.059271	       1.089719
	 R(1,3)           =         2.062502	       1.091429
	 R(1,4)           =         2.059927	       1.090066
	 R(1,9)           =         2.880926	       1.524520
	 R(5,6)           =         2.058485	       1.089303
	 R(5,7)           =         2.059283	       1.089726
	 R(5,8)           =         2.062438	       1.091395
	 R(5,12)          =         2.881801	       1.524984
	 R(9,10)          =         2.063982	       1.092212
	 R(9,11)          =         2.063859	       1.092147
	 R(9,15)          =         2.888342	       1.528445
	 R(12,13)         =         2.066540	       1.093566
	 R(12,14)         =         2.064111	       1.092281
	 R(12,24)         =         2.885200	       1.526782
	 R(15,16)         =         2.067392	       1.094017
	 R(15,17)         =         2.066976	       1.093796
	 R(15,18)         =         2.887528	       1.528014
	 R(18,19)         =         2.066301	       1.093440
	 R(18,20)         =         2.067108	       1.093867
	 R(18,21)         =         2.880566	       1.524330
	 R(21,22)         =         2.068216	       1.094453
	 R(21,23)         =         2.066886	       1.093749
	 R(21,24)         =         2.881246	       1.524690
	 R(24,25)         =         2.069179	       1.094962
	 R(24,26)         =         2.067360	       1.094000
	 B(1,9,10)        =         1.908131	     109.327856
	 B(1,9,11)        =         1.913217	     109.619248
	 B(1,9,15)        =         1.973923	     113.097431
	 B(2,1,3)         =         1.883368	     107.909018
	 B(2,1,4)         =         1.878135	     107.609203
	 B(2,1,9)         =         1.940743	     111.196366
	 B(3,1,4)         =         1.879871	     107.708661
	 B(3,1,9)         =         1.932879	     110.745811
	 B(4,1,9)         =         1.946145	     111.505906
	 B(5,12,13)       =         1.912998	     109.606737
	 B(5,12,14)       =         1.905650	     109.185686
	 B(5,12,24)       =         1.976743	     113.259021
	 B(6,5,7)         =         1.878163	     107.610799
	 B(6,5,8)         =         1.881851	     107.822122
	 B(6,5,12)        =         1.947296	     111.571843
	 B(7,5,8)         =         1.882680	     107.869594
	 B(7,5,12)        =         1.940749	     111.196699
	 B(8,5,12)        =         1.930471	     110.607820
	 B(9,15,16)       =         1.898509	     108.776559
	 B(9,15,17)       =         1.902919	     109.029240
	 B(9,15,18)       =         1.996365	     114.383302
	 B(10,9,11)       =         1.852916	     106.164271
	 B(10,9,15)       =         1.895578	     108.608621
	 B(11,9,15)       =         1.916057	     109.781989
	 B(12,24,21)      =         1.988007	     113.904394
	 B(12,24,25)      =         1.907046	     109.265698
	 B(12,24,26)      =         1.905918	     109.201063
	 B(13,12,14)      =         1.858226	     106.468524
	 B(13,12,24)      =         1.903527	     109.064045
	 B(14,12,24)      =         1.902938	     109.030289
	 B(15,18,19)      =         1.920481	     110.035478
	 B(15,18,20)      =         1.898405	     108.770623
	 B(15,18,21)      =         1.984706	     113.715284
	 B(16,15,17)      =         1.859449	     106.538587
	 B(16,15,18)      =         1.902453	     109.002503
	 B(17,15,18)      =         1.899312	     108.822588
	 B(18,21,22)      =         1.920035	     110.009914
	 B(18,21,23)      =         1.900802	     108.907960
	 B(18,21,24)      =         1.958951	     112.239611
	 B(19,18,20)      =         1.851161	     106.063723
	 B(19,18,21)      =         1.905487	     109.176341
	 B(20,18,21)      =         1.898720	     108.788658
	 B(21,24,25)      =         1.905069	     109.152389
	 B(21,24,26)      =         1.895684	     108.614695
	 B(22,21,23)      =         1.859891	     106.563916
	 B(22,21,24)      =         1.898677	     108.786206
	 B(23,21,24)      =         1.922921	     110.175255
	 B(25,24,26)      =         1.857628	     106.434269
	 D(1,9,15,16)     =        -1.128100	     -64.635359
	 D(1,9,15,17)     =         3.133920	     179.560394
	 D(1,9,15,18)     =         1.003291	      57.484363
	 D(2,1,9,10)      =         0.938918	      53.796049
	 D(2,1,9,11)      =        -1.085505	     -62.194862
	 D(2,1,9,15)      =         3.053308	     174.941690
	 D(3,1,9,10)      =        -1.154992	     -66.176173
	 D(3,1,9,11)      =         3.103770	     177.832917
	 D(3,1,9,15)      =         0.959398	      54.969469
	 D(4,1,9,10)      =         3.035116	     173.899339
	 D(4,1,9,11)      =         1.010693	      57.908429
	 D(4,1,9,15)      =        -1.133679	     -64.955020
	 D(5,12,24,21)    =         1.102170	      63.149686
	 D(5,12,24,25)    =        -1.033220	     -59.199146
	 D(5,12,24,26)    =        -3.058587	    -175.244155
	 D(6,5,12,13)     =         1.009129	      57.818832
	 D(6,5,12,14)     =         3.038402	     174.087630
	 D(6,5,12,24)     =        -1.120869	     -64.221068
	 D(7,5,12,13)     =        -1.087888	     -62.331380
	 D(7,5,12,14)     =         0.941386	      53.937418
	 D(7,5,12,24)     =         3.065299	     175.628720
	 D(8,5,12,13)     =         3.103849	     177.837475
	 D(8,5,12,14)     =        -1.150062	     -65.893727
	 D(8,5,12,24)     =         0.973851	      55.797576
	 D(9,15,18,19)    =        -1.140580	     -65.350445
	 D(9,15,18,20)    =         3.121757	     178.863522
	 D(9,15,18,21)    =         1.003127	      57.474917
	 D(10,9,15,16)    =         0.993373	      56.916094
	 D(10,9,15,17)    =        -1.027792	     -58.888152
	 D(10,9,15,18)    =         3.124764	     179.035817
	 D(11,9,15,16)    =         3.012291	     172.591549
	 D(11,9,15,17)    =         0.991125	      56.787303
	 D(11,9,15,18)    =        -1.139503	     -65.288728
	 D(12,24,21,18)   =         3.056589	     175.129672
	 D(12,24,21,22)   =         0.927691	      53.152789
	 D(12,24,21,23)   =        -1.105171	     -63.321648
	 D(13,12,24,21)   =        -1.033108	     -59.192708
	 D(13,12,24,25)   =         3.114688	     178.458459
	 D(13,12,24,26)   =         1.089320	      62.413451
	 D(14,12,24,21)   =        -3.055582	    -175.071963
	 D(14,12,24,25)   =         1.092213	      62.579204
	 D(14,12,24,26)   =        -0.933154	     -53.465804
	 D(15,18,21,22)   =        -1.114019	     -63.828592
	 D(15,18,21,23)   =         0.918447	      52.623133
	 D(15,18,21,24)   =         3.052480	     174.894203
	 D(16,15,18,19)   =         0.988656	      56.645832
	 D(16,15,18,20)   =        -1.032191	     -59.140201
	 D(16,15,18,21)   =         3.132363	     179.471193
	 D(17,15,18,19)   =         3.010007	     172.460710
	 D(17,15,18,20)   =         0.989160	      56.674677
	 D(17,15,18,21)   =        -1.129471	     -64.713929
	 D(18,21,24,25)   =        -1.090119	     -62.459239
	 D(18,21,24,26)   =         0.928501	      53.199175
	 D(19,18,21,22)   =         1.037894	      59.466926
	 D(19,18,21,23)   =         3.070360	     175.918651
	 D(19,18,21,24)   =        -1.078793	     -61.810280
	 D(20,18,21,22)   =         3.050711	     174.792855
	 D(20,18,21,23)   =        -1.200008	     -68.755419
	 D(20,18,21,24)   =         0.934024	      53.515650
	 D(22,21,24,25)   =         3.064168	     175.563878
	 D(22,21,24,26)   =        -1.200397	     -68.777708
	 D(23,21,24,25)   =         1.031305	      59.089441
	 D(23,21,24,26)   =         3.049925	     174.747855
	 R(1,21)          =         6.878474	       3.639932

	Current energy   :      -314.9836472866

	Generating empirical Hessian (Schlegel '84) for each fragment.
	Taking RFO optimization step.
	Going to follow RFO solution 1.
	Using RFO vector 1.
	Norm of target step-size    0.00012
	Projected energy change by RFO approximation:         0.0000000000

	Back-transformation to cartesian coordinates...
	Successfully converged to displaced geometry.

	--- Internal Coordinate Step in ANG or DEG, aJ/ANG or AJ/DEG ---
	 ---------------------------------------------------------------------------
	   Coordinate                Previous        Force       Change         New 
	   ----------                --------       ------       ------       ------
	    1 R(1,2)          =      1.089719    -0.000000    -0.000000     1.089719
	    2 R(1,3)          =      1.091429    -0.000001    -0.000000     1.091429
	    3 R(1,4)          =      1.090066    -0.000001    -0.000000     1.090066
	    4 R(1,9)          =      1.524520    -0.000000     0.000000     1.524520
	    5 R(5,6)          =      1.089303     0.000001     0.000000     1.089303
	    6 R(5,7)          =      1.089726     0.000001     0.000000     1.089726
	    7 R(5,8)          =      1.091395     0.000001     0.000000     1.091396
	    8 R(5,12)         =      1.524984     0.000000     0.000000     1.524984
	    9 R(9,10)         =      1.092212     0.000001     0.000000     1.092212
	   10 R(9,11)         =      1.092147     0.000002     0.000000     1.092148
	   11 R(9,15)         =      1.528445     0.000001     0.000000     1.528445
	   12 R(12,13)        =      1.093566     0.000001     0.000000     1.093566
	   13 R(12,14)        =      1.092281     0.000001     0.000000     1.092281
	   14 R(12,24)        =      1.526782     0.000002     0.000000     1.526783
	   15 R(15,16)        =      1.094017     0.000000     0.000000     1.094017
	   16 R(15,17)        =      1.093796     0.000001     0.000000     1.093797
	   17 R(15,18)        =      1.528014     0.000002     0.000001     1.528014
	   18 R(18,19)        =      1.093440    -0.000001    -0.000000     1.093439
	   19 R(18,20)        =      1.093867    -0.000002    -0.000000     1.093866
	   20 R(18,21)        =      1.524330    -0.000002    -0.000000     1.524329
	   21 R(21,22)        =      1.094453    -0.000001    -0.000000     1.094453
	   22 R(21,23)        =      1.093749    -0.000001    -0.000000     1.093749
	   23 R(21,24)        =      1.524690     0.000000     0.000000     1.524690
	   24 R(24,25)        =      1.094962     0.000000     0.000000     1.094962
	   25 R(24,26)        =      1.094000    -0.000000    -0.000000     1.094000
	   26 B(1,9,10)       =    109.327856     0.000000    -0.000031   109.327826
	   27 B(1,9,11)       =    109.619248    -0.000000     0.000010   109.619259
	   28 B(1,9,15)       =    113.097431     0.000000     0.000067   113.097498
	   29 B(2,1,3)        =    107.909018     0.000000     0.000002   107.909020
	   30 B(2,1,4)        =    107.609203     0.000000     0.000012   107.609215
	   31 B(2,1,9)        =    111.196366    -0.000000    -0.000017   111.196349
	   32 B(3,1,4)        =    107.708661     0.000000     0.000009   107.708670
	   33 B(3,1,9)        =    110.745811    -0.000000    -0.000011   110.745800
	   34 B(4,1,9)        =    111.505906     0.000000     0.000005   111.505911
	   35 B(5,12,13)      =    109.606737     0.000000     0.000031   109.606768
	   36 B(5,12,14)      =    109.185686    -0.000000    -0.000054   109.185632
	   37 B(5,12,24)      =    113.259021     0.000000     0.000034   113.259055
	   38 B(6,5,7)        =    107.610799     0.000000     0.000013   107.610812
	   39 B(6,5,8)        =    107.822122    -0.000000    -0.000006   107.822116
	   40 B(6,5,12)       =    111.571843    -0.000000    -0.000027   111.571815
	   41 B(7,5,8)        =    107.869594    -0.000000    -0.000000   107.869594
	   42 B(7,5,12)       =    111.196699    -0.000000     0.000002   111.196700
	   43 B(8,5,12)       =    110.607820     0.000000     0.000019   110.607838
	   44 B(9,15,16)      =    108.776559     0.000000     0.000004   108.776564
	   45 B(9,15,17)      =    109.029240    -0.000000    -0.000061   109.029179
	   46 B(9,15,18)      =    114.383302     0.000000     0.000106   114.383408
	   47 B(10,9,11)      =    106.164271     0.000000    -0.000018   106.164253
	   48 B(10,9,15)      =    108.608621    -0.000000    -0.000044   108.608577
	   49 B(11,9,15)      =    109.781989    -0.000000     0.000010   109.781999
	   50 B(12,24,21)     =    113.904394     0.000000     0.000034   113.904428
	   51 B(12,24,25)     =    109.265698    -0.000000     0.000006   109.265703
	   52 B(12,24,26)     =    109.201063    -0.000000    -0.000014   109.201049
	   53 B(13,12,14)     =    106.468524     0.000000     0.000006   106.468530
	   54 B(13,12,24)     =    109.064045    -0.000000    -0.000003   109.064042
	   55 B(14,12,24)     =    109.030289    -0.000000    -0.000016   109.030273
	   56 B(15,18,19)     =    110.035478     0.000000     0.000081   110.035558
	   57 B(15,18,20)     =    108.770623    -0.000000    -0.000059   108.770564
	   58 B(15,18,21)     =    113.715284    -0.000000     0.000005   113.715289
	   59 B(16,15,17)     =    106.538587     0.000000    -0.000025   106.538562
	   60 B(16,15,18)     =    109.002503    -0.000000    -0.000022   109.002481
	   61 B(17,15,18)     =    108.822588     0.000000    -0.000011   108.822577
	   62 B(18,21,22)     =    110.009914     0.000000     0.000007   110.009921
	   63 B(18,21,23)     =    108.907960    -0.000000    -0.000033   108.907927
	   64 B(18,21,24)     =    112.239611    -0.000000    -0.000052   112.239559
	   65 B(19,18,20)     =    106.063723    -0.000000    -0.000005   106.063719
	   66 B(19,18,21)     =    109.176341    -0.000000    -0.000022   109.176319
	   67 B(20,18,21)     =    108.788658     0.000000    -0.000002   108.788656
	   68 B(21,24,25)     =    109.152389    -0.000000     0.000020   109.152409
	   69 B(21,24,26)     =    108.614695    -0.000000    -0.000034   108.614661
	   70 B(22,21,23)     =    106.563916     0.000000     0.000084   106.564001
	   71 B(22,21,24)     =    108.786206     0.000000     0.000020   108.786226
	   72 B(23,21,24)     =    110.175255     0.000000    -0.000019   110.175236
	   73 B(25,24,26)     =    106.434269     0.000000    -0.000014   106.434255
	   74 D(1,9,15,16)    =    -64.635359    -0.000000     0.000580   -64.634779
	   75 D(1,9,15,17)    =    179.560394    -0.000000     0.000640   179.561035
	   76 D(1,9,15,18)    =     57.484363    -0.000000     0.000628    57.484991
	   77 D(2,1,9,10)     =     53.796049    -0.000000     0.000257    53.796306
	   78 D(2,1,9,11)     =    -62.194862     0.000000     0.000291   -62.194571
	   79 D(2,1,9,15)     =    174.941690    -0.000000     0.000224   174.941913
	   80 D(3,1,9,10)     =    -66.176173     0.000000     0.000273   -66.175899
	   81 D(3,1,9,11)     =    177.832917     0.000000     0.000306   177.833223
	   82 D(3,1,9,15)     =     54.969469     0.000000     0.000239    54.969708
	   83 D(4,1,9,10)     =    173.899339     0.000000     0.000265   173.899604
	   84 D(4,1,9,11)     =     57.908429     0.000000     0.000298    57.908727
	   85 D(4,1,9,15)     =    -64.955020     0.000000     0.000231   -64.954788
	   86 D(5,12,24,21)   =     63.149686     0.000000     0.000820    63.150506
	   87 D(5,12,24,25)   =    -59.199146     0.000000     0.000766   -59.198380
	   88 D(5,12,24,26)   =   -175.244155     0.000000     0.000788  -175.243366
	   89 D(6,5,12,13)    =     57.818832     0.000000    -0.000349    57.818483
	   90 D(6,5,12,14)    =    174.087630    -0.000000    -0.000355   174.087274
	   91 D(6,5,12,24)    =    -64.221068    -0.000000    -0.000391   -64.221459
	   92 D(7,5,12,13)    =    -62.331380     0.000000    -0.000348   -62.331728
	   93 D(7,5,12,14)    =     53.937418    -0.000000    -0.000354    53.937064
	   94 D(7,5,12,24)    =    175.628720    -0.000000    -0.000390   175.628330
	   95 D(8,5,12,13)    =    177.837475    -0.000000    -0.000362   177.837114
	   96 D(8,5,12,14)    =    -65.893727    -0.000000    -0.000368   -65.894094
	   97 D(8,5,12,24)    =     55.797576    -0.000000    -0.000404    55.797172
	   98 D(9,15,18,19)   =    -65.350445    -0.000000    -0.001022   -65.351466
	   99 D(9,15,18,20)   =    178.863522    -0.000000    -0.001027   178.862495
	  100 D(9,15,18,21)   =     57.474917    -0.000000    -0.000985    57.473931
	  101 D(10,9,15,16)   =     56.916094    -0.000000     0.000554    56.916648
	  102 D(10,9,15,17)   =    -58.888152     0.000000     0.000614   -58.887538
	  103 D(10,9,15,18)   =    179.035817    -0.000000     0.000601   179.036418
	  104 D(11,9,15,16)   =    172.591549    -0.000000     0.000512   172.592062
	  105 D(11,9,15,17)   =     56.787303     0.000000     0.000573    56.787876
	  106 D(11,9,15,18)   =    -65.288728    -0.000000     0.000560   -65.288168
	  107 D(12,24,21,18)  =    175.129672     0.000000     0.001166   175.130838
	  108 D(12,24,21,22)  =     53.152789     0.000000     0.001177    53.153967
	  109 D(12,24,21,23)  =    -63.321648    -0.000000     0.001075   -63.320573
	  110 D(13,12,24,21)  =    -59.192708     0.000000     0.000759   -59.191949
	  111 D(13,12,24,25)  =    178.458459    -0.000000     0.000706   178.459165
	  112 D(13,12,24,26)  =     62.413451    -0.000000     0.000728    62.414179
	  113 D(14,12,24,21)  =   -175.071963     0.000000     0.000763  -175.071201
	  114 D(14,12,24,25)  =     62.579204    -0.000000     0.000709    62.579913
	  115 D(14,12,24,26)  =    -53.465804     0.000000     0.000731   -53.465073
	  116 D(15,18,21,22)  =    -63.828592    -0.000000    -0.001424   -63.830016
	  117 D(15,18,21,23)  =     52.623133    -0.000000    -0.001338    52.621795
	  118 D(15,18,21,24)  =    174.894203    -0.000000    -0.001419   174.892783
	  119 D(16,15,18,19)  =     56.645832     0.000000    -0.000959    56.644872
	  120 D(16,15,18,20)  =    -59.140201    -0.000000    -0.000965   -59.141166
	  121 D(16,15,18,21)  =    179.471193    -0.000000    -0.000923   179.470270
	  122 D(17,15,18,19)  =    172.460710    -0.000000    -0.001007   172.459703
	  123 D(17,15,18,20)  =     56.674677    -0.000000    -0.001012    56.673665
	  124 D(17,15,18,21)  =    -64.713929    -0.000000    -0.000970   -64.714899
	  125 D(18,21,24,25)  =    -62.459239     0.000000     0.001212   -62.458028
	  126 D(18,21,24,26)  =     53.199175     0.000000     0.001187    53.200362
	  127 D(19,18,21,22)  =     59.466926    -0.000000    -0.001332    59.465593
	  128 D(19,18,21,23)  =    175.918651     0.000000    -0.001246   175.917405
	  129 D(19,18,21,24)  =    -61.810280    -0.000000    -0.001327   -61.811607
	  130 D(20,18,21,22)  =    174.792855    -0.000000    -0.001351   174.791505
	  131 D(20,18,21,23)  =    -68.755419     0.000000    -0.001265   -68.756684
	  132 D(20,18,21,24)  =     53.515650    -0.000000    -0.001346    53.514304
	  133 D(22,21,24,25)  =    175.563878     0.000000     0.001223   175.565101
	  134 D(22,21,24,26)  =    -68.777708     0.000000     0.001198   -68.776510
	  135 D(23,21,24,25)  =     59.089441    -0.000000     0.001121    59.090561
	  136 D(23,21,24,26)  =    174.747855    -0.000000     0.001096   174.748950
	  137 R(1,21)         =      3.639932     0.000001    -0.000002     3.639930
	 ---------------------------------------------------------------------------

  ==> Convergence Check <==

  Measures of convergence in internal coordinates in au.
  Criteria marked as inactive (o), active & met (*), and active & unmet ( ).
  --------------------------------------------------------------------------------------------- ~
   Step     Total Energy     Delta E     MAX Force     RMS Force      MAX Disp      RMS Disp    ~
  --------------------------------------------------------------------------------------------- ~
    Convergence Criteria             o    2.00e-06 *    1.00e-06 *    6.00e-06 *    4.00e-06 *  ~
  --------------------------------------------------------------------------------------------- ~
      1    -314.98364729   -3.15e+02 o    2.74e-07 *    7.78e-08 *    2.49e-05      1.03e-05    ~
  ---------------------------------------------------------------------------------------------

	Writing optimization data to binary file.
	Structure for next step:
	Cartesian Geometry (in Angstrom)
	    C    -2.9462834767  -1.1301613572   0.4977311835
	    H    -3.4126790723  -2.0930198328   0.2906888451
	    H    -3.6668588794  -0.5186824409   1.0436995903
	    H    -2.0971131145  -1.3100563440   1.1571184823
	    C     3.3671972954  -0.3226112518  -0.8616281384
	    H     2.6424979424  -0.5490015126  -1.6427427625
	    H     4.2440851455  -0.9459933048  -1.0347310363
	    H     3.6690585064   0.7197374627  -0.9779620216
	    C    -2.5166021861  -0.4374373647  -0.7905503635
	    H    -3.3706708924  -0.3724510382  -1.4682455906
	    H    -1.7680891757  -1.0462829917  -1.3022353504
	    C     2.7865932823  -0.5613652439   0.5281454149
	    H     2.4546145774  -1.5998033651   0.6137196002
	    H     3.5729441710  -0.4252090207   1.2739276342
	    C    -1.9685418035   0.9706459245  -0.5601694587
	    H    -2.7721872144   1.6017409589  -0.1693422986
	    H    -1.6746681019   1.4007417767  -1.5219631194
	    C    -0.7765416473   1.0353818926   0.3936507170
	    H    -1.0844352895   0.7350565909   1.3989445935
	    H    -0.4476060033   2.0753748349   0.4758670868
	    C     0.4063289394   0.1794978235  -0.0443675233
	    H     0.1240471361  -0.8779249733  -0.0437677952
	    H     0.6641064227   0.4328299929  -1.0766757453
	    C     1.6190755344   0.3644682356   0.8610114608
	    H     1.9552183001   1.4049498056   0.8031478326
	    H     1.3103932917   0.1960892614   1.8969649392
			--------------------------
			 OPTKING Finished Execution 
			--------------------------

    Structure for next step:
    Molecular point group: c1
    Full point group: C1

    Geometry (in Angstrom), charge = 0, multiplicity = 1:

    C           -2.946283917501    -1.130160915462     0.497730541213
    H           -3.412679513101    -2.093019391009     0.290688202845
    H           -3.666859320219    -0.518681999115     1.043698948013
    H           -2.097113555299    -1.310055902242     1.157117840046
    C            3.367196854612    -0.322610810046    -0.861628780740
    H            2.642497501566    -0.549001070805    -1.642743404766
    H            4.244084704727    -0.945992862996    -1.034731678615
    H            3.669058065630     0.719737904506    -0.977962663940
    C           -2.516602626914    -0.437436922870    -0.790551005839
    H           -3.370671333155    -0.372450596453    -1.468246232902
    H           -1.768089616459    -1.046282549941    -1.302235992680
    C            2.786592841546    -0.561364802144     0.528144772614
    H            2.454614136634    -1.599802923299     0.613718957952
    H            3.572943730169    -0.425208578919     1.273926991934
    C           -1.968542244261     0.970646366242    -0.560170101026
    H           -2.772187655193     1.601741400728    -0.169342940907
    H           -1.674668542727     1.400742218454    -1.521963761669
    C           -0.776542088058     1.035382334419     0.393650074682
    H           -1.084435730280     0.735057032652     1.398943951248
    H           -0.447606444051     2.075375276636     0.475866444547
    C            0.406328498554     0.179498265294    -0.044368165644
    H            0.124046695296    -0.877924531566    -0.043768437470
    H            0.664105981931     0.432830434728    -1.076676387597
    C            1.619075093565     0.364468677351     0.861010818538
    H            1.955217859326     1.404950247345     0.803147190272
    H            1.310392850893     0.196089703153     1.896964296858

gradient() will perform analytic gradient computation.

*** tstart() called on wr42
*** at Wed Sep 21 15:23:34 2016


         ---------------------------------------------------------
                                   SCF
            by Justin Turney, Rob Parrish, and Andy Simmonett
                              RHF Reference
                       12 Threads,  60000 MiB Core
         ---------------------------------------------------------

  ==> Geometry <==

    Molecular point group: c1
    Full point group: C1

    Geometry (in Angstrom), charge = 0, multiplicity = 1:

       Center              X                  Y                   Z               Mass       
    ------------   -----------------  -----------------  -----------------  -----------------
           C         -2.946283917501    -1.130160915462     0.497730541213    12.000000000000
           H         -3.412679513101    -2.093019391009     0.290688202845     1.007825032070
           H         -3.666859320219    -0.518681999115     1.043698948013     1.007825032070
           H         -2.097113555299    -1.310055902242     1.157117840046     1.007825032070
           C          3.367196854612    -0.322610810046    -0.861628780740    12.000000000000
           H          2.642497501566    -0.549001070805    -1.642743404766     1.007825032070
           H          4.244084704727    -0.945992862996    -1.034731678615     1.007825032070
           H          3.669058065630     0.719737904506    -0.977962663940     1.007825032070
           C         -2.516602626914    -0.437436922870    -0.790551005839    12.000000000000
           H         -3.370671333155    -0.372450596453    -1.468246232902     1.007825032070
           H         -1.768089616459    -1.046282549941    -1.302235992680     1.007825032070
           C          2.786592841546    -0.561364802144     0.528144772614    12.000000000000
           H          2.454614136634    -1.599802923299     0.613718957952     1.007825032070
           H          3.572943730169    -0.425208578919     1.273926991934     1.007825032070
           C         -1.968542244261     0.970646366242    -0.560170101026    12.000000000000
           H         -2.772187655193     1.601741400728    -0.169342940907     1.007825032070
           H         -1.674668542727     1.400742218454    -1.521963761669     1.007825032070
           C         -0.776542088058     1.035382334419     0.393650074682    12.000000000000
           H         -1.084435730280     0.735057032652     1.398943951248     1.007825032070
           H         -0.447606444051     2.075375276636     0.475866444547     1.007825032070
           C          0.406328498554     0.179498265294    -0.044368165644    12.000000000000
           H          0.124046695296    -0.877924531566    -0.043768437470     1.007825032070
           H          0.664105981931     0.432830434728    -1.076676387597     1.007825032070
           C          1.619075093565     0.364468677351     0.861010818538    12.000000000000
           H          1.955217859326     1.404950247345     0.803147190272     1.007825032070
           H          1.310392850893     0.196089703153     1.896964296858     1.007825032070

  Running in c1 symmetry.

  Rotational constants: A =      0.12624  B =      0.02490  C =      0.02442 [cm^-1]
  Rotational constants: A =   3784.64950  B =    746.51675  C =    731.98156 [MHz]
  Nuclear repulsion =  394.189651247023789

  Charge       = 0
  Multiplicity = 1
  Electrons    = 66
  Nalpha       = 33
  Nbeta        = 33

  ==> Algorithm <==

  SCF Algorithm Type is DF.
  DIIS enabled.
  MOM disabled.
  Fractional occupation disabled.
  Guess Type is READ.
  Energy threshold   = 1.00e-10
  Density threshold  = 1.00e-10
  Integral threshold = 0.00e+00

  ==> Primary Basis <==

  Basis Set: AUG-CC-PVTZ
    Number of shells: 274
    Number of basis function: 782
    Number of Cartesian functions: 890
    Spherical Harmonics?: true
    Max angular momentum: 3

  ==> Pre-Iterations <==

   -------------------------------------------------------
    Irrep   Nso     Nmo     Nalpha   Nbeta   Ndocc  Nsocc
   -------------------------------------------------------
     A        782     782       0       0       0       0
   -------------------------------------------------------
    Total     782     782      33      33      33       0
   -------------------------------------------------------

  ==> Integral Setup <==

  ==> DFJK: Density-Fitted J/K Matrices <==

    J tasked:                  Yes
    K tasked:                  Yes
    wK tasked:                  No
    OpenMP threads:             12
    Integrals threads:          12
    Memory (MB):             42915
    Algorithm:                Core
    Integral Cache:           NONE
    Schwarz Cutoff:          1E-12
    Fitting Condition:       1E-12

   => Auxiliary Basis Set <=

  Basis Set: 
    Number of shells: 492
    Number of basis function: 1660
    Number of Cartesian functions: 2038
    Spherical Harmonics?: true
    Max angular momentum: 4

  Minimum eigenvalue in the overlap matrix is 2.3423767536E-06.
  Using Symmetric Orthogonalization.
  SCF Guess: Reading in previously saved MOs, projecting if necessary.

  Using orbitals from previous SCF, no projection.
  Recomputing DOCC and SOCC from number of alpha and beta electrons from previous calculation.
              A 
    DOCC [    33 ]

  ==> Iterations <==

                           Total Energy        Delta E     RMS |[F,P]|

   @DF-RHF iter   0:  -313.54194884900892   -3.13542e+02   6.43516e-08 
   @DF-RHF iter   1:  -313.54194228809354    6.56092e-06   1.27821e-08 
   @DF-RHF iter   2:  -313.54194228819233   -9.87939e-11   4.96556e-09 DIIS
   @DF-RHF iter   3:  -313.54194228820677   -1.44382e-11   2.28715e-09 DIIS
   @DF-RHF iter   4:  -313.54194228820938   -2.61480e-12   2.42404e-10 DIIS
   @DF-RHF iter   5:  -313.54194228820916    2.27374e-13   7.14294e-11 DIIS

  ==> Post-Iterations <==

    Orbital Energies (a.u.)
    -----------------------

    Doubly Occupied:                                                      

       1A    -11.212897     2A    -11.212003     3A    -11.210567  
       4A    -11.210464     5A    -11.209483     6A    -11.208873  
       7A    -11.206942     8A    -11.206667     9A     -1.094793  
      10A     -1.061284    11A     -1.006198    12A     -0.946541  
      13A     -0.886904    14A     -0.836839    15A     -0.778165  
      16A     -0.756546    17A     -0.647737    18A     -0.628437  
      19A     -0.610596    20A     -0.606216    21A     -0.572917  
      22A     -0.553820    23A     -0.547456    24A     -0.529048  
      25A     -0.513635    26A     -0.506196    27A     -0.488055  
      28A     -0.474252    29A     -0.463518    30A     -0.459707  
      31A     -0.449727    32A     -0.442170    33A     -0.431361  

    Virtual:                                                              

      34A      0.028768    35A      0.032150    36A      0.034128  
      37A      0.034714    38A      0.046941    39A      0.047513  
      40A      0.048107    41A      0.054182    42A      0.056247  
      43A      0.066415    44A      0.066873    45A      0.070528  
      46A      0.074766    47A      0.076400    48A      0.086097  
      49A      0.091716    50A      0.098047    51A      0.099697  
      52A      0.113787    53A      0.114899    54A      0.119202  
      55A      0.124146    56A      0.126675    57A      0.130409  
      58A      0.131944    59A      0.135897    60A      0.139444  
      61A      0.142015    62A      0.146650    63A      0.152504  
      64A      0.154629    65A      0.160163    66A      0.160707  
      67A      0.164041    68A      0.168136    69A      0.169755  
      70A      0.174848    71A      0.179013    72A      0.182893  
      73A      0.187329    74A      0.192472    75A      0.196181  
      76A      0.202430    77A      0.215123    78A      0.220797  
      79A      0.226912    80A      0.230414    81A      0.234286  
      82A      0.246233    83A      0.254020    84A      0.261257  
      85A      0.271979    86A      0.281528    87A      0.283007  
      88A      0.283941    89A      0.289355    90A      0.297931  
      91A      0.299185    92A      0.304798    93A      0.307034  
      94A      0.312831    95A      0.314715    96A      0.323681  
      97A      0.327412    98A      0.327756    99A      0.329162  
     100A      0.332736   101A      0.337712   102A      0.340608  
     103A      0.344262   104A      0.345231   105A      0.354274  
     106A      0.357694   107A      0.361504   108A      0.363294  
     109A      0.367108   110A      0.370216   111A      0.370696  
     112A      0.378964   113A      0.380420   114A      0.386629  
     115A      0.391346   116A      0.394449   117A      0.398738  
     118A      0.405116   119A      0.406512   120A      0.409856  
     121A      0.413525   122A      0.425566   123A      0.426232  
     124A      0.426933   125A      0.430778   126A      0.441219  
     127A      0.442399   128A      0.446514   129A      0.447639  
     130A      0.451268   131A      0.455004   132A      0.456788  
     133A      0.461679   134A      0.464847   135A      0.469807  
     136A      0.472901   137A      0.474088   138A      0.478125  
     139A      0.482084   140A      0.487953   141A      0.490514  
     142A      0.496330   143A      0.500547   144A      0.504396  
     145A      0.507478   146A      0.511239   147A      0.515518  
     148A      0.519217   149A      0.520785   150A      0.523213  
     151A      0.530387   152A      0.536487   153A      0.543561  
     154A      0.544474   155A      0.546576   156A      0.549823  
     157A      0.557173   158A      0.561369   159A      0.568749  
     160A      0.570968   161A      0.571800   162A      0.576284  
     163A      0.580993   164A      0.584893   165A      0.590579  
     166A      0.598495   167A      0.601740   168A      0.604933  
     169A      0.605976   170A      0.614933   171A      0.616144  
     172A      0.620909   173A      0.630272   174A      0.633743  
     175A      0.639660   176A      0.643795   177A      0.648513  
     178A      0.654342   179A      0.656787   180A      0.665379  
     181A      0.668278   182A      0.675885   183A      0.680316  
     184A      0.685738   185A      0.690915   186A      0.695953  
     187A      0.698309   188A      0.705113   189A      0.711758  
     190A      0.716295   191A      0.719760   192A      0.732545  
     193A      0.733247   194A      0.738076   195A      0.748227  
     196A      0.752955   197A      0.761889   198A      0.768885  
     199A      0.775174   200A      0.789964   201A      0.798210  
     202A      0.803769   203A      0.814186   204A      0.818264  
     205A      0.833023   206A      0.836534   207A      0.841834  
     208A      0.852437   209A      0.859322   210A      0.861698  
     211A      0.866393   212A      0.870091   213A      0.880863  
     214A      0.883526   215A      0.889043   216A      0.891065  
     217A      0.900924   218A      0.902149   219A      0.908984  
     220A      0.911230   221A      0.918645   222A      0.925165  
     223A      0.926608   224A      0.933901   225A      0.936868  
     226A      0.942508   227A      0.944398   228A      0.950264  
     229A      0.952121   230A      0.956077   231A      0.964402  
     232A      0.972956   233A      0.974290   234A      0.977568  
     235A      0.979530   236A      0.981268   237A      0.998442  
     238A      1.000790   239A      1.005035   240A      1.009318  
     241A      1.012861   242A      1.024231   243A      1.028199  
     244A      1.032537   245A      1.036202   246A      1.038062  
     247A      1.041714   248A      1.049491   249A      1.058569  
     250A      1.061937   251A      1.069772   252A      1.071666  
     253A      1.076429   254A      1.085545   255A      1.089497  
     256A      1.096263   257A      1.097063   258A      1.101008  
     259A      1.104925   260A      1.119811   261A      1.121406  
     262A      1.127322   263A      1.131973   264A      1.133292  
     265A      1.136249   266A      1.144540   267A      1.148109  
     268A      1.153711   269A      1.160989   270A      1.168289  
     271A      1.172579   272A      1.182846   273A      1.184482  
     274A      1.187234   275A      1.196041   276A      1.199372  
     277A      1.208158   278A      1.214776   279A      1.216743  
     280A      1.220931   281A      1.222520   282A      1.228154  
     283A      1.233599   284A      1.235028   285A      1.244822  
     286A      1.250778   287A      1.254652   288A      1.260091  
     289A      1.265235   290A      1.274230   291A      1.277450  
     292A      1.282693   293A      1.287539   294A      1.292820  
     295A      1.296174   296A      1.302529   297A      1.310286  
[...]
	 D(13,12,24,26)   =         1.089322	      62.413560
	 D(14,12,24,21)   =        -3.055579	    -175.071782
	 D(14,12,24,25)   =         1.092215	      62.579302
	 D(14,12,24,26)   =        -0.933152	     -53.465694
	 D(15,18,21,22)   =        -1.114027	     -63.829072
	 D(15,18,21,23)   =         0.918440	      52.622721
	 D(15,18,21,24)   =         3.052473	     174.893792
	 D(16,15,18,19)   =         0.988652	      56.645575
	 D(16,15,18,20)   =        -1.032196	     -59.140452
	 D(16,15,18,21)   =         3.132359	     179.470943
	 D(17,15,18,19)   =         3.010002	     172.460435
	 D(17,15,18,20)   =         0.989155	      56.674408
	 D(17,15,18,21)   =        -1.129476	     -64.714197
	 D(18,21,24,25)   =        -1.090111	     -62.458737
	 D(18,21,24,26)   =         0.928510	      53.199729
	 D(19,18,21,22)   =         1.037886	      59.466463
	 D(19,18,21,23)   =         3.070353	     175.918256
	 D(19,18,21,24)   =        -1.078800	     -61.810673
	 D(20,18,21,22)   =         3.050703	     174.792420
	 D(20,18,21,23)   =        -1.200015	     -68.755787
	 D(20,18,21,24)   =         0.934018	      53.515284
	 D(22,21,24,25)   =         3.064177	     175.564423
	 D(22,21,24,26)   =        -1.200387	     -68.777111
	 D(23,21,24,25)   =         1.031315	      59.089975
	 D(23,21,24,26)   =         3.049936	     174.748440
	 R(1,21)          =         6.878470	       3.639930

	Current energy   :      -314.9836472852

	Energy change for the previous step:
		Projected    :         0.0000000000
		Actual       :        -0.0000000017

	Performing BFGS update.
	Previous computed or guess Hessian on step 1.
	Denominators (dg)(dq) or (dq)(dq) are very small.
	 Skipping Hessian update for step 8.
	Denominators (dg)(dq) or (dq)(dq) are very small.
	 Skipping Hessian update for step 7.
	Denominators (dg)(dq) or (dq)(dq) are very small.
	 Skipping Hessian update for step 6.
	Denominators (dg)(dq) or (dq)(dq) are very small.
	 Skipping Hessian update for step 5.
	Denominators (dg)(dq) or (dq)(dq) are very small.
	 Skipping Hessian update for step 4.
	Denominators (dg)(dq) or (dq)(dq) are very small.
	 Skipping Hessian update for step 3.
	Denominators (dg)(dq) or (dq)(dq) are very small.
	 Skipping Hessian update for step 2.
	Steps to be used in Hessian update: 1
	Taking RFO optimization step.
	Going to follow RFO solution 1.
	Rejecting RFO root 1 because normalization gives large value.
	Using RFO vector 2.
	Norm of target step-size    0.00002
	Projected energy change by RFO approximation:        -0.0000000000

	Back-transformation to cartesian coordinates...
	Successfully converged to displaced geometry.

	--- Internal Coordinate Step in ANG or DEG, aJ/ANG or AJ/DEG ---
	 ---------------------------------------------------------------------------
	   Coordinate                Previous        Force       Change         New 
	   ----------                --------       ------       ------       ------
	    1 R(1,2)          =      1.089719    -0.000003    -0.000000     1.089719
	    2 R(1,3)          =      1.091429    -0.000002    -0.000000     1.091429
	    3 R(1,4)          =      1.090066    -0.000003    -0.000000     1.090066
	    4 R(1,9)          =      1.524520    -0.000001    -0.000000     1.524520
	    5 R(5,6)          =      1.089303    -0.000004    -0.000000     1.089303
	    6 R(5,7)          =      1.089726    -0.000003    -0.000000     1.089725
	    7 R(5,8)          =      1.091396    -0.000004    -0.000000     1.091395
	    8 R(5,12)         =      1.524984    -0.000000    -0.000000     1.524984
	    9 R(9,10)         =      1.092212    -0.000001     0.000000     1.092212
	   10 R(9,11)         =      1.092148    -0.000003     0.000000     1.092148
	   11 R(9,15)         =      1.528445    -0.000001    -0.000000     1.528445
	   12 R(12,13)        =      1.093566    -0.000006    -0.000000     1.093566
	   13 R(12,14)        =      1.092281    -0.000004    -0.000000     1.092280
	   14 R(12,24)        =      1.526783    -0.000002    -0.000000     1.526783
	   15 R(15,16)        =      1.094017    -0.000001     0.000000     1.094017
	   16 R(15,17)        =      1.093797    -0.000001     0.000000     1.093797
	   17 R(15,18)        =      1.528014     0.000000     0.000000     1.528015
	   18 R(18,19)        =      1.093440    -0.000002     0.000000     1.093440
	   19 R(18,20)        =      1.093867    -0.000000     0.000000     1.093867
	   20 R(18,21)        =      1.524330     0.000001     0.000000     1.524330
	   21 R(21,22)        =      1.094453    -0.000003     0.000000     1.094453
	   22 R(21,23)        =      1.093750    -0.000003     0.000000     1.093750
	   23 R(21,24)        =      1.524690    -0.000003    -0.000000     1.524690
	   24 R(24,25)        =      1.094962    -0.000004    -0.000000     1.094962
	   25 R(24,26)        =      1.094000    -0.000004    -0.000000     1.094000
	   26 B(1,9,10)       =    109.327851     0.000000    -0.000001   109.327851
	   27 B(1,9,11)       =    109.619256     0.000000     0.000007   109.619263
	   28 B(1,9,15)       =    113.097490    -0.000000    -0.000005   113.097485
	   29 B(2,1,3)        =    107.909028    -0.000000    -0.000001   107.909027
	   30 B(2,1,4)        =    107.609233    -0.000000    -0.000002   107.609231
	   31 B(2,1,9)        =    111.196320     0.000000    -0.000010   111.196310
	   32 B(3,1,4)        =    107.708664     0.000000     0.000007   107.708671
	   33 B(3,1,9)        =    110.745806    -0.000000     0.000001   110.745807
	   34 B(4,1,9)        =    111.505917    -0.000000     0.000006   111.505922
	   35 B(5,12,13)      =    109.606747     0.000000     0.000005   109.606752
	   36 B(5,12,14)      =    109.185670     0.000000     0.000021   109.185691
	   37 B(5,12,24)      =    113.259027    -0.000000    -0.000050   113.258978
	   38 B(6,5,7)        =    107.610803    -0.000000     0.000002   107.610805
	   39 B(6,5,8)        =    107.822114     0.000000     0.000001   107.822115
	   40 B(6,5,12)       =    111.571826    -0.000000    -0.000008   111.571818
	   41 B(7,5,8)        =    107.869592     0.000000    -0.000000   107.869592
	   42 B(7,5,12)       =    111.196712     0.000000     0.000017   111.196729
	   43 B(8,5,12)       =    110.607828    -0.000000    -0.000012   110.607816
	   44 B(9,15,16)      =    108.776581     0.000000    -0.000003   108.776577
	   45 B(9,15,17)      =    109.029201    -0.000000    -0.000008   109.029194
	   46 B(9,15,18)      =    114.383344     0.000000     0.000030   114.383374
	   47 B(10,9,11)      =    106.164273    -0.000000     0.000003   106.164276
	   48 B(10,9,15)      =    108.608574     0.000000    -0.000022   108.608553
	   49 B(11,9,15)      =    109.781969     0.000000     0.000017   109.781986
	   50 B(12,24,21)     =    113.904323    -0.000000    -0.000046   113.904277
	   51 B(12,24,25)     =    109.265708     0.000000    -0.000012   109.265696
	   52 B(12,24,26)     =    109.201032     0.000000     0.000009   109.201041
	   53 B(13,12,14)     =    106.468523    -0.000000     0.000009   106.468531
	   54 B(13,12,24)     =    109.064028     0.000000    -0.000007   109.064021
	   55 B(14,12,24)     =    109.030307     0.000000     0.000025   109.030332
	   56 B(15,18,19)     =    110.035487     0.000000     0.000009   110.035495
	   57 B(15,18,20)     =    108.770565    -0.000000    -0.000039   108.770526
	   58 B(15,18,21)     =    113.715303     0.000000     0.000039   113.715342
	   59 B(16,15,17)     =    106.538582     0.000000    -0.000003   106.538578
	   60 B(16,15,18)     =    109.002446    -0.000000    -0.000017   109.002429
	   61 B(17,15,18)     =    108.822623    -0.000000    -0.000001   108.822621
	   62 B(18,21,22)     =    110.009887     0.000000     0.000046   110.009933
	   63 B(18,21,23)     =    108.907972     0.000000     0.000032   108.908004
	   64 B(18,21,24)     =    112.239676    -0.000000     0.000011   112.239686
	   65 B(19,18,20)     =    106.063741     0.000000    -0.000005   106.063736
	   66 B(19,18,21)     =    109.176331    -0.000000     0.000006   109.176337
	   67 B(20,18,21)     =    108.788680    -0.000000    -0.000012   108.788668
	   68 B(21,24,25)     =    109.152485    -0.000000     0.000028   109.152513
	   69 B(21,24,26)     =    108.614695    -0.000000     0.000014   108.614709
	   70 B(22,21,23)     =    106.563979    -0.000000    -0.000005   106.563974
	   71 B(22,21,24)     =    108.786132    -0.000000    -0.000064   108.786068
	   72 B(23,21,24)     =    110.175215     0.000000    -0.000019   110.175196
	   73 B(25,24,26)     =    106.434269     0.000000     0.000011   106.434279
	   74 D(1,9,15,16)    =    -64.635345    -0.000000    -0.000016   -64.635360
	   75 D(1,9,15,17)    =    179.560425    -0.000000    -0.000006   179.560419
	   76 D(1,9,15,18)    =     57.484349    -0.000000    -0.000019    57.484330
	   77 D(2,1,9,10)     =     53.796491    -0.000000    -0.000301    53.796190
	   78 D(2,1,9,11)     =    -62.194423    -0.000000    -0.000308   -62.194732
	   79 D(2,1,9,15)     =    174.942108    -0.000000    -0.000332   174.941776
	   80 D(3,1,9,10)     =    -66.175709    -0.000000    -0.000293   -66.176002
	   81 D(3,1,9,11)     =    177.833377    -0.000000    -0.000301   177.833076
	   82 D(3,1,9,15)     =     54.969908    -0.000000    -0.000325    54.969584
	   83 D(4,1,9,10)     =    173.899795    -0.000000    -0.000306   173.899489
	   84 D(4,1,9,11)     =     57.908881    -0.000000    -0.000314    57.908567
	   85 D(4,1,9,15)     =    -64.954588    -0.000000    -0.000337   -64.954925
	   86 D(5,12,24,21)   =     63.149870    -0.000000     0.000095    63.149966
	   87 D(5,12,24,25)   =    -59.199045    -0.000000     0.000100   -59.198945
	   88 D(5,12,24,26)   =   -175.244041    -0.000000     0.000089  -175.243952
	   89 D(6,5,12,13)    =     57.818543    -0.000000     0.000047    57.818590
	   90 D(6,5,12,14)    =    174.087335     0.000000     0.000073   174.087408
	   91 D(6,5,12,24)    =    -64.221347     0.000000     0.000087   -64.221260
	   92 D(7,5,12,13)    =    -62.331671    -0.000000     0.000038   -62.331633
	   93 D(7,5,12,14)    =     53.937122     0.000000     0.000063    53.937185
	   94 D(7,5,12,24)    =    175.628439     0.000000     0.000077   175.628517
	   95 D(8,5,12,13)    =    177.837172    -0.000000     0.000035   177.837207
	   96 D(8,5,12,14)    =    -65.894035     0.000000     0.000061   -65.893974
	   97 D(8,5,12,24)    =     55.797282     0.000000     0.000075    55.797357
	   98 D(9,15,18,19)   =    -65.350716    -0.000000    -0.000039   -65.350755
	   99 D(9,15,18,20)   =    178.863258    -0.000000    -0.000015   178.863243
	  100 D(9,15,18,21)   =     57.474653    -0.000000     0.000003    57.474655
	  101 D(10,9,15,16)   =     56.916108    -0.000000    -0.000035    56.916073
	  102 D(10,9,15,17)   =    -58.888123    -0.000000    -0.000025   -58.888148
	  103 D(10,9,15,18)   =    179.035802    -0.000000    -0.000039   179.035763
	  104 D(11,9,15,16)   =    172.591528    -0.000000    -0.000034   172.591494
	  105 D(11,9,15,17)   =     56.787297     0.000000    -0.000024    56.787273
	  106 D(11,9,15,18)   =    -65.288778    -0.000000    -0.000038   -65.288816
	  107 D(12,24,21,18)  =    175.130138    -0.000000     0.000264   175.130402
	  108 D(12,24,21,22)  =     53.153298    -0.000000     0.000244    53.153542
	  109 D(12,24,21,23)  =    -63.321150    -0.000000     0.000298   -63.320852
	  110 D(13,12,24,21)  =    -59.192528     0.000000     0.000128   -59.192401
	  111 D(13,12,24,25)  =    178.458556     0.000000     0.000132   178.458688
	  112 D(13,12,24,26)  =     62.413560    -0.000000     0.000121    62.413681
	  113 D(14,12,24,21)  =   -175.071782     0.000000     0.000107  -175.071675
	  114 D(14,12,24,25)  =     62.579302     0.000000     0.000112    62.579414
	  115 D(14,12,24,26)  =    -53.465694    -0.000000     0.000101   -53.465593
	  116 D(15,18,21,22)  =    -63.829072    -0.000000    -0.000177   -63.829249
	  117 D(15,18,21,23)  =     52.622721    -0.000000    -0.000139    52.622581
	  118 D(15,18,21,24)  =    174.893792    -0.000000    -0.000134   174.893657
	  119 D(16,15,18,19)  =     56.645575    -0.000000    -0.000035    56.645539
	  120 D(16,15,18,20)  =    -59.140452     0.000000    -0.000012   -59.140463
	  121 D(16,15,18,21)  =    179.470943    -0.000000     0.000007   179.470950
	  122 D(17,15,18,19)  =    172.460435    -0.000000    -0.000049   172.460385
	  123 D(17,15,18,20)  =     56.674408    -0.000000    -0.000026    56.674383
	  124 D(17,15,18,21)  =    -64.714197    -0.000000    -0.000007   -64.714204
	  125 D(18,21,24,25)  =    -62.458737    -0.000000     0.000237   -62.458499
	  126 D(18,21,24,26)  =     53.199729     0.000000     0.000273    53.200001
	  127 D(19,18,21,22)  =     59.466463    -0.000000    -0.000134    59.466328
	  128 D(19,18,21,23)  =    175.918256     0.000000    -0.000096   175.918159
	  129 D(19,18,21,24)  =    -61.810673     0.000000    -0.000091   -61.810765
	  130 D(20,18,21,22)  =    174.792420    -0.000000    -0.000144   174.792276
	  131 D(20,18,21,23)  =    -68.755787     0.000000    -0.000106   -68.755893
	  132 D(20,18,21,24)  =     53.515284    -0.000000    -0.000101    53.515183
	  133 D(22,21,24,25)  =    175.564423    -0.000000     0.000217   175.564640
	  134 D(22,21,24,26)  =    -68.777111    -0.000000     0.000252   -68.776859
	  135 D(23,21,24,25)  =     59.089975    -0.000000     0.000271    59.090246
	  136 D(23,21,24,26)  =    174.748440    -0.000000     0.000307   174.748747
	  137 R(1,21)         =      3.639930     0.000001     0.000001     3.639931
	 ---------------------------------------------------------------------------

  ==> Convergence Check <==

  Measures of convergence in internal coordinates in au.
  Criteria marked as inactive (o), active & met (*), and active & unmet ( ).
  ---------------------------------------------------------------------------------------------
   Step     Total Energy     Delta E     MAX Force     RMS Force      MAX Disp      RMS Disp   
  ---------------------------------------------------------------------------------------------
    Convergence Criteria             o    2.00e-06 *    1.00e-06 *    6.00e-06 *    4.00e-06 *
  ---------------------------------------------------------------------------------------------
      9    -314.98364729   -1.65e-09 o    6.89e-07 *    1.56e-07 *    5.89e-06 *    2.03e-06 *  ~
  ---------------------------------------------------------------------------------------------


  **** Optimization is complete! (in 9 steps) ****

  ==> Optimization Summary <==

  Measures of convergence in internal coordinates in au.
  --------------------------------------------------------------------------------------------------------------- ~
   Step         Total Energy             Delta E       MAX Force       RMS Force        MAX Disp        RMS Disp  ~
  --------------------------------------------------------------------------------------------------------------- ~
      1    -314.983647286552   -314.983647286552      0.00000027      0.00000008      0.00002486      0.00001025  ~
      2    -314.983647285845      0.000000000707      0.00000097      0.00000025      0.00004713      0.00001278  ~
      3    -314.983647288870     -0.000000003025      0.00000089      0.00000022      0.00005265      0.00001571  ~
      4    -314.983647287261      0.000000001609      0.00000237      0.00000058      0.00004379      0.00001701  ~
      5    -314.983647285906      0.000000001355      0.00000204      0.00000044      0.00005209      0.00001802  ~
      6    -314.983647284698      0.000000001208      0.00000107      0.00000030      0.00001057      0.00000364  ~
      7    -314.983647284330      0.000000000368      0.00000055      0.00000012      0.00001347      0.00000419  ~
      8    -314.983647283530      0.000000000800      0.00000056      0.00000014      0.00000804      0.00000284  ~
      9    -314.983647285180     -0.000000001651      0.00000069      0.00000016      0.00000589      0.00000203  ~
  --------------------------------------------------------------------------------------------------------------- ~

	Writing optimization data to binary file.
	Final energy is   -314.9836472851803
	Final (previous) structure:
	Cartesian Geometry (in Angstrom)
	    C    -2.9462700199  -1.1301623539   0.4977382761
	    H    -3.4126623907  -2.0930239705   0.2907019758
	    H    -3.6668440680  -0.5186858113   1.0437116454
	    H    -2.0970926741  -1.3100511446   1.1571188456
	    C     3.3671932091  -0.3226159785  -0.8616242751
	    H     2.6424933694  -0.5489997226  -1.6427404109
	    H     4.2440775274  -0.9460026503  -1.0347282037
	    H     3.6690606648   0.7197312644  -0.9779548238
	    C    -2.5166038418  -0.4374394916  -0.7905487696
	    H    -3.3706796119  -0.3724562557  -1.4682357591
	    H    -1.7680937573  -1.0462840508  -1.3022403140
	    C     2.7865863816  -0.5613703358   0.5281481159
	    H     2.4546024948  -1.5998070379   0.6137191007
	    H     3.5729364515  -0.4252199764   1.2739319226
	    C    -1.9685446011   0.9706452104  -0.5601756926
	    H    -2.7721901968   1.6017419331  -0.1693505552
	    H    -1.6746715368   1.4007367137  -1.5219719753
	    C    -0.7765444867   1.0353856358   0.3936443209
	    H    -1.0844367305   0.7350520311   1.3989369276
	    H    -0.4476172151   2.0753810887   0.4758663626
	    C     0.4063330401   0.1795127817  -0.0443785412
	    H     0.1240537669  -0.8779113860  -0.0437998694
	    H     0.6641195955   0.4328633567  -1.0766806374
	    C     1.6190720536   0.3644677516   0.8610138784
	    H     1.9552223993   1.4049476035   0.8031641869
	    H     1.3103797841   0.1960795998   1.8969629196
	Saving final (previous) structure.
			--------------------------
			 OPTKING Finished Execution 
			--------------------------

    Final optimized geometry and variables:
    Molecular point group: c1
    Full point group: C1

    Geometry (in Angstrom), charge = 0, multiplicity = 1:

    C           -2.946270019907    -1.130162353872     0.497738276068
    H           -3.412662390718    -2.093023970542     0.290701975827
    H           -3.666844067981    -0.518685811258     1.043711645350
    H           -2.097092674081    -1.310051144595     1.157118845632
    C            3.367193209054    -0.322615978522    -0.861624275135
    H            2.642493369363    -0.548999722601    -1.642740410882
    H            4.244077527425    -0.946002650300    -1.034728203735
    H            3.669060664796     0.719731264382    -0.977954823840
    C           -2.516603841819    -0.437439491648    -0.790548769634
    H           -3.370679611932    -0.372456255702    -1.468235759123
    H           -1.768093757281    -1.046284050754    -1.302240314024
    C            2.786586381615    -0.561370335814     0.528148115883
    H            2.454602494795    -1.599807037894     0.613719100708
    H            3.572936451503    -0.425219976427     1.273931922643
    C           -1.968544601089     0.970645210410    -0.560175692554
    H           -2.772190196784     1.601741933098    -0.169350555166
    H           -1.674671536832     1.400736713736    -1.521971975277
    C           -0.776544486670     1.035385635828     0.393644320872
    H           -1.084436730474     0.735052031132     1.398936927635
    H           -0.447617215135     2.075381088687     0.475866362618
    C            0.406333040103     0.179512781650    -0.044378541188
    H            0.124053766875    -0.877911386016    -0.043799869418
    H            0.664119595484     0.432863356688    -1.076680637416
    C            1.619072053608     0.364467751626     0.861013878388
    H            1.955222399273     1.404947603548     0.803164186876
    H            1.310379784112     0.196079599837     1.896962919578

	Cleaning optimization helper files.

*** Psi4 exiting successfully. Buy a developer a beer!
