    -----------------------------------------------------------------------
          Psi4: An Open-Source Ab Initio Electronic Structure Package
                              Psi4 1.0.0 Driver

                          Git: Rev {master} 6a9a71b dirty

    J. M. Turney, A. C. Simmonett, R. M. Parrish, E. G. Hohenstein,
    F. A. Evangelista, J. T. Fermann, B. J. Mintz, L. A. Burns, J. J. Wilke,
    M. L. Abrams, N. J. Russ, M. L. Leininger, C. L. Janssen, E. T. Seidl,
    W. D. Allen, H. F. Schaefer, R. A. King, E. F. Valeev, C. D. Sherrill,
    and T. D. Crawford, WIREs Comput. Mol. Sci. 2, 556-565 (2012)
    (doi: 10.1002/wcms.93)

                         Additional Contributions by
    A. E. DePrince, U. Bozkaya, A. Yu. Sokolov, D. G. A. Smith, R. Di Remigio,
    R. M. Richard, J. F. Gonthier, H. R. McAlexander, M. Saitow, and
    B. P. Pritchard
    -----------------------------------------------------------------------


    Psi4 started on: Tue Sep 20 23:27:00 2016

    Process ID:  28296
    PSI4DATADIR: /usr/local/hpc5/psi4conda/share/psi4
    Memory level set to 256.000 MB

  ==> Input File <==

--------------------------------------------------------------------------
memory 60 Gb

molecule molecule_59_psi {
0 1
C           -1.313560427615    -1.883624773865    -0.520239469356
H           -1.122753738180    -2.879214363998    -0.118383238169
H           -0.359126491610    -1.461948517212    -0.830173040272
H           -1.928768395208    -1.997785406639    -1.413991532909
C            3.369240938210    -0.611947172450     0.426472127915
H            4.262920556959    -0.868605844174    -0.141823774822
H            2.954006260839    -1.534747809162     0.833769095853
H            3.673642461177     0.013799751682     1.266356365928
C           -2.031776117937    -1.006194598083     0.502325164561
H           -1.447943516735    -0.939871280751     1.424274293579
H           -2.965216430951    -1.504535906936     0.773326110341
C            2.339406936449     0.106617394050    -0.436366257288
H            2.775838395101     1.017277524085    -0.855885635314
H            2.066117060760    -0.524059315628    -1.287300496621
C           -2.358454416143     0.406045523896     0.001493530884
H           -3.258496423848     0.758101682064     0.511662305229
H           -2.613783898429     0.352705399813    -1.062091327009
C           -1.278691690638     1.472896082733     0.199940962338
H           -1.094071108795     1.598088383990     1.271967665073
H           -1.693505631972     2.421869286330    -0.148313487048
C            0.058231229916     1.221291363534    -0.507608163283
H           -0.118259321745     0.684454926167    -1.444766602789
H            0.505005910007     2.178406347667    -0.790273353173
C            1.079351796557     0.466543920137     0.339232431901
H            1.347888775841     1.087587952124     1.200020625444
H            0.638831796186    -0.445064906408     0.749111274565
}

set globals {
  reference rhf
  g_convergence gau_verytight
  basis aug-cc-pvtz
  freeze_core true
  scf_type df
  mp_type df
}
optimize('mp2')
--------------------------------------------------------------------------
/usr/local/hpc5/psi4conda/lib/python2.7/site-packages/v2rdm_casscf/v2rdm_casscf.so loaded.

  Memory set to  60.000 GiB by Python script.
gradient() will perform analytic gradient computation.

*** tstart() called on wr33
*** at Tue Sep 20 23:27:01 2016


         ---------------------------------------------------------
                                   SCF
            by Justin Turney, Rob Parrish, and Andy Simmonett
                              RHF Reference
                       12 Threads,  60000 MiB Core
         ---------------------------------------------------------

  ==> Geometry <==

    Molecular point group: c1
    Full point group: C1

    Geometry (in Angstrom), charge = 0, multiplicity = 1:

       Center              X                  Y                   Z               Mass       
    ------------   -----------------  -----------------  -----------------  -----------------
           C         -1.313560427615    -1.883624773865    -0.520239469356    12.000000000000
           H         -1.122753738180    -2.879214363998    -0.118383238169     1.007825032070
           H         -0.359126491610    -1.461948517212    -0.830173040272     1.007825032070
           H         -1.928768395208    -1.997785406639    -1.413991532909     1.007825032070
           C          3.369240938210    -0.611947172450     0.426472127915    12.000000000000
           H          4.262920556959    -0.868605844174    -0.141823774822     1.007825032070
           H          2.954006260839    -1.534747809162     0.833769095853     1.007825032070
           H          3.673642461177     0.013799751682     1.266356365928     1.007825032070
           C         -2.031776117937    -1.006194598083     0.502325164561    12.000000000000
           H         -1.447943516735    -0.939871280751     1.424274293579     1.007825032070
           H         -2.965216430951    -1.504535906936     0.773326110341     1.007825032070
           C          2.339406936449     0.106617394050    -0.436366257288    12.000000000000
           H          2.775838395101     1.017277524085    -0.855885635314     1.007825032070
           H          2.066117060760    -0.524059315628    -1.287300496621     1.007825032070
           C         -2.358454416143     0.406045523896     0.001493530884    12.000000000000
           H         -3.258496423848     0.758101682064     0.511662305229     1.007825032070
           H         -2.613783898429     0.352705399813    -1.062091327009     1.007825032070
           C         -1.278691690638     1.472896082733     0.199940962338    12.000000000000
           H         -1.094071108795     1.598088383990     1.271967665073     1.007825032070
           H         -1.693505631972     2.421869286330    -0.148313487048     1.007825032070
           C          0.058231229916     1.221291363534    -0.507608163283    12.000000000000
           H         -0.118259321745     0.684454926167    -1.444766602789     1.007825032070
           H          0.505005910007     2.178406347667    -0.790273353173     1.007825032070
           C          1.079351796557     0.466543920137     0.339232431901    12.000000000000
           H          1.347888775841     1.087587952124     1.200020625444     1.007825032070
           H          0.638831796186    -0.445064906408     0.749111274565     1.007825032070

  Running in c1 symmetry.

  Rotational constants: A =      0.09399  B =      0.03376  C =      0.02757 [cm^-1]
  Rotational constants: A =   2817.61292  B =   1012.12448  C =    826.40975 [MHz]
  Nuclear repulsion =  401.954481869688891

  Charge       = 0
  Multiplicity = 1
  Electrons    = 66
  Nalpha       = 33
  Nbeta        = 33

  ==> Algorithm <==

  SCF Algorithm Type is DF.
  DIIS enabled.
  MOM disabled.
  Fractional occupation disabled.
  Guess Type is SAD.
  Energy threshold   = 1.00e-10
  Density threshold  = 1.00e-10
  Integral threshold = 0.00e+00

  ==> Primary Basis <==

  Basis Set: AUG-CC-PVTZ
    Number of shells: 274
    Number of basis function: 782
    Number of Cartesian functions: 890
    Spherical Harmonics?: true
    Max angular momentum: 3

  ==> Pre-Iterations <==

   -------------------------------------------------------
    Irrep   Nso     Nmo     Nalpha   Nbeta   Ndocc  Nsocc
   -------------------------------------------------------
     A        782     782       0       0       0       0
   -------------------------------------------------------
    Total     782     782      33      33      33       0
   -------------------------------------------------------

  ==> Integral Setup <==

  ==> DFJK: Density-Fitted J/K Matrices <==

    J tasked:                  Yes
    K tasked:                  Yes
    wK tasked:                  No
    OpenMP threads:             12
    Integrals threads:          12
    Memory (MB):             42915
    Algorithm:                Core
    Integral Cache:           NONE
    Schwarz Cutoff:          1E-12
    Fitting Condition:       1E-12

   => Auxiliary Basis Set <=

  Basis Set: 
    Number of shells: 492
    Number of basis function: 1660
    Number of Cartesian functions: 2038
    Spherical Harmonics?: true
    Max angular momentum: 4

  Minimum eigenvalue in the overlap matrix is 1.5598117974E-06.
  Using Symmetric Orthogonalization.
  SCF Guess: Superposition of Atomic Densities via on-the-fly atomic UHF.

  ==> Iterations <==

                           Total Energy        Delta E     RMS |[F,P]|

   @DF-RHF iter   0:  -317.01385364638389   -3.17014e+02   7.04305e-03 
   @DF-RHF iter   1:  -313.30227241005190    3.71158e+00   6.81578e-04 
   @DF-RHF iter   2:  -313.50389583264422   -2.01623e-01   2.50321e-04 DIIS
   @DF-RHF iter   3:  -313.53001359971864   -2.61178e-02   9.91865e-05 DIIS
   @DF-RHF iter   4:  -313.53495603179960   -4.94243e-03   1.41389e-05 DIIS
   @DF-RHF iter   5:  -313.53508820928431   -1.32177e-04   4.55565e-06 DIIS
   @DF-RHF iter   6:  -313.53509870597617   -1.04967e-05   1.19570e-06 DIIS
   @DF-RHF iter   7:  -313.53509943598073   -7.30005e-07   2.30367e-07 DIIS
   @DF-RHF iter   8:  -313.53509947035496   -3.43742e-08   6.67796e-08 DIIS
   @DF-RHF iter   9:  -313.53509947282652   -2.47155e-09   1.95711e-08 DIIS
   @DF-RHF iter  10:  -313.53509947309163   -2.65118e-10   5.35458e-09 DIIS
   @DF-RHF iter  11:  -313.53509947311358   -2.19416e-11   1.45078e-09 DIIS
   @DF-RHF iter  12:  -313.53509947311471   -1.13687e-12   4.24237e-10 DIIS
   @DF-RHF iter  13:  -313.53509947311426    4.54747e-13   1.15348e-10 DIIS
   @DF-RHF iter  14:  -313.53509947311426    0.00000e+00   3.11422e-11 DIIS

  ==> Post-Iterations <==

    Orbital Energies (a.u.)
    -----------------------

    Doubly Occupied:                                                      

       1A    -11.213328     2A    -11.212674     3A    -11.211497  
       4A    -11.210905     5A    -11.210063     6A    -11.208920  
       7A    -11.207286     8A    -11.206539     9A     -1.093065  
      10A     -1.058063    11A     -1.008858    12A     -0.953222  
      13A     -0.883103    14A     -0.822385    15A     -0.787466  
      16A     -0.766882    17A     -0.655818    18A     -0.615659  
      19A     -0.608394    20A     -0.596968    21A     -0.568914  
      22A     -0.563313    23A     -0.546986    24A     -0.539469  
      25A     -0.516698    26A     -0.494234    27A     -0.488697  
      28A     -0.473702    29A     -0.464304    30A     -0.463840  
      31A     -0.454816    32A     -0.434509    33A     -0.429800  

    Virtual:                                                              

      34A      0.028503    35A      0.032705    36A      0.034340  
      37A      0.035180    38A      0.046036    39A      0.048547  
      40A      0.050700    41A      0.053374    42A      0.056472  
      43A      0.067213    44A      0.069919    45A      0.070825  
      46A      0.073069    47A      0.078936    48A      0.085392  
      49A      0.092115    50A      0.096343    51A      0.101138  
      52A      0.114296    53A      0.115548    54A      0.118987  
      55A      0.122317    56A      0.128425    57A      0.129488  
      58A      0.136026    59A      0.136519    60A      0.139628  
      61A      0.145965    62A      0.147200    63A      0.151685  
      64A      0.155427    65A      0.158995    66A      0.164107  
      67A      0.165796    68A      0.169759    69A      0.171773  
      70A      0.174571    71A      0.179757    72A      0.182796  
      73A      0.184975    74A      0.193220    75A      0.201660  
      76A      0.207586    77A      0.210356    78A      0.222437  
      79A      0.224000    80A      0.235729    81A      0.239821  
      82A      0.244341    83A      0.253413    84A      0.262127  
      85A      0.267428    86A      0.268541    87A      0.270901  
      88A      0.280196    89A      0.293371    90A      0.296075  
      91A      0.298084    92A      0.307333    93A      0.309529  
      94A      0.312332    95A      0.317768    96A      0.324134  
      97A      0.328604    98A      0.331036    99A      0.335463  
     100A      0.338236   101A      0.343636   102A      0.345835  
     103A      0.350304   104A      0.352440   105A      0.357673  
     106A      0.360318   107A      0.362511   108A      0.366134  
     109A      0.368935   110A      0.372362   111A      0.378128  
     112A      0.384385   113A      0.385012   114A      0.386404  
     115A      0.394259   116A      0.398223   117A      0.401336  
     118A      0.403332   119A      0.406326   120A      0.408651  
     121A      0.417493   122A      0.418644   123A      0.421687  
     124A      0.425660   125A      0.431562   126A      0.441517  
     127A      0.444168   128A      0.449447   129A      0.453216  
     130A      0.456258   131A      0.457980   132A      0.459847  
     133A      0.465456   134A      0.470271   135A      0.471400  
     136A      0.474857   137A      0.477431   138A      0.484185  
     139A      0.490477   140A      0.492378   141A      0.495201  
     142A      0.502698   143A      0.506779   144A      0.509570  
     145A      0.513281   146A      0.516079   147A      0.520453  
     148A      0.524515   149A      0.526592   150A      0.530430  
     151A      0.532948   152A      0.539394   153A      0.541064  
     154A      0.544032   155A      0.551032   156A      0.555990  
     157A      0.562715   158A      0.567939   159A      0.577875  
     160A      0.578703   161A      0.581718   162A      0.586151  
     163A      0.593984   164A      0.596429   165A      0.597615  
     166A      0.603288   167A      0.610542   168A      0.612153  
     169A      0.615971   170A      0.616180   171A      0.627581  
     172A      0.629043   173A      0.635049   174A      0.636187  
     175A      0.640709   176A      0.648915   177A      0.655638  
     178A      0.665189   179A      0.669645   180A      0.671439  
     181A      0.678149   182A      0.684316   183A      0.687157  
     184A      0.692628   185A      0.700309   186A      0.702249  
     187A      0.704601   188A      0.712647   189A      0.716171  
     190A      0.722417   191A      0.727003   192A      0.731036  
     193A      0.736421   194A      0.742144   195A      0.754842  
     196A      0.756857   197A      0.765564   198A      0.774662  
     199A      0.788436   200A      0.797024   201A      0.808211  
     202A      0.813971   203A      0.815391   204A      0.825083  
     205A      0.832044   206A      0.837457   207A      0.845304  
     208A      0.855584   209A      0.861806   210A      0.866419  
     211A      0.867358   212A      0.878131   213A      0.882704  
     214A      0.886202   215A      0.890438   216A      0.894446  
     217A      0.904097   218A      0.908748   219A      0.915882  
     220A      0.916946   221A      0.924559   222A      0.927461  
     223A      0.932037   224A      0.935849   225A      0.942863  
     226A      0.943619   227A      0.945729   228A      0.954767  
     229A      0.957548   230A      0.965004   231A      0.967314  
     232A      0.972503   233A      0.980485   234A      0.986209  
     235A      0.991571   236A      0.998490   237A      1.002696  
     238A      1.007551   239A      1.013995   240A      1.018336  
     241A      1.020327   242A      1.023869   243A      1.034908  
     244A      1.037271   245A      1.040246   246A      1.047215  
     247A      1.049274   248A      1.055416   249A      1.066639  
     250A      1.067672   251A      1.070160   252A      1.076000  
     253A      1.089828   254A      1.094350   255A      1.096312  
     256A      1.098147   257A      1.106048   258A      1.111310  
     259A      1.113604   260A      1.120240   261A      1.127951  
     262A      1.131271   263A      1.140151   264A      1.154125  
     265A      1.157421   266A      1.160876   267A      1.163070  
     268A      1.168879   269A      1.171955   270A      1.175881  
     271A      1.187904   272A      1.191557   273A      1.194402  
     274A      1.198283   275A      1.200549   276A      1.206115  
     277A      1.215541   278A      1.216448   279A      1.225162  
     280A      1.231231   281A      1.238245   282A      1.244650  
     283A      1.247167   284A      1.255702   285A      1.257995  
     286A      1.263293   287A      1.268538   288A      1.275568  
     289A      1.281744   290A      1.285082   291A      1.293979  
     292A      1.301495   293A      1.304611   294A      1.306358  
     295A      1.313907   296A      1.317541   297A      1.323000  
     298A      1.332918   299A      1.340050   300A      1.345168  
     301A      1.355033   302A      1.358947   303A      1.370070  
     304A      1.381046   305A      1.383003   306A      1.389312  
     307A      1.393259   308A      1.406420   309A      1.412285  
     310A      1.415388   311A      1.423240   312A      1.423628  
     313A      1.430541   314A      1.438856   315A      1.443552  
     316A      1.453048   317A      1.456187   318A      1.465918  
     319A      1.467132   320A      1.487045   321A      1.488385  
     322A      1.496806   323A      1.506681   324A      1.513504  
     325A      1.522466   326A      1.530098   327A      1.539464  
     328A      1.541202   329A      1.546469   330A      1.551572  
     331A      1.562178   332A      1.582804   333A      1.589749  
     334A      1.592881   335A      1.593915   336A      1.598198  
     337A      1.603927   338A      1.612245   339A      1.618684  
     340A      1.625562   341A      1.632240   342A      1.644118  
     343A      1.645112   344A      1.654912   345A      1.662436  
     346A      1.667638   347A      1.678384   348A      1.684094  
     349A      1.688216   350A      1.694547   351A      1.703552  
     352A      1.709598   353A      1.712299   354A      1.718842  
     355A      1.728129   356A      1.730114   357A      1.733564  
     358A      1.742978   359A      1.750793   360A      1.752410  
     361A      1.755109   362A      1.761042   363A      1.764114  
     364A      1.771097   365A      1.775103   366A      1.780407  
     367A      1.791072   368A      1.792067   369A      1.806809  
     370A      1.820911   371A      1.823816   372A      1.832358  
     373A      1.837531   374A      1.839975   375A      1.843379  
     376A      1.851520   377A      1.858458   378A      1.862725  
     379A      1.866370   380A      1.878314   381A      1.883790  
     382A      1.890231   383A      1.891197   384A      1.897540  
     385A      1.902426   386A      1.905962   387A      1.920310  
     388A      1.922047   389A      1.931273   390A      1.933043  
     391A      1.946968   392A      1.950465   393A      1.962932  
     394A      1.970098   395A      1.971850   396A      1.981066  
     397A      1.986900   398A      1.995019   399A      1.996824  
     400A      2.006696   401A      2.014233   402A      2.018193  
     403A      2.021339   404A      2.029404   405A      2.035002  
     406A      2.051551   407A      2.055728   408A      2.063036  
     409A      2.070175   410A      2.077491   411A      2.083032  
     412A      2.089541   413A      2.093709   414A      2.103347  
     415A      2.105596   416A      2.121569   417A      2.131152  
     418A      2.137724   419A      2.143641   420A      2.155231  
     421A      2.164005   422A      2.180121   423A      2.190728  
     424A      2.203509   425A      2.209959   426A      2.213177  
     427A      2.223098   428A      2.224965   429A      2.244066  
     430A      2.253410   431A      2.257173   432A      2.264575  
     433A      2.271248   434A      2.284899   435A      2.290949  
     436A      2.291960   437A      2.303581   438A      2.308115  
     439A      2.324251   440A      2.337357   441A      2.345632  
     442A      2.349522   443A      2.358222   444A      2.364194  
     445A      2.371662   446A      2.383868   447A      2.392918  
     448A      2.401448   449A      2.404741   450A      2.410673  
     451A      2.420761   452A      2.425777   453A      2.438815  
     454A      2.450890   455A      2.457457   456A      2.465972  
     457A      2.477496   458A      2.486374   459A      2.487410  
     460A      2.502675   461A      2.516591   462A      2.521160  
     463A      2.538266   464A      2.545938   465A      2.552761  
     466A      2.558924   467A      2.568879   468A      2.593138  
     469A      2.617644   470A      2.624494   471A      2.628143  
     472A      2.648756   473A      2.661774   474A      2.677980  
     475A      2.681274   476A      2.694893   477A      2.718133  
     478A      2.721688   479A      2.752842   480A      2.775339  
     481A      2.803005   482A      2.807124   483A      2.824057  
     484A      2.886556   485A      2.945416   486A      2.997144  
     487A      3.020559   488A      3.056188   489A      3.111346  
     490A      3.156955   491A      3.216988   492A      3.228684  
     493A      3.303482   494A      3.311855   495A      3.385150  
     496A      3.403046   497A      3.439705   498A      3.464017  
     499A      3.467847   500A      3.486423   501A      3.491463  
     502A      3.501334   503A      3.524942   504A      3.539238  
     505A      3.550362   506A      3.565019   507A      3.571388  
     508A      3.588265   509A      3.592279   510A      3.598605  
     511A      3.609386   512A      3.618702   513A      3.634692  
     514A      3.647089   515A      3.664556   516A      3.679394  
     517A      3.684952   518A      3.697479   519A      3.700086  
     520A      3.704846   521A      3.719253   522A      3.729198  
     523A      3.732713   524A      3.740179   525A      3.761248  
     526A      3.765013   527A      3.773539   528A      3.777132  
     529A      3.780163   530A      3.799219   531A      3.803083  
     532A      3.815750   533A      3.827529   534A      3.833722  
     535A      3.838803   536A      3.851618   537A      3.865617  
     538A      3.867681   539A      3.877214   540A      3.883964  
     541A      3.892729   542A      3.896759   543A      3.908755  
     544A      3.910880   545A      3.914226   546A      3.921038  
     547A      3.928587   548A      3.931842   549A      3.945020  
     550A      3.954745   551A      3.965389   552A      3.970721  
     553A      3.982675   554A      3.991323   555A      3.996230  
     556A      4.004819   557A      4.010172   558A      4.013924  
     559A      4.015221   560A      4.031309   561A      4.035981  
     562A      4.043710   563A      4.059609   564A      4.064838  
     565A      4.072411   566A      4.081516   567A      4.087942  
     568A      4.091503   569A      4.097549   570A      4.106833  
     571A      4.114952   572A      4.122299   573A      4.124512  
     574A      4.145784   575A      4.151578   576A      4.165091  
     577A      4.169443   578A      4.180133   579A      4.193338  
     580A      4.206464   581A      4.211927   582A      4.224883  
     583A      4.232459   584A      4.243161   585A      4.251748  
     586A      4.254849   587A      4.259787   588A      4.276325  
     589A      4.291289   590A      4.294701   591A      4.308930  
     592A      4.313693   593A      4.319678   594A      4.334279  
     595A      4.344288   596A      4.348049   597A      4.359693  
     598A      4.363690   599A      4.379662   600A      4.388904  
     601A      4.396997   602A      4.405168   603A      4.415508  
     604A      4.422626   605A      4.436517   606A      4.445869  
     607A      4.453694   608A      4.466705   609A      4.480335  
     610A      4.507115   611A      4.510424   612A      4.529560  
     613A      4.541726   614A      4.550681   615A      4.554486  
     616A      4.580903   617A      4.583335   618A      4.598921  
     619A      4.606848   620A      4.621930   621A      4.627363  
     622A      4.636175   623A      4.667498   624A      4.674637  
     625A      4.687863   626A      4.706191   627A      4.713296  
     628A      4.723149   629A      4.734170   630A      4.747252  
     631A      4.758070   632A      4.763208   633A      4.773671  
     634A      4.783115   635A      4.794194   636A      4.815647  
     637A      4.818058   638A      4.829486   639A      4.841454  
     640A      4.848526   641A      4.864752   642A      4.877328  
     643A      4.883934   644A      4.894375   645A      4.897246  
     646A      4.907988   647A      4.918743   648A      4.927628  
     649A      4.940055   650A      4.949353   651A      4.965458  
     652A      4.976754   653A      4.983646   654A      4.996308  
     655A      5.012930   656A      5.027953   657A      5.031981  
     658A      5.048942   659A      5.062673   660A      5.070528  
     661A      5.087017   662A      5.101125   663A      5.114037  
     664A      5.121816   665A      5.141556   666A      5.150279  
     667A      5.155244   668A      5.163257   669A      5.178795  
     670A      5.192832   671A      5.199171   672A      5.214278  
     673A      5.229365   674A      5.234881   675A      5.244437  
     676A      5.255616   677A      5.263318   678A      5.275109  
     679A      5.287301   680A      5.297039   681A      5.306554  
     682A      5.317055   683A      5.320969   684A      5.341773  
     685A      5.354195   686A      5.358515   687A      5.368428  
     688A      5.386894   689A      5.404685   690A      5.412430  
     691A      5.420336   692A      5.427840   693A      5.443185  
     694A      5.458987   695A      5.470201   696A      5.477836  
     697A      5.480132   698A      5.493952   699A      5.502907  
     700A      5.524095   701A      5.526794   702A      5.536057  
     703A      5.542008   704A      5.558606   705A      5.572279  
     706A      5.588715   707A      5.603276   708A      5.613974  
     709A      5.616485   710A      5.639493   711A      5.656707  
     712A      5.674177   713A      5.679045   714A      5.692584  
     715A      5.709803   716A      5.723492   717A      5.726074  
     718A      5.737801   719A      5.748826   720A      5.756590  
     721A      5.766580   722A      5.782079   723A      5.786974  
     724A      5.799619   725A      5.826521   726A      5.836221  
     727A      5.859984   728A      5.890141   729A      5.905941  
     730A      5.914789   731A      5.918161   732A      5.989988  
     733A      5.994352   734A      6.009718   735A      6.020172  
     736A      6.057170   737A      6.066242   738A      6.088212  
     739A      6.100006   740A      6.128115   741A      6.159416  
     742A      6.171195   743A      6.213990   744A      6.232699  
     745A      6.242472   746A      6.253295   747A      6.266511  
     748A      6.281670   749A      6.311966   750A      6.317445  
     751A      6.322347   752A      6.352716   753A      6.361598  
     754A      6.374362   755A      6.387727   756A      6.441995  
     757A      6.455836   758A      6.484351   759A      6.555564  
     760A      6.629404   761A      6.669978   762A      6.693868  
     763A      6.766994   764A      6.788985   765A      6.807325  
     766A      6.876743   767A      6.901551   768A      6.938875  
     769A      6.968006   770A      6.989553   771A      7.045093  
     772A      7.075362   773A      7.133462   774A      7.182684  
     775A     18.078863   776A     18.252342   777A     18.477617  
     778A     18.587318   779A     18.823248   780A     19.350252  
     781A     19.602349   782A     19.904115  

    Final Occupation by Irrep:
              A 
    DOCC [    33 ]

  Energy converged.

  @DF-RHF Final Energy:  -313.53509947311426

   => Energetics <=

    Nuclear Repulsion Energy =            401.9544818696888910
    One-Electron Energy =               -1219.0384079614113944
    Two-Electron Energy =                 503.5488266186081319
    DFT Exchange-Correlation Energy =       0.0000000000000000
    Empirical Dispersion Energy =           0.0000000000000000
    PCM Polarization Energy =               0.0000000000000000
    EFP Energy =                            0.0000000000000000
    Total Energy =                       -313.5350994731144283


  Saving occupied orbitals to File 180.

*** tstop() called on wr33 at Tue Sep 20 23:28:40 2016
Module time:
	user time   =    1003.71 seconds =      16.73 minutes
	system time =      13.90 seconds =       0.23 minutes
	total time  =         99 seconds =       1.65 minutes
Total time:
	user time   =    1003.71 seconds =      16.73 minutes
	system time =      13.90 seconds =       0.23 minutes
	total time  =         99 seconds =       1.65 minutes


Properties will be evaluated at   0.000000,   0.000000,   0.000000 Bohr

Properties computed using the SCF density matrix

  Nuclear Dipole Moment: (a.u.)
     X:     1.5209      Y:    -1.9158      Z:    -0.0586

  Electronic Dipole Moment: (a.u.)
     X:    -1.5543      Y:     1.9499      Z:     0.0655

  Dipole Moment: (a.u.)
     X:    -0.0334      Y:     0.0342      Z:     0.0069     Total:     0.0483

  Dipole Moment: (Debye)
     X:    -0.0850      Y:     0.0869      Z:     0.0176     Total:     0.1228


  //>>>>>>>>>>>>>>>>>>>>>>>>>>>>>>>>>>>//
  //               DFMP2               //
  //<<<<<<<<<<<<<<<<<<<<<<<<<<<<<<<<<<<//


*** tstart() called on wr33
*** at Tue Sep 20 23:28:40 2016


*** tstop() called on wr33 at Tue Sep 20 23:28:40 2016
Module time:
	user time   =       3.49 seconds =       0.06 minutes
	system time =       0.17 seconds =       0.00 minutes
	total time  =          0 seconds =       0.00 minutes
Total time:
	user time   =    1009.04 seconds =      16.82 minutes
	system time =      14.17 seconds =       0.24 minutes
	total time  =         99 seconds =       1.65 minutes
	 --------------------------------------------------------
	                          DF-MP2                         
	      2nd-Order Density-Fitted Moller-Plesset Theory     
	              RMP2 Wavefunction,  12 Threads             
	                                                         
	        Rob Parrish, Justin Turney, Andy Simmonett,      
	           Ed Hohenstein, and C. David Sherrill          
	 --------------------------------------------------------

   => Auxiliary Basis Set <=

  Basis Set: 
    Number of shells: 476
    Number of basis function: 1676
    Number of Cartesian functions: 2078
    Spherical Harmonics?: true
    Max angular momentum: 4

	 --------------------------------------------------------
	                 NBF =   782, NAUX =  1676
	 --------------------------------------------------------
	   CLASS    FOCC     OCC    AOCC    AVIR     VIR    FVIR
	   PAIRS       8      33      25     749     749       0
	 --------------------------------------------------------

DGAS Warning! /src/lib/libfock/apps.cc:80 is not currently checking restricted

         ------------------------------------------------------------
                                     CPHF                           
                                  Rob Parrish                       
         ------------------------------------------------------------

  ==> Geometry <==

    Molecular point group: c1
    Full point group: C1

    Geometry (in Angstrom), charge = 0, multiplicity = 1:

       Center              X                  Y                   Z               Mass       
    ------------   -----------------  -----------------  -----------------  -----------------
           C         -1.313560427615    -1.883624773865    -0.520239469356    12.000000000000
           H         -1.122753738180    -2.879214363998    -0.118383238169     1.007825032070
           H         -0.359126491610    -1.461948517212    -0.830173040272     1.007825032070
           H         -1.928768395208    -1.997785406639    -1.413991532909     1.007825032070
           C          3.369240938210    -0.611947172450     0.426472127915    12.000000000000
           H          4.262920556959    -0.868605844174    -0.141823774822     1.007825032070
           H          2.954006260839    -1.534747809162     0.833769095853     1.007825032070
           H          3.673642461177     0.013799751682     1.266356365928     1.007825032070
           C         -2.031776117937    -1.006194598083     0.502325164561    12.000000000000
           H         -1.447943516735    -0.939871280751     1.424274293579     1.007825032070
           H         -2.965216430951    -1.504535906936     0.773326110341     1.007825032070
           C          2.339406936449     0.106617394050    -0.436366257288    12.000000000000
           H          2.775838395101     1.017277524085    -0.855885635314     1.007825032070
           H          2.066117060760    -0.524059315628    -1.287300496621     1.007825032070
           C         -2.358454416143     0.406045523896     0.001493530884    12.000000000000
           H         -3.258496423848     0.758101682064     0.511662305229     1.007825032070
           H         -2.613783898429     0.352705399813    -1.062091327009     1.007825032070
           C         -1.278691690638     1.472896082733     0.199940962338    12.000000000000
           H         -1.094071108795     1.598088383990     1.271967665073     1.007825032070
           H         -1.693505631972     2.421869286330    -0.148313487048     1.007825032070
           C          0.058231229916     1.221291363534    -0.507608163283    12.000000000000
           H         -0.118259321745     0.684454926167    -1.444766602789     1.007825032070
           H          0.505005910007     2.178406347667    -0.790273353173     1.007825032070
           C          1.079351796557     0.466543920137     0.339232431901    12.000000000000
           H          1.347888775841     1.087587952124     1.200020625444     1.007825032070
           H          0.638831796186    -0.445064906408     0.749111274565     1.007825032070

  Nuclear repulsion =  401.954481869688891
  Reference energy  = -313.535099473114258

  ==> Basis Set <==

  Basis Set: AUG-CC-PVTZ
    Number of shells: 274
    Number of basis function: 782
    Number of Cartesian functions: 890
    Spherical Harmonics?: true
    Max angular momentum: 3

  ==> CGRSolver (by Rob Parrish) <==

   Number of roots    =         1
   Preconditioning    =    JACOBI
   Convergence cutoff =     1E-06
   Maximum iterations =       100

  ==> CPHFRHamiltonian (by Rob Parrish) <== 

  ==> DFJK: Density-Fitted J/K Matrices <==

    J tasked:                  Yes
    K tasked:                  Yes
    wK tasked:                  No
    OpenMP threads:             12
    Integrals threads:          12
    Memory (MB):             42915
    Algorithm:                Core
    Integral Cache:           NONE
    Schwarz Cutoff:          1E-12
    Fitting Condition:       1E-12

   => Auxiliary Basis Set <=

  Basis Set: 
    Number of shells: 492
    Number of basis function: 1660
    Number of Cartesian functions: 2038
    Spherical Harmonics?: true
    Max angular momentum: 4

  ==> CPHF Iterations <==

  => Iterations <=

             Iter  Converged  Remaining    Residual
  CGR           1          0          1   9.179E-02
  CGR           2          0          1   1.350E-02
  CGR           3          0          1   4.077E-03
  CGR           4          0          1   9.032E-04
  CGR           5          0          1   2.320E-04
  CGR           6          0          1   4.795E-05
  CGR           7          0          1   1.354E-05
  CGR           8          0          1   3.398E-06
  CGR           9          1          0   9.801E-07

    CGRSolver converged.

  ==> DFCorrGrad: Density-Fitted Correlated Gradients <==

    OpenMP threads:             12
    Integrals threads:          12
    Memory (MB):             42915
    Schwarz Cutoff:          0E+00
    Fitting Condition:       1E-12

   => Auxiliary Basis Set <=

  Basis Set: 
    Number of shells: 492
    Number of basis function: 1660
    Number of Cartesian functions: 2038
    Spherical Harmonics?: true
    Max angular momentum: 4

	-----------------------------------------------------------
	 ==================> DF-MP2 Energies <==================== 
	-----------------------------------------------------------
	 Reference Energy          =    -313.5350994731142578 [Eh]
	 Singles Energy            =      -0.0000000000000001 [Eh]
	 Same-Spin Energy          =      -0.3170129594365586 [Eh]
	 Opposite-Spin Energy      =      -1.1266757447717568 [Eh]
	 Correlation Energy        =      -1.4436887042083153 [Eh]
	 Total Energy              =    -314.9787881773225990 [Eh]
	-----------------------------------------------------------
	 ================> DF-SCS-MP2 Energies <================== 
	-----------------------------------------------------------
	 SCS Same-Spin Scale       =       0.3333333333333333 [-]
	 SCS Opposite-Spin Scale   =       1.2000000000000000 [-]
	 SCS Same-Spin Energy      =      -0.1056709864788528 [Eh]
	 SCS Opposite-Spin Energy  =      -1.3520108937261082 [Eh]
	 SCS Correlation Energy    =      -1.4576818802049609 [Eh]
	 SCS Total Energy          =    -314.9927813533192307 [Eh]
	-----------------------------------------------------------


  -Total Gradient:
     Atom            X                  Y                   Z
    ------   -----------------  -----------------  -----------------
       1        0.000000884807    -0.000002784998    -0.000002083293
       2       -0.000000201241     0.000002172298    -0.000001008120
       3       -0.000002506025    -0.000000702285     0.000000964708
       4        0.000001307597     0.000000282114     0.000002011191
       5        0.000001264528    -0.000001030145     0.000001215751
       6       -0.000001389506     0.000000422806     0.000001009702
       7        0.000000602484     0.000001883159    -0.000000936163
       8       -0.000000722714    -0.000001036445    -0.000001718947
       9       -0.000000570747     0.000000918092     0.000003358530
      10       -0.000001898905    -0.000000280186    -0.000003406077
      11        0.000001417799     0.000000971029     0.000000154309
      12       -0.000000342794     0.000000515814    -0.000003562045
      13       -0.000001562533    -0.000002192014     0.000001320138
      14        0.000000511945     0.000001756761     0.000002483312
      15       -0.000001681557     0.000000043513    -0.000002016530
      16        0.000001813074    -0.000001040319    -0.000001390341
      17        0.000001414749     0.000000200829     0.000003359959
      18        0.000000552328     0.000003021381     0.000002178368
      19       -0.000000376327    -0.000000721042    -0.000003923942
      20        0.000001141692    -0.000001951820     0.000001104232
      21       -0.000000006126    -0.000000299246    -0.000003971066
      22        0.000000904190     0.000001880217     0.000003456271
      23       -0.000001447743    -0.000002278624     0.000000486724
      24       -0.000000496905    -0.000002384012     0.000004574258
      25       -0.000000754181    -0.000001645321    -0.000001916971
      26        0.000002142107     0.000004278448    -0.000001743960


			-----------------------------------------
			 OPTKING 2.0: for geometry optimizations 
			  - R.A. King,  Bethel University        
			-----------------------------------------

	Internal coordinates to be generated automatically.
	Detected frag 1 with atoms:  1 2 3 4 5 6 7 8 9 10 11 12 13 14 15 16 17 18 19 20
	 21 22 23 24 25 26
	---Fragment 1 Bond Connectivity---
	 1 : 2 3 4 9
	 2 : 1
	 3 : 1
	 4 : 1
	 5 : 6 7 8 12
	 6 : 5
	 7 : 5
	 8 : 5
	 9 : 1 10 11 15
	 10 : 9
	 11 : 9
	 12 : 5 13 14 24
	 13 : 12
	 14 : 12
	 15 : 9 16 17 18
	 16 : 15
	 17 : 15
	 18 : 15 19 20 21
	 19 : 18
	 20 : 18
	 21 : 18 22 23 24
	 22 : 21
	 23 : 21
	 24 : 12 21 25 26
	 25 : 24
	 26 : 24

	---Fragment 1 Geometry and Gradient---
	 C          -2.4822694672       -3.5595349597       -0.9831101206
	 H          -2.1216970798       -5.4409266258       -0.2237118989
	 H          -0.6786507162       -2.7626823179       -1.5687996890
	 H          -3.6448440407       -3.7752672908       -2.6720567514
	 C           6.3669426489       -1.1564125637        0.8059155251
	 H           8.0557523789       -1.6414271629       -0.2680080935
	 H           5.5822628278       -2.9002530424        1.5755952492
	 H           6.9421781618        0.0260777514        2.3930667182
	 C          -3.8395004262       -1.9014322268        0.9492569907
	 H          -2.7362167025       -1.7760993208        2.6914883530
	 H          -5.6034469792       -2.8431608212        1.4613745600
	 C           4.4208384233        0.2014776758       -0.8246127199
	 H           5.2455743559        1.9223759217       -1.6173894518
	 H           3.9043954033       -0.9903285839       -2.4326453893
	 C          -4.4568329434        0.7673148376        0.0028223643
	 H          -6.1576658461        1.4326045600        0.9669016294
	 H          -4.9393357386        0.6665166112       -2.0070617362
	 C          -2.4163771037        2.7833702186        0.3778336616
	 H          -2.0674947655        3.0199493819        2.4036705369
	 H          -3.2002618489        4.5766696808       -0.2802718723
	 C           0.1100410769        2.3079062055       -0.9592404114
	 H          -0.2234777308        1.2934323608       -2.7302132052
	 H           0.9543228654        4.1165914032       -1.4934002076
	 C           2.0396792965        0.8816402380        0.6410563917
	 H           2.5471406439        2.0552433749        2.2677103359
	 H           1.2072171398       -0.8410507845        1.4156151520
	             0.0000008848       -0.0000027850       -0.0000020833
	            -0.0000002012        0.0000021723       -0.0000010081
	            -0.0000025060       -0.0000007023        0.0000009647
	             0.0000013076        0.0000002821        0.0000020112
	             0.0000012645       -0.0000010301        0.0000012158
	            -0.0000013895        0.0000004228        0.0000010097
	             0.0000006025        0.0000018832       -0.0000009362
	            -0.0000007227       -0.0000010364       -0.0000017189
	            -0.0000005707        0.0000009181        0.0000033585
	            -0.0000018989       -0.0000002802       -0.0000034061
	             0.0000014178        0.0000009710        0.0000001543
	            -0.0000003428        0.0000005158       -0.0000035620
	            -0.0000015625       -0.0000021920        0.0000013201
	             0.0000005119        0.0000017568        0.0000024833
	            -0.0000016816        0.0000000435       -0.0000020165
	             0.0000018131       -0.0000010403       -0.0000013903
	             0.0000014147        0.0000002008        0.0000033600
	             0.0000005523        0.0000030214        0.0000021784
	            -0.0000003763       -0.0000007210       -0.0000039239
	             0.0000011417       -0.0000019518        0.0000011042
	            -0.0000000061       -0.0000002992       -0.0000039711
	             0.0000009042        0.0000018802        0.0000034563
	            -0.0000014477       -0.0000022786        0.0000004867
	            -0.0000004969       -0.0000023840        0.0000045743
	            -0.0000007542       -0.0000016453       -0.0000019170
	             0.0000021421        0.0000042784       -0.0000017440

	Previous optimization step data not found.  Starting new optimization.

	---Fragment 1 Intrafragment Coordinates---
	 - Coordinate -           - BOHR/RAD -       - ANG/DEG -
	 R(1,2)           =         2.060663	       1.090456
	 R(1,3)           =         2.056951	       1.088492
	 R(1,4)           =         2.061713	       1.091012
	 R(1,9)           =         2.885381	       1.526878
	 R(5,6)           =         2.059279	       1.089723
	 R(5,7)           =         2.061337	       1.090812
	 R(5,8)           =         2.061123	       1.090699
	 R(5,12)          =         2.879203	       1.523609
	 R(9,10)          =         2.065990	       1.093275
	 R(9,11)          =         2.064128	       1.092290
	 R(9,15)          =         2.898111	       1.533614
	 R(12,13)         =         2.066440	       1.093513
	 R(12,14)         =         2.067096	       1.093860
	 R(12,24)         =         2.877625	       1.522774
	 R(15,16)         =         2.065161	       1.092836
	 R(15,17)         =         2.069445	       1.095103
	 R(15,18)         =         2.892849	       1.530830
	 R(18,19)         =         2.069228	       1.094988
	 R(18,20)         =         2.064825	       1.092658
	 R(18,21)         =         2.897693	       1.533393
	 R(21,22)         =         2.068027	       1.094353
	 R(21,23)         =         2.066272	       1.093424
	 R(21,24)         =         2.884214	       1.526260
	 R(24,25)         =         2.069025	       1.094881
	 R(24,26)         =         2.064122	       1.092286
	 B(1,9,10)        =         1.926689	     110.391164
	 B(1,9,11)        =         1.881737	     107.815565
	 B(1,9,15)        =         1.993982	     114.246737
	 B(2,1,3)         =         1.880940	     107.769947
	 B(2,1,4)         =         1.880761	     107.759679
	 B(2,1,9)         =         1.939244	     111.110496
	 B(3,1,4)         =         1.877293	     107.560978
	 B(3,1,9)         =         1.961157	     112.366018
	 B(4,1,9)         =         1.921449	     110.090942
	 B(5,12,13)       =         1.917984	     109.892393
	 B(5,12,14)       =         1.915055	     109.724547
	 B(5,12,24)       =         1.963119	     112.478450
	 B(6,5,7)         =         1.883526	     107.918101
	 B(6,5,8)         =         1.883703	     107.928205
	 B(6,5,12)        =         1.949873	     111.719500
	 B(7,5,8)         =         1.879748	     107.701648
	 B(7,5,12)        =         1.931716	     110.679198
	 B(8,5,12)        =         1.932802	     110.741424
	 B(9,15,16)       =         1.896140	     108.640796
	 B(9,15,17)       =         1.898619	     108.782853
	 B(9,15,18)       =         2.036636	     116.690662
	 B(10,9,11)       =         1.849193	     105.950937
	 B(10,9,15)       =         1.910579	     109.468140
	 B(11,9,15)       =         1.895594	     108.609519
	 B(12,24,21)      =         1.969137	     112.823257
	 B(12,24,25)      =         1.908746	     109.363114
	 B(12,24,26)      =         1.904540	     109.122083
	 B(13,12,14)      =         1.856070	     106.344996
	 B(13,12,24)      =         1.905846	     109.196934
	 B(14,12,24)      =         1.902613	     109.011687
	 B(15,18,19)      =         1.902357	     108.997050
	 B(15,18,20)      =         1.871480	     107.227927
	 B(15,18,21)      =         2.027289	     116.155098
	 B(16,15,17)      =         1.851531	     106.084940
	 B(16,15,18)      =         1.871178	     107.210583
	 B(17,15,18)      =         1.901071	     108.923354
	 B(18,21,22)      =         1.912432	     109.574261
	 B(18,21,23)      =         1.909119	     109.384445
	 B(18,21,24)      =         1.991532	     114.106367
	 B(19,18,20)      =         1.851207	     106.066339
	 B(19,18,21)      =         1.900232	     108.875275
	 B(20,18,21)      =         1.903326	     109.052531
	 B(21,24,25)      =         1.896326	     108.651499
	 B(21,24,26)      =         1.929535	     110.554211
	 B(22,21,23)      =         1.848257	     105.897325
	 B(22,21,24)      =         1.918207	     109.905153
	 B(23,21,24)      =         1.878560	     107.633563
	 B(25,24,26)      =         1.851776	     106.098963
	 D(1,9,15,16)     =         2.631332	     150.764198
	 D(1,9,15,17)     =         0.623150	      35.703853
	 D(1,9,15,18)     =        -1.535262	     -87.964038
	 D(2,1,9,10)      =         0.997467	      57.150626
	 D(2,1,9,11)      =        -1.014958	     -58.152802
	 D(2,1,9,15)      =        -3.123687	    -178.974089
	 D(3,1,9,10)      =        -1.111571	     -63.688349
	 D(3,1,9,11)      =        -3.123996	    -178.991778
	 D(3,1,9,15)      =         1.050460	      60.186935
	 D(4,1,9,10)      =         3.079630	     176.449807
	 D(4,1,9,11)      =         1.067206	      61.146378
	 D(4,1,9,15)      =        -1.041524	     -59.674909
	 D(5,12,24,21)    =         3.113618	     178.397173
	 D(5,12,24,25)    =         1.001024	      57.354472
	 D(5,12,24,26)    =        -1.017517	     -58.299406
	 D(6,5,12,13)     =        -1.020062	     -58.445244
	 D(6,5,12,14)     =         1.014888	      58.148771
	 D(6,5,12,24)     =         3.135902	     179.673944
	 D(7,5,12,13)     =        -3.119464	    -178.732100
	 D(7,5,12,14)     =        -1.084514	     -62.138084
	 D(7,5,12,24)     =         1.036500	      59.387088
	 D(8,5,12,13)     =         1.080305	      61.896896
	 D(8,5,12,14)     =         3.115254	     178.490911
	 D(8,5,12,24)     =        -1.046917	     -59.983916
	 D(9,15,18,19)    =        -1.082150	     -62.002638
	 D(9,15,18,20)    =        -3.078905	    -176.408242
	 D(9,15,18,21)    =         1.071300	      61.380941
	 D(10,9,15,16)    =        -1.481202	     -84.866618
	 D(10,9,15,17)    =         2.793802	     160.073038
	 D(10,9,15,18)    =         0.635390	      36.405147
	 D(11,9,15,16)    =         0.530312	      30.384625
	 D(11,9,15,17)    =        -1.477870	     -84.675720
	 D(11,9,15,18)    =         2.646903	     151.656389
	 D(12,24,21,18)   =         3.038182	     174.074992
	 D(12,24,21,22)   =         0.882167	      50.544467
	 D(12,24,21,23)   =        -1.122932	     -64.339291
	 D(13,12,24,21)   =         0.979522	      56.122449
	 D(13,12,24,25)   =        -1.133072	     -64.920252
	 D(13,12,24,26)   =         3.131572	     179.425871
	 D(14,12,24,21)   =        -1.041479	     -59.672349
	 D(14,12,24,25)   =         3.129113	     179.284950
	 D(14,12,24,26)   =         1.110572	      63.631072
	 D(15,18,21,22)   =         0.564945	      32.368990
	 D(15,18,21,23)   =         2.583888	     148.045888
	 D(15,18,21,24)   =        -1.594186	     -91.340112
	 D(16,15,18,19)   =         1.047543	      60.019805
	 D(16,15,18,20)   =        -0.949211	     -54.385799
	 D(16,15,18,21)   =        -3.082192	    -176.596616
	 D(17,15,18,19)   =         3.043882	     174.401593
	 D(17,15,18,20)   =         1.047128	      59.995989
	 D(17,15,18,21)   =        -1.085854	     -62.214828
	 D(18,21,24,25)   =        -1.125358	     -64.478258
	 D(18,21,24,26)   =         0.900069	      51.570131
	 D(19,18,21,22)   =         2.719500	     155.815893
	 D(19,18,21,23)   =        -1.544742	     -88.507208
	 D(19,18,21,24)   =         0.560369	      32.106791
	 D(20,18,21,22)   =        -1.551160	     -88.874895
	 D(20,18,21,23)   =         0.467783	      26.802003
	 D(20,18,21,24)   =         2.572895	     147.416003
	 D(22,21,24,25)   =         3.001813	     171.991218
	 D(22,21,24,26)   =        -1.255946	     -71.960394
	 D(23,21,24,25)   =         0.996713	      57.107460
	 D(23,21,24,26)   =         3.022140	     173.155848
	 R(1,21)          =         6.414632	       3.394477
	 R(1,24)          =         6.542933	       3.462371
	 R(9,24)          =         6.511930	       3.445965

	Current energy   :      -314.9787881773

	Generating empirical Hessian (Schlegel '84) for each fragment.
	Taking RFO optimization step.
	Going to follow RFO solution 1.
	Using RFO vector 1.
	Norm of target step-size    0.00038
	Projected energy change by RFO approximation:        -0.0000000065

	Back-transformation to cartesian coordinates...
	Successfully converged to displaced geometry.

	--- Internal Coordinate Step in ANG or DEG, aJ/ANG or AJ/DEG ---
	 ---------------------------------------------------------------------------
	   Coordinate                Previous        Force       Change         New 
	   ----------                --------       ------       ------       ------
	    1 R(1,2)          =      1.090456     0.000020     0.000004     1.090460
	    2 R(1,3)          =      1.088492     0.000022     0.000004     1.088496
	    3 R(1,4)          =      1.091012     0.000020     0.000004     1.091015
	    4 R(1,9)          =      1.526878    -0.000004    -0.000000     1.526877
	    5 R(5,6)          =      1.089723     0.000015     0.000003     1.089726
	    6 R(5,7)          =      1.090812     0.000018     0.000003     1.090816
	    7 R(5,8)          =      1.090699     0.000017     0.000003     1.090703
	    8 R(5,12)         =      1.523609     0.000005     0.000001     1.523610
	    9 R(9,10)         =      1.093275     0.000032     0.000006     1.093281
	   10 R(9,11)         =      1.092290     0.000013     0.000002     1.092292
	   11 R(9,15)         =      1.533614     0.000009     0.000003     1.533617
	   12 R(12,13)        =      1.093513     0.000024     0.000004     1.093518
	   13 R(12,14)        =      1.093860     0.000026     0.000005     1.093865
	   14 R(12,24)        =      1.522774     0.000011     0.000002     1.522776
	   15 R(15,16)        =      1.092836     0.000020     0.000004     1.092840
	   16 R(15,17)        =      1.095103     0.000030     0.000006     1.095109
	   17 R(15,18)        =      1.530830     0.000003     0.000003     1.530832
	   18 R(18,19)        =      1.094988     0.000033     0.000006     1.094994
	   19 R(18,20)        =      1.092658     0.000021     0.000004     1.092662
	   20 R(18,21)        =      1.533393     0.000015     0.000004     1.533397
	   21 R(21,22)        =      1.094353     0.000033     0.000006     1.094359
	   22 R(21,23)        =      1.093424     0.000022     0.000004     1.093428
	   23 R(21,24)        =      1.526260     0.000006     0.000002     1.526262
	   24 R(24,25)        =      1.094881     0.000022     0.000004     1.094885
	   25 R(24,26)        =      1.092286     0.000042     0.000008     1.092294
	   26 B(1,9,10)       =    110.391164     0.000000     0.000251   110.391415
	   27 B(1,9,11)       =    107.815565    -0.000000    -0.000444   107.815121
	   28 B(1,9,15)       =    114.246737     0.000000     0.000280   114.247016
	   29 B(2,1,3)        =    107.769947    -0.000000    -0.000005   107.769942
	   30 B(2,1,4)        =    107.759679     0.000000    -0.000065   107.759614
	   31 B(2,1,9)        =    111.110496    -0.000000    -0.000246   111.110249
	   32 B(3,1,4)        =    107.560978    -0.000000     0.000017   107.560995
	   33 B(3,1,9)        =    112.366018     0.000000     0.000297   112.366315
	   34 B(4,1,9)        =    110.090942     0.000000    -0.000003   110.090939
	   35 B(5,12,13)      =    109.892393    -0.000000    -0.000039   109.892354
	   36 B(5,12,14)      =    109.724547    -0.000000    -0.000181   109.724367
	   37 B(5,12,24)      =    112.478450    -0.000000    -0.000072   112.478378
	   38 B(6,5,7)        =    107.918101    -0.000000    -0.000080   107.918021
	   39 B(6,5,8)        =    107.928205    -0.000000    -0.000017   107.928188
	   40 B(6,5,12)       =    111.719500    -0.000000    -0.000097   111.719403
	   41 B(7,5,8)        =    107.701648    -0.000000    -0.000070   107.701578
	   42 B(7,5,12)       =    110.679198     0.000000     0.000113   110.679312
	   43 B(8,5,12)       =    110.741424     0.000000     0.000143   110.741566
	   44 B(9,15,16)      =    108.640796     0.000000    -0.000176   108.640619
	   45 B(9,15,17)      =    108.782853     0.000000     0.000060   108.782912
	   46 B(9,15,18)      =    116.690662    -0.000000     0.000450   116.691112
	   47 B(10,9,11)      =    105.950937     0.000000     0.000036   105.950973
	   48 B(10,9,15)      =    109.468140    -0.000000     0.000135   109.468275
	   49 B(11,9,15)      =    108.609519    -0.000000    -0.000295   108.609224
	   50 B(12,24,21)     =    112.823257     0.000000     0.000769   112.824025
	   51 B(12,24,25)     =    109.363114    -0.000000    -0.000151   109.362963
	   52 B(12,24,26)     =    109.122083    -0.000000    -0.000231   109.121852
	   53 B(13,12,14)     =    106.344996    -0.000000    -0.000097   106.344900
	   54 B(13,12,24)     =    109.196934     0.000000     0.000362   109.197297
	   55 B(14,12,24)     =    109.011687     0.000000     0.000027   109.011714
	   56 B(15,18,19)     =    108.997050    -0.000000     0.000010   108.997060
	   57 B(15,18,20)     =    107.227927    -0.000000    -0.000461   107.227466
	   58 B(15,18,21)     =    116.155098     0.000000     0.000725   116.155823
	   59 B(16,15,17)     =    106.084940    -0.000000    -0.000170   106.084770
	   60 B(16,15,18)     =    107.210583    -0.000000    -0.000470   107.210112
	   61 B(17,15,18)     =    108.923354     0.000000     0.000241   108.923595
	   62 B(18,21,22)     =    109.574261    -0.000000    -0.000171   109.574089
	   63 B(18,21,23)     =    109.384445     0.000000     0.000188   109.384633
	   64 B(18,21,24)     =    114.106367    -0.000000     0.000048   114.106416
	   65 B(19,18,20)     =    106.066339     0.000000    -0.000134   106.066206
	   66 B(19,18,21)     =    108.875275    -0.000000     0.000103   108.875378
	   67 B(20,18,21)     =    109.052531     0.000000    -0.000323   109.052208
	   68 B(21,24,25)     =    108.651499    -0.000000    -0.000130   108.651369
	   69 B(21,24,26)     =    110.554211    -0.000000    -0.000286   110.553925
	   70 B(22,21,23)     =    105.897325    -0.000000     0.000044   105.897370
	   71 B(22,21,24)     =    109.905153     0.000000     0.000057   109.905210
	   72 B(23,21,24)     =    107.633563    -0.000000    -0.000163   107.633400
	   73 B(25,24,26)     =    106.098963     0.000000    -0.000017   106.098946
	   74 D(1,9,15,16)    =    150.764198     0.000000     0.003126   150.767324
	   75 D(1,9,15,17)    =     35.703853     0.000000     0.003389    35.707242
	   76 D(1,9,15,18)    =    -87.964038     0.000000     0.002681   -87.961357
	   77 D(2,1,9,10)     =     57.150626     0.000000     0.001945    57.152571
	   78 D(2,1,9,11)     =    -58.152802     0.000000     0.002019   -58.150783
	   79 D(2,1,9,15)     =   -178.974089     0.000000     0.002533  -178.971557
	   80 D(3,1,9,10)     =    -63.688349     0.000000     0.001920   -63.686430
	   81 D(3,1,9,11)     =   -178.991778     0.000000     0.001994  -178.989784
	   82 D(3,1,9,15)     =     60.186935     0.000000     0.002507    60.189442
	   83 D(4,1,9,10)     =    176.449807    -0.000000     0.001705   176.451512
	   84 D(4,1,9,11)     =     61.146378    -0.000000     0.001780    61.148158
	   85 D(4,1,9,15)     =    -59.674909    -0.000000     0.002293   -59.672616
	   86 D(5,12,24,21)   =    178.397173     0.000000     0.001326   178.398499
	   87 D(5,12,24,25)   =     57.354472    -0.000000     0.001088    57.355560
	   88 D(5,12,24,26)   =    -58.299406     0.000000     0.001321   -58.298085
	   89 D(6,5,12,13)    =    -58.445244     0.000000    -0.000555   -58.445800
	   90 D(6,5,12,14)    =     58.148771    -0.000000    -0.000800    58.147971
	   91 D(6,5,12,24)    =    179.673944    -0.000000    -0.000942   179.673001
	   92 D(7,5,12,13)    =   -178.732100     0.000000    -0.000466  -178.732566
	   93 D(7,5,12,14)    =    -62.138084    -0.000000    -0.000711   -62.138795
	   94 D(7,5,12,24)    =     59.387088    -0.000000    -0.000853    59.386235
	   95 D(8,5,12,13)    =     61.896896     0.000000    -0.000545    61.896351
	   96 D(8,5,12,14)    =    178.490911    -0.000000    -0.000790   178.490122
	   97 D(8,5,12,24)    =    -59.983916    -0.000000    -0.000932   -59.984848
	   98 D(9,15,18,19)   =    -62.002638    -0.000000    -0.004622   -62.007260
	   99 D(9,15,18,20)   =   -176.408242    -0.000000    -0.004231  -176.412474
	  100 D(9,15,18,21)   =     61.380941    -0.000000    -0.003943    61.376998
	  101 D(10,9,15,16)   =    -84.866618     0.000000     0.003770   -84.862847
	  102 D(10,9,15,17)   =    160.073038     0.000000     0.004033   160.077071
	  103 D(10,9,15,18)   =     36.405147     0.000000     0.003325    36.408471
	  104 D(11,9,15,16)   =     30.384625     0.000000     0.003723    30.388348
	  105 D(11,9,15,17)   =    -84.675720     0.000000     0.003986   -84.671733
	  106 D(11,9,15,18)   =    151.656389     0.000000     0.003278   151.659667
	  107 D(12,24,21,18)  =    174.074992    -0.000000    -0.002327   174.072665
	  108 D(12,24,21,22)  =     50.544467     0.000000    -0.002181    50.542286
	  109 D(12,24,21,23)  =    -64.339291     0.000000    -0.002174   -64.341465
	  110 D(13,12,24,21)  =     56.122449     0.000000     0.001167    56.123617
	  111 D(13,12,24,25)  =    -64.920252    -0.000000     0.000929   -64.919322
	  112 D(13,12,24,26)  =    179.425871     0.000000     0.001162   179.427033
	  113 D(14,12,24,21)  =    -59.672349    -0.000000     0.001068   -59.671281
	  114 D(14,12,24,25)  =    179.284950    -0.000000     0.000830   179.285780
	  115 D(14,12,24,26)  =     63.631072     0.000000     0.001063    63.632135
	  116 D(15,18,21,22)  =     32.368990     0.000000     0.001919    32.370909
	  117 D(15,18,21,23)  =    148.045888     0.000000     0.001982   148.047871
	  118 D(15,18,21,24)  =    -91.340112     0.000000     0.001942   -91.338170
	  119 D(16,15,18,19)  =     60.019805    -0.000000    -0.004916    60.014889
	  120 D(16,15,18,20)  =    -54.385799    -0.000000    -0.004526   -54.390325
	  121 D(16,15,18,21)  =   -176.596616    -0.000000    -0.004237  -176.600853
	  122 D(17,15,18,19)  =    174.401593    -0.000000    -0.005238   174.396355
	  123 D(17,15,18,20)  =     59.995989    -0.000000    -0.004848    59.991142
	  124 D(17,15,18,21)  =    -62.214828    -0.000000    -0.004559   -62.219386
	  125 D(18,21,24,25)  =    -64.478258    -0.000000    -0.002108   -64.480366
	  126 D(18,21,24,26)  =     51.570131    -0.000000    -0.002364    51.567766
	  127 D(19,18,21,22)  =    155.815893     0.000000     0.002549   155.818442
	  128 D(19,18,21,23)  =    -88.507208     0.000000     0.002612   -88.504596
	  129 D(19,18,21,24)  =     32.106791     0.000000     0.002572    32.109363
	  130 D(20,18,21,22)  =    -88.874895     0.000000     0.002271   -88.872624
	  131 D(20,18,21,23)  =     26.802003     0.000000     0.002334    26.804337
	  132 D(20,18,21,24)  =    147.416003     0.000000     0.002294   147.418297
	  133 D(22,21,24,25)  =    171.991218     0.000000    -0.001962   171.989256
	  134 D(22,21,24,26)  =    -71.960394    -0.000000    -0.002218   -71.962612
	  135 D(23,21,24,25)  =     57.107460     0.000000    -0.001955    57.105505
	  136 D(23,21,24,26)  =    173.155848    -0.000000    -0.002211   173.153637
	  137 R(1,21)         =      3.394477    -0.000000    -0.000032     3.394445
	  138 R(1,24)         =      3.462371    -0.000005    -0.000034     3.462337
	  139 R(9,24)         =      3.445965    -0.000001    -0.000023     3.445942
	 ---------------------------------------------------------------------------

  ==> Convergence Check <==

  Measures of convergence in internal coordinates in au.
  Criteria marked as inactive (o), active & met (*), and active & unmet ( ).
  --------------------------------------------------------------------------------------------- ~
   Step     Total Energy     Delta E     MAX Force     RMS Force      MAX Disp      RMS Disp    ~
  --------------------------------------------------------------------------------------------- ~
    Convergence Criteria             o    2.00e-06 *    1.00e-06 *    6.00e-06 *    4.00e-06 *  ~
  --------------------------------------------------------------------------------------------- ~
      1    -314.97878818   -3.15e+02 o    5.09e-06      1.17e-06      9.14e-05      3.26e-05    ~
  ---------------------------------------------------------------------------------------------

	Writing optimization data to binary file.
	Structure for next step:
	Cartesian Geometry (in Angstrom)
	    C    -1.3135039009  -1.8835993760  -0.5202633059
	    H    -1.1227057792  -2.8792071200  -0.1184380959
	    H    -0.3590605175  -1.4619142770  -0.8301701523
	    H    -1.9287018823  -1.9977279506  -1.4140307937
	    C     3.3692047057  -0.6119839430   0.4264879813
	    H     4.2628717577  -0.8686946406  -0.1418093251
	    H     2.9539374326  -1.5347601463   0.8338160954
	    H     3.6736391273   0.0137756216   1.2663550342
	    C    -2.0317346811  -1.0062092652   0.5023245144
	    H    -1.4479001439  -0.9398917327   1.4242799762
	    H    -2.9651626757  -1.5045855130   0.7733136037
	    C     2.3393925168   0.1065962713  -0.4363652471
	    H     2.7758564645   1.0172354623  -0.8559079947
	    H     2.0660834723  -0.5240941574  -1.2872893033
	    C    -2.3584622301   0.4060352673   0.0015281734
	    H    -3.2584805761   0.7580725776   0.5117598445
	    H    -2.6138625527   0.3527043046  -1.0620458757
	    C    -1.2787101340   1.4729095657   0.1999260114
	    H    -1.0940898852   1.5981550740   1.2719528105
	    H    -1.6935466309   2.4218622012  -0.1483696592
	    C     0.0582209389   1.2213112347  -0.5076191896
	    H    -0.1182663257   0.6844656016  -1.4447802843
	    H     0.5049940181   2.1784303236  -0.7902891690
	    C     1.0793462673   0.4665750040   0.3392284249
	    H     1.3479036023   1.0876447619   1.1999968398
	    H     0.6388121198  -0.4450195068   0.7491446616
			--------------------------
			 OPTKING Finished Execution 
			--------------------------

    Structure for next step:
    Molecular point group: c1
    Full point group: C1

    Geometry (in Angstrom), charge = 0, multiplicity = 1:

    C           -1.313504404950    -1.883600051980    -0.520263020347
    H           -1.122706283217    -2.879207795901    -0.118437810393
    H           -0.359061021534    -1.461914952943    -0.830169866727
    H           -1.928702386371    -1.997728626594    -1.414030508149
    C            3.369204201612    -0.611984618919     0.426488266783
    H            4.262871253660    -0.868695316537    -0.141809039585
    H            2.953936928558    -1.534760822205     0.833816380886
    H            3.673638623302     0.013774945679     1.266355319757
    C           -2.031735185107    -1.006209941126     0.502324799919
    H           -1.447900647947    -0.939892408645     1.424280261696
    H           -2.965163179730    -1.504586188910     0.773313889183
    C            2.339392012786     0.106595595391    -0.436364961569
    H            2.775855960504     1.017234786337    -0.855907709166
    H            2.066082968227    -0.524094833296    -1.287289017778
    C           -2.358462734106     0.406034591360     0.001528458927
    H           -3.258481080122     0.758071901653     0.511760129981
    H           -2.613863056731     0.352703628623    -1.062045590169
    C           -1.278710638052     1.472908889740     0.199926296928
    H           -1.094090389230     1.598154398069     1.271953095986
    H           -1.693547134933     2.421861525287    -0.148369373627
    C            0.058220434901     1.221310558795    -0.507618904079
    H           -0.118266829741     0.684464925695    -1.444779998741
    H            0.504993514014     2.178429647643    -0.790288883427
    C            1.079345763274     0.466574328029     0.339228710460
    H            1.347903098221     1.087644085927     1.199997125349
    H            0.638811615731    -0.445020182785     0.749144947175

gradient() will perform analytic gradient computation.

*** tstart() called on wr33
*** at Tue Sep 20 23:33:30 2016


         ---------------------------------------------------------
                                   SCF
            by Justin Turney, Rob Parrish, and Andy Simmonett
                              RHF Reference
                       12 Threads,  60000 MiB Core
         ---------------------------------------------------------

  ==> Geometry <==

    Molecular point group: c1
    Full point group: C1

    Geometry (in Angstrom), charge = 0, multiplicity = 1:

       Center              X                  Y                   Z               Mass       
    ------------   -----------------  -----------------  -----------------  -----------------
           C         -1.313504404950    -1.883600051980    -0.520263020347    12.000000000000
           H         -1.122706283217    -2.879207795901    -0.118437810393     1.007825032070
           H         -0.359061021534    -1.461914952943    -0.830169866727     1.007825032070
           H         -1.928702386371    -1.997728626594    -1.414030508149     1.007825032070
           C          3.369204201612    -0.611984618919     0.426488266783    12.000000000000
           H          4.262871253660    -0.868695316537    -0.141809039585     1.007825032070
           H          2.953936928558    -1.534760822205     0.833816380886     1.007825032070
           H          3.673638623302     0.013774945679     1.266355319757     1.007825032070
           C         -2.031735185107    -1.006209941126     0.502324799919    12.000000000000
           H         -1.447900647947    -0.939892408645     1.424280261696     1.007825032070
           H         -2.965163179730    -1.504586188910     0.773313889183     1.007825032070
           C          2.339392012786     0.106595595391    -0.436364961569    12.000000000000
           H          2.775855960504     1.017234786337    -0.855907709166     1.007825032070
           H          2.066082968227    -0.524094833296    -1.287289017778     1.007825032070
           C         -2.358462734106     0.406034591360     0.001528458927    12.000000000000
           H         -3.258481080122     0.758071901653     0.511760129981     1.007825032070
           H         -2.613863056731     0.352703628623    -1.062045590169     1.007825032070
           C         -1.278710638052     1.472908889740     0.199926296928    12.000000000000
           H         -1.094090389230     1.598154398069     1.271953095986     1.007825032070
           H         -1.693547134933     2.421861525287    -0.148369373627     1.007825032070
           C          0.058220434901     1.221310558795    -0.507618904079    12.000000000000
           H         -0.118266829741     0.684464925695    -1.444779998741     1.007825032070
           H          0.504993514014     2.178429647643    -0.790288883427     1.007825032070
           C          1.079345763274     0.466574328029     0.339228710460    12.000000000000
           H          1.347903098221     1.087644085927     1.199997125349     1.007825032070
           H          0.638811615731    -0.445020182785     0.749144947175     1.007825032070

  Running in c1 symmetry.

  Rotational constants: A =      0.09398  B =      0.03376  C =      0.02757 [cm^-1]
  Rotational constants: A =   2817.57906  B =   1012.13946  C =    826.41874 [MHz]
  Nuclear repulsion =  401.954452688167919

  Charge       = 0
  Multiplicity = 1
  Electrons    = 66
  Nalpha       = 33
  Nbeta        = 33

  ==> Algorithm <==

  SCF Algorithm Type is DF.
  DIIS enabled.
  MOM disabled.
  Fractional occupation disabled.
  Guess Type is READ.
  Energy threshold   = 1.00e-10
  Density threshold  = 1.00e-10
  Integral threshold = 0.00e+00

  ==> Primary Basis <==

  Basis Set: AUG-CC-PVTZ
    Number of shells: 274
    Number of basis function: 782
    Number of Cartesian functions: 890
    Spherical Harmonics?: true
    Max angular momentum: 3

  ==> Pre-Iterations <==

   -------------------------------------------------------
    Irrep   Nso     Nmo     Nalpha   Nbeta   Ndocc  Nsocc
   -------------------------------------------------------
     A        782     782       0       0       0       0
   -------------------------------------------------------
    Total     782     782      33      33      33       0
   -------------------------------------------------------

  ==> Integral Setup <==

  ==> DFJK: Density-Fitted J/K Matrices <==

    J tasked:                  Yes
    K tasked:                  Yes
    wK tasked:                  No
    OpenMP threads:             12
    Integrals threads:          12
    Memory (MB):             42915
    Algorithm:                Core
    Integral Cache:           NONE
    Schwarz Cutoff:          1E-12
    Fitting Condition:       1E-12

   => Auxiliary Basis Set <=

  Basis Set: 
    Number of shells: 492
    Number of basis function: 1660
    Number of Cartesian functions: 2038
    Spherical Harmonics?: true
    Max angular momentum: 4

  Minimum eigenvalue in the overlap matrix is 1.5598478275E-06.
  Using Symmetric Orthogonalization.
  SCF Guess: Reading in previously saved MOs, projecting if necessary.

  Using orbitals from previous SCF, no projection.
  Recomputing DOCC and SOCC from number of alpha and beta electrons from previous calculation.
              A 
    DOCC [    33 ]

  ==> Iterations <==

                           Total Energy        Delta E     RMS |[F,P]|

   @DF-RHF iter   0:  -313.53501174175409   -3.13535e+02   1.66690e-07 
   @DF-RHF iter   1:  -313.53509849017320   -8.67484e-05   5.05465e-08 
   @DF-RHF iter   2:  -313.53509849119695   -1.02375e-09   2.58042e-08 DIIS
   @DF-RHF iter   3:  -313.53509849142227   -2.25327e-10   6.15948e-09 DIIS
   @DF-RHF iter   4:  -313.53509849145274   -3.04681e-11   9.68964e-10 DIIS
   @DF-RHF iter   5:  -313.53509849145297   -2.27374e-13   3.51267e-10 DIIS
   @DF-RHF iter   6:  -313.53509849145320   -2.27374e-13   6.71929e-11 DIIS

  ==> Post-Iterations <==

    Orbital Energies (a.u.)
    -----------------------

    Doubly Occupied:                                                      

       1A    -11.213330     2A    -11.212676     3A    -11.211499  
       4A    -11.210908     5A    -11.210065     6A    -11.208922  
       7A    -11.207287     8A    -11.206541     9A     -1.093063  
      10A     -1.058061    11A     -1.008857    12A     -0.953221  
      13A     -0.883102    14A     -0.822385    15A     -0.787464  
      16A     -0.766879    17A     -0.655817    18A     -0.615657  
      19A     -0.608394    20A     -0.596967    21A     -0.568912  
      22A     -0.563311    23A     -0.546985    24A     -0.539468  
      25A     -0.516698    26A     -0.494234    27A     -0.488696  
      28A     -0.473702    29A     -0.464303    30A     -0.463839  
      31A     -0.454814    32A     -0.434508    33A     -0.429801  

    Virtual:                                                              

      34A      0.028503    35A      0.032706    36A      0.034340  
      37A      0.035180    38A      0.046036    39A      0.048547  
      40A      0.050700    41A      0.053374    42A      0.056472  
      43A      0.067213    44A      0.069919    45A      0.070825  
      46A      0.073069    47A      0.078936    48A      0.085392  
      49A      0.092116    50A      0.096342    51A      0.101139  
      52A      0.114296    53A      0.115548    54A      0.118987  
      55A      0.122317    56A      0.128425    57A      0.129488  
      58A      0.136026    59A      0.136519    60A      0.139628  
      61A      0.145965    62A      0.147200    63A      0.151684  
      64A      0.155427    65A      0.158995    66A      0.164108  
      67A      0.165797    68A      0.169759    69A      0.171773  
      70A      0.174570    71A      0.179757    72A      0.182797  
      73A      0.184975    74A      0.193220    75A      0.201660  
      76A      0.207587    77A      0.210356    78A      0.222438  
      79A      0.224002    80A      0.235730    81A      0.239822  
      82A      0.244340    83A      0.253413    84A      0.262128  
      85A      0.267428    86A      0.268541    87A      0.270900  
      88A      0.280196    89A      0.293370    90A      0.296074  
      91A      0.298084    92A      0.307333    93A      0.309530  
      94A      0.312332    95A      0.317767    96A      0.324134  
      97A      0.328604    98A      0.331036    99A      0.335463  
     100A      0.338236   101A      0.343635   102A      0.345836  
     103A      0.350302   104A      0.352441   105A      0.357671  
     106A      0.360319   107A      0.362511   108A      0.366134  
     109A      0.368936   110A      0.372360   111A      0.378127  
     112A      0.384386   113A      0.385012   114A      0.386404  
     115A      0.394259   116A      0.398222   117A      0.401336  
     118A      0.403332   119A      0.406326   120A      0.408651  
     121A      0.417494   122A      0.418644   123A      0.421687  
     124A      0.425662   125A      0.431560   126A      0.441518  
     127A      0.444168   128A      0.449447   129A      0.453216  
     130A      0.456258   131A      0.457979   132A      0.459845  
     133A      0.465458   134A      0.470272   135A      0.471398  
     136A      0.474856   137A      0.477432   138A      0.484183  
     139A      0.490478   140A      0.492378   141A      0.495201  
     142A      0.502697   143A      0.506779   144A      0.509568  
     145A      0.513282   146A      0.516078   147A      0.520450  
     148A      0.524517   149A      0.526590   150A      0.530429  
     151A      0.532948   152A      0.539392   153A      0.541063  
     154A      0.544031   155A      0.551031   156A      0.555990  
     157A      0.562715   158A      0.567940   159A      0.577876  
     160A      0.578704   161A      0.581719   162A      0.586153  
     163A      0.593983   164A      0.596430   165A      0.597614  
     166A      0.603288   167A      0.610541   168A      0.612153  
     169A      0.615972   170A      0.616178   171A      0.627582  
     172A      0.629041   173A      0.635051   174A      0.636186  
     175A      0.640709   176A      0.648914   177A      0.655638  
     178A      0.665186   179A      0.669647   180A      0.671437  
     181A      0.678148   182A      0.684319   183A      0.687157  
     184A      0.692627   185A      0.700310   186A      0.702249  
     187A      0.704600   188A      0.712646   189A      0.716172  
     190A      0.722419   191A      0.727005   192A      0.731035  
     193A      0.736420   194A      0.742146   195A      0.754839  
     196A      0.756860   197A      0.765566   198A      0.774663  
     199A      0.788433   200A      0.797025   201A      0.808209  
     202A      0.813972   203A      0.815388   204A      0.825083  
     205A      0.832047   206A      0.837458   207A      0.845303  
     208A      0.855584   209A      0.861804   210A      0.866419  
     211A      0.867360   212A      0.878129   213A      0.882705  
     214A      0.886202   215A      0.890438   216A      0.894445  
     217A      0.904101   218A      0.908749   219A      0.915884  
     220A      0.916944   221A      0.924559   222A      0.927460  
     223A      0.932038   224A      0.935849   225A      0.942859  
     226A      0.943620   227A      0.945727   228A      0.954765  
     229A      0.957546   230A      0.965005   231A      0.967314  
     232A      0.972501   233A      0.980487   234A      0.986208  
     235A      0.991574   236A      0.998489   237A      1.002695  
     238A      1.007549   239A      1.013996   240A      1.018335  
     241A      1.020323   242A      1.023868   243A      1.034907  
     244A      1.037275   245A      1.040248   246A      1.047214  
     247A      1.049275   248A      1.055415   249A      1.066643  
     250A      1.067673   251A      1.070155   252A      1.075999  
     253A      1.089827   254A      1.094353   255A      1.096310  
     256A      1.098144   257A      1.106052   258A      1.111310  
     259A      1.113605   260A      1.120243   261A      1.127950  
     262A      1.131273   263A      1.140148   264A      1.154126  
     265A      1.157419   266A      1.160878   267A      1.163072  
     268A      1.168884   269A      1.171959   270A      1.175878  
     271A      1.187905   272A      1.191556   273A      1.194400  
     274A      1.198283   275A      1.200545   276A      1.206112  
     277A      1.215535   278A      1.216451   279A      1.225164  
     280A      1.231235   281A      1.238249   282A      1.244653  
[...]
	   26 B(1,9,10)       =    110.391252     0.000000     0.000006   110.391258
	   27 B(1,9,11)       =    107.815454    -0.000000    -0.000032   107.815422
	   28 B(1,9,15)       =    114.246778    -0.000000     0.000053   114.246831
	   29 B(2,1,3)        =    107.769903     0.000000     0.000011   107.769914
	   30 B(2,1,4)        =    107.759641    -0.000000    -0.000002   107.759639
	   31 B(2,1,9)        =    111.110359     0.000000     0.000018   111.110377
	   32 B(3,1,4)        =    107.561012     0.000000    -0.000001   107.561011
	   33 B(3,1,9)        =    112.366204    -0.000000    -0.000026   112.366178
	   34 B(4,1,9)        =    110.090937     0.000000     0.000002   110.090938
	   35 B(5,12,13)      =    109.892411    -0.000000    -0.000021   109.892389
	   36 B(5,12,14)      =    109.724500    -0.000000    -0.000013   109.724487
	   37 B(5,12,24)      =    112.478407     0.000000     0.000050   112.478457
	   38 B(6,5,7)        =    107.918087     0.000000    -0.000004   107.918083
	   39 B(6,5,8)        =    107.928211    -0.000000     0.000002   107.928213
	   40 B(6,5,12)       =    111.719474    -0.000000    -0.000018   111.719456
	   41 B(7,5,8)        =    107.701640    -0.000000     0.000007   107.701647
	   42 B(7,5,12)       =    110.679235     0.000000    -0.000005   110.679230
	   43 B(8,5,12)       =    110.741427     0.000000     0.000019   110.741446
	   44 B(9,15,16)      =    108.640789    -0.000000    -0.000021   108.640768
	   45 B(9,15,17)      =    108.782804    -0.000000     0.000009   108.782813
	   46 B(9,15,18)      =    116.690737     0.000000     0.000024   116.690762
	   47 B(10,9,11)      =    105.950977    -0.000000    -0.000024   105.950954
	   48 B(10,9,15)      =    109.468213    -0.000000    -0.000014   109.468199
	   49 B(11,9,15)      =    108.609380     0.000000     0.000005   108.609385
	   50 B(12,24,21)     =    112.823421     0.000000     0.000058   112.823479
	   51 B(12,24,25)     =    109.363066    -0.000000    -0.000035   109.363031
	   52 B(12,24,26)     =    109.121998     0.000000     0.000056   109.122054
	   53 B(13,12,14)     =    106.344992     0.000000    -0.000011   106.344981
	   54 B(13,12,24)     =    109.197011    -0.000000    -0.000001   109.197009
	   55 B(14,12,24)     =    109.011690    -0.000000    -0.000006   109.011684
	   56 B(15,18,19)     =    108.997048     0.000000    -0.000007   108.997041
	   57 B(15,18,20)     =    107.227809     0.000000     0.000057   107.227866
	   58 B(15,18,21)     =    116.155258    -0.000000    -0.000018   116.155240
	   59 B(16,15,17)     =    106.084925    -0.000000    -0.000017   106.084908
	   60 B(16,15,18)     =    107.210480     0.000000     0.000012   107.210492
	   61 B(17,15,18)     =    108.923443    -0.000000    -0.000012   108.923431
	   62 B(18,21,22)     =    109.574269    -0.000000    -0.000028   109.574241
	   63 B(18,21,23)     =    109.384483     0.000000     0.000023   109.384506
	   64 B(18,21,24)     =    114.106387    -0.000000    -0.000085   114.106302
	   65 B(19,18,20)     =    106.066315    -0.000000     0.000008   106.066323
	   66 B(19,18,21)     =    108.875270    -0.000000    -0.000036   108.875234
	   67 B(20,18,21)     =    109.052504    -0.000000    -0.000000   109.052504
	   68 B(21,24,25)     =    108.651425    -0.000000    -0.000024   108.651402
	   69 B(21,24,26)     =    110.554263    -0.000000    -0.000018   110.554244
	   70 B(22,21,23)     =    105.897327    -0.000000     0.000030   105.897357
	   71 B(22,21,24)     =    109.905223     0.000000     0.000028   109.905252
	   72 B(23,21,24)     =    107.633421     0.000000     0.000043   107.633463
	   73 B(25,24,26)     =    106.098943     0.000000    -0.000044   106.098899
	   74 D(1,9,15,16)    =    150.765188     0.000000     0.000165   150.765353
	   75 D(1,9,15,17)    =     35.704891     0.000000     0.000191    35.705081
	   76 D(1,9,15,18)    =    -87.963135     0.000000     0.000181   -87.962954
	   77 D(2,1,9,10)     =     57.151586     0.000000     0.000184    57.151770
	   78 D(2,1,9,11)     =    -58.151874     0.000000     0.000227   -58.151647
	   79 D(2,1,9,15)     =   -178.972932    -0.000000     0.000209  -178.972722
	   80 D(3,1,9,10)     =    -63.687365    -0.000000     0.000175   -63.687190
	   81 D(3,1,9,11)     =   -178.990826     0.000000     0.000218  -178.990608
	   82 D(3,1,9,15)     =     60.188117    -0.000000     0.000201    60.188317
	   83 D(4,1,9,10)     =    176.450629     0.000000     0.000193   176.450822
	   84 D(4,1,9,11)     =     61.147168     0.000000     0.000236    61.147405
	   85 D(4,1,9,15)     =    -59.673889    -0.000000     0.000219   -59.673670
	   86 D(5,12,24,21)   =    178.397432     0.000000    -0.000049   178.397383
	   87 D(5,12,24,25)   =     57.354750    -0.000000    -0.000032    57.354718
	   88 D(5,12,24,26)   =    -58.299029     0.000000     0.000008   -58.299021
	   89 D(6,5,12,13)    =    -58.445526     0.000000     0.000059   -58.445466
	   90 D(6,5,12,14)    =     58.148467    -0.000000     0.000026    58.148493
	   91 D(6,5,12,24)    =    179.673581    -0.000000     0.000042   179.673624
	   92 D(7,5,12,13)    =   -178.732372     0.000000     0.000080  -178.732292
	   93 D(7,5,12,14)    =    -62.138379    -0.000000     0.000047   -62.138332
	   94 D(7,5,12,24)    =     59.386735     0.000000     0.000063    59.386798
	   95 D(8,5,12,13)    =     61.896607     0.000000     0.000062    61.896669
	   96 D(8,5,12,14)    =    178.490600    -0.000000     0.000029   178.490629
	   97 D(8,5,12,24)    =    -59.984286    -0.000000     0.000045   -59.984241
	   98 D(9,15,18,19)   =    -62.003890    -0.000000    -0.000146   -62.004036
	   99 D(9,15,18,20)   =   -176.409404    -0.000000    -0.000181  -176.409585
	  100 D(9,15,18,21)   =     61.379798    -0.000000    -0.000214    61.379585
	  101 D(10,9,15,16)   =    -84.865422    -0.000000     0.000200   -84.865222
	  102 D(10,9,15,17)   =    160.074280     0.000000     0.000226   160.074507
	  103 D(10,9,15,18)   =     36.406254     0.000000     0.000217    36.406471
	  104 D(11,9,15,16)   =     30.385831    -0.000000     0.000167    30.385999
	  105 D(11,9,15,17)   =    -84.674466     0.000000     0.000193   -84.674273
	  106 D(11,9,15,18)   =    151.657508     0.000000     0.000184   151.657692
	  107 D(12,24,21,18)  =    174.074791     0.000000     0.000108   174.074899
	  108 D(12,24,21,22)  =     50.544186     0.000000     0.000185    50.544371
	  109 D(12,24,21,23)  =    -64.339533    -0.000000     0.000112   -64.339421
	  110 D(13,12,24,21)  =     56.122661     0.000000    -0.000054    56.122607
	  111 D(13,12,24,25)  =    -64.920021    -0.000000    -0.000038   -64.920059
	  112 D(13,12,24,26)  =    179.426200     0.000000     0.000003   179.426203
	  113 D(14,12,24,21)  =    -59.672176     0.000000    -0.000038   -59.672213
	  114 D(14,12,24,25)  =    179.285142    -0.000000    -0.000021   179.285121
	  115 D(14,12,24,26)  =     63.631363     0.000000     0.000020    63.631383
	  116 D(15,18,21,22)  =     32.369449    -0.000000    -0.000115    32.369334
	  117 D(15,18,21,23)  =    148.046376    -0.000000    -0.000082   148.046294
	  118 D(15,18,21,24)  =    -91.339767    -0.000000    -0.000068   -91.339835
	  119 D(16,15,18,19)  =     60.018515     0.000000    -0.000147    60.018368
	  120 D(16,15,18,20)  =    -54.386998    -0.000000    -0.000183   -54.387181
	  121 D(16,15,18,21)  =   -176.597797     0.000000    -0.000215  -176.598011
	  122 D(17,15,18,19)  =    174.400277     0.000000    -0.000167   174.400110
	  123 D(17,15,18,20)  =     59.994763    -0.000000    -0.000202    59.994562
	  124 D(17,15,18,21)  =    -62.216035    -0.000000    -0.000234   -62.216269
	  125 D(18,21,24,25)  =    -64.478464     0.000000     0.000084   -64.478380
	  126 D(18,21,24,26)  =     51.569885    -0.000000     0.000008    51.569893
	  127 D(19,18,21,22)  =    155.816463    -0.000000    -0.000167   155.816296
	  128 D(19,18,21,23)  =    -88.506610    -0.000000    -0.000135   -88.506744
	  129 D(19,18,21,24)  =     32.107247    -0.000000    -0.000121    32.107127
	  130 D(20,18,21,22)  =    -88.874372    -0.000000    -0.000178   -88.874549
	  131 D(20,18,21,23)  =     26.802555    -0.000000    -0.000145    26.802410
	  132 D(20,18,21,24)  =    147.416413    -0.000000    -0.000131   147.416282
	  133 D(22,21,24,25)  =    171.990931     0.000000     0.000162   171.991093
	  134 D(22,21,24,26)  =    -71.960720    -0.000000     0.000085   -71.960634
	  135 D(23,21,24,25)  =     57.107212    -0.000000     0.000089    57.107300
	  136 D(23,21,24,26)  =    173.155561    -0.000000     0.000012   173.155573
	  137 R(1,21)         =      3.394461     0.000001    -0.000003     3.394459
	  138 R(1,24)         =      3.462358    -0.000000    -0.000001     3.462357
	  139 R(9,24)         =      3.445959    -0.000002    -0.000002     3.445957
	 ---------------------------------------------------------------------------

  ==> Convergence Check <==

  Measures of convergence in internal coordinates in au.
  Criteria marked as inactive (o), active & met (*), and active & unmet ( ).
  ---------------------------------------------------------------------------------------------
   Step     Total Energy     Delta E     MAX Force     RMS Force      MAX Disp      RMS Disp   
  ---------------------------------------------------------------------------------------------
    Convergence Criteria             o    2.00e-06 *    1.00e-06 *    6.00e-06 *    4.00e-06 *
  ---------------------------------------------------------------------------------------------
     50    -314.97878818   -2.85e-09 o    5.28e-07 *    1.23e-07 *    5.28e-06 *    1.84e-06 *  ~
  ---------------------------------------------------------------------------------------------


  **** Optimization is complete! (in 50 steps) ****

  ==> Optimization Summary <==

  Measures of convergence in internal coordinates in au.
  --------------------------------------------------------------------------------------------------------------- ~
   Step         Total Energy             Delta E       MAX Force       RMS Force        MAX Disp        RMS Disp  ~
  --------------------------------------------------------------------------------------------------------------- ~
      1    -314.978788177323   -314.978788177323      0.00000509      0.00000117      0.00009142      0.00003260  ~
      2    -314.978788176014      0.000000001309      0.00000464      0.00000108      0.00007437      0.00002202  ~
      3    -314.978788173014      0.000000003000      0.00000078      0.00000023      0.00009965      0.00003579  ~
      4    -314.978788173114     -0.000000000100      0.00000331      0.00000091      0.00008673      0.00002883  ~
      5    -314.978788174817     -0.000000001702      0.00000337      0.00000061      0.00005958      0.00001339  ~
      6    -314.978788174492      0.000000000325      0.00000223      0.00000055      0.00002429      0.00000779  ~
      7    -314.978788174991     -0.000000000499      0.00000268      0.00000054      0.00001820      0.00000497  ~
      8    -314.978788174224      0.000000000767      0.00000138      0.00000025      0.00001822      0.00000629  ~
      9    -314.978788175542     -0.000000001318      0.00000076      0.00000016      0.00001423      0.00000648  ~
     10    -314.978788173161      0.000000002381      0.00000127      0.00000031      0.00001351      0.00000572  ~
     11    -314.978788174611     -0.000000001450      0.00000230      0.00000049      0.00001480      0.00000428  ~
     12    -314.978788175219     -0.000000000608      0.00000068      0.00000014      0.00002079      0.00000538  ~
     13    -314.978788174542      0.000000000677      0.00000059      0.00000012      0.00001626      0.00000468  ~
     14    -314.978788176453     -0.000000001911      0.00000102      0.00000023      0.00002591      0.00000746  ~
     15    -314.978788176424      0.000000000029      0.00000080      0.00000017      0.00000827      0.00000251  ~
     16    -314.978788176798     -0.000000000374      0.00000137      0.00000027      0.00002559      0.00000622  ~
     17    -314.978788173175      0.000000003624      0.00000045      0.00000011      0.00001430      0.00000496  ~
     18    -314.978788172326      0.000000000849      0.00000297      0.00000067      0.00008430      0.00002486  ~
     19    -314.978788174790     -0.000000002464      0.00000347      0.00000076      0.00006021      0.00001959  ~
     20    -314.978788175051     -0.000000000261      0.00000205      0.00000042      0.00002348      0.00000624  ~
     21    -314.978788171929      0.000000003122      0.00000043      0.00000008      0.00000992      0.00000328  ~
     22    -314.978788178290     -0.000000006361      0.00000082      0.00000018      0.00001074      0.00000386  ~
     23    -314.978788176612      0.000000001678      0.00000156      0.00000033      0.00001855      0.00000405  ~
     24    -314.978788173492      0.000000003120      0.00000126      0.00000030      0.00000957      0.00000332  ~
     25    -314.978788178666     -0.000000005174      0.00000130      0.00000031      0.00001279      0.00000539  ~
     26    -314.978788173912      0.000000004753      0.00000186      0.00000039      0.00001222      0.00000354  ~
     27    -314.978788173404      0.000000000509      0.00000328      0.00000059      0.00002415      0.00000631  ~
     28    -314.978788179115     -0.000000005711      0.00000132      0.00000030      0.00000635      0.00000207  ~
     29    -314.978788173030      0.000000006085      0.00000090      0.00000022      0.00001097      0.00000309  ~
     30    -314.978788176426     -0.000000003395      0.00000050      0.00000012      0.00001111      0.00000296  ~
     31    -314.978788175161      0.000000001264      0.00000234      0.00000045      0.00002303      0.00000553  ~
     32    -314.978788171121      0.000000004040      0.00000131      0.00000034      0.00003037      0.00001004  ~
     33    -314.978788181599     -0.000000010478      0.00000333      0.00000065      0.00002092      0.00000874  ~
     34    -314.978788173717      0.000000007883      0.00000137      0.00000027      0.00002489      0.00000694  ~
     35    -314.978788172200      0.000000001517      0.00000157      0.00000027      0.00002815      0.00000663  ~
     36    -314.978788176300     -0.000000004100      0.00000358      0.00000070      0.00003293      0.00000718  ~
     37    -314.978788173576      0.000000002724      0.00000110      0.00000023      0.00000877      0.00000236  ~
     38    -314.978788172630      0.000000000946      0.00000205      0.00000049      0.00001094      0.00000340  ~
     39    -314.978788173819     -0.000000001189      0.00000291      0.00000062      0.00000828      0.00000343  ~
     40    -314.978788178755     -0.000000004936      0.00000066      0.00000016      0.00000732      0.00000229  ~
     41    -314.978788173841      0.000000004914      0.00000277      0.00000064      0.00002550      0.00000855  ~
     42    -314.978788176797     -0.000000002956      0.00000354      0.00000077      0.00002327      0.00000802  ~
     43    -314.978788173746      0.000000003051      0.00000238      0.00000050      0.00001078      0.00000336  ~
     44    -314.978788175038     -0.000000001292      0.00000038      0.00000009      0.00000790      0.00000238  ~
     45    -314.978788178738     -0.000000003701      0.00000091      0.00000019      0.00001069      0.00000390  ~
     46    -314.978788176134      0.000000002605      0.00000053      0.00000010      0.00000807      0.00000302  ~
     47    -314.978788173540      0.000000002594      0.00000029      0.00000006      0.00000689      0.00000216  ~
     48    -314.978788177081     -0.000000003541      0.00000265      0.00000054      0.00004464      0.00001177  ~
     49    -314.978788173076      0.000000004004      0.00000218      0.00000043      0.00003134      0.00000889  ~
     50    -314.978788175922     -0.000000002846      0.00000053      0.00000012      0.00000528      0.00000184  ~
  --------------------------------------------------------------------------------------------------------------- ~

	Writing optimization data to binary file.
	Final energy is   -314.9787881759224
	Final (previous) structure:
	Cartesian Geometry (in Angstrom)
	    C    -1.3135476236  -1.8836151008  -0.5202459987
	    H    -1.1227517436  -2.8792124018  -0.1184012907
	    H    -0.3591068933  -1.4619423430  -0.8301657193
	    H    -1.9287493980  -1.9977597917  -1.4140055486
	    C     3.3692343302  -0.6119526804   0.4264771388
	    H     4.2629111199  -0.8686234321  -0.1418185538
	    H     2.9539934237  -1.5347469978   0.8337833369
	    H     3.6736424636   0.0137994927   1.2663555815
	    C    -2.0317675443  -1.0061972876   0.5023254027
	    H    -1.4479354614  -0.9398772967   1.4242772154
	    H    -2.9652057158  -1.5045473252   0.7733207977
	    C     2.3394046686   0.1066124614  -0.4363659433
	    H     2.7758411835   1.0172687100  -0.8558905348
	    H     2.0661127500  -0.5240684982  -1.2872974492
	    C    -2.3584579453   0.4060438377   0.0015045803
	    H    -3.2584925658   0.7580966712   0.5116916590
	    H    -2.6138077905   0.3527057013  -1.0620773812
	    C    -1.2786957422   1.4728979865   0.1999370451
	    H    -1.0940729771   1.5981037028   1.2719638375
	    H    -1.6935143236   2.4218671137  -0.1483276581
	    C     0.0582278866   1.2212907065  -0.5076126308
	    H    -0.1182633627   0.6844508295  -1.4447708000
	    H     0.5050039043   2.1784054141  -0.7902809376
	    C     1.0793503267   0.4665476850   0.3392304469
	    H     1.3478898558   1.0875987633   1.2000136844
	    H     0.6388305052  -0.4450588424   0.7491184222
	Saving final (previous) structure.
			--------------------------
			 OPTKING Finished Execution 
			--------------------------

    Final optimized geometry and variables:
    Molecular point group: c1
    Full point group: C1

    Geometry (in Angstrom), charge = 0, multiplicity = 1:

    C           -1.313547623631    -1.883615100790    -0.520245998654
    H           -1.122751743639    -2.879212401795    -0.118401290698
    H           -0.359106893266    -1.461942343002    -0.830165719287
    H           -1.928749398045    -1.997759791679    -1.414005548587
    C            3.369234330190    -0.611952680400     0.426477138761
    H            4.262911119879    -0.868623432096    -0.141818553773
    H            2.953993423712    -1.534746997768     0.833783336926
    H            3.673642463580     0.013799492669     1.266355581538
    C           -2.031767544266    -1.006197287628     0.502325402697
    H           -1.447935461445    -0.939877296714     1.424277215357
    H           -2.965205715825    -1.504547325236     0.773320797711
    C            2.339404668576     0.106612461399    -0.436365943315
    H            2.775841183538     1.017268709984    -0.855890534763
    H            2.066112749970    -0.524068498166    -1.287297449246
    C           -2.358457945320     0.406043837696     0.001504580294
    H           -3.258492565797     0.758096671174     0.511691659030
    H           -2.613807790545     0.352705701304    -1.062077381195
    C           -1.278695742154     1.472897986548     0.199937045122
    H           -1.094072977057     1.598103702780     1.271963837513
    H           -1.693514323645     2.421867113659    -0.148327658138
    C            0.058227886650     1.221290706527    -0.507612630784
    H           -0.118263362656     0.684450829471    -1.444770800001
    H            0.505003904334     2.178405414125    -0.790280937630
    C            1.079350326703     0.466547685029     0.339230446869
    H            1.347889855763     1.087598763347     1.200013684364
    H            0.638830505224    -0.445058842441     0.749118422232

	Cleaning optimization helper files.

*** Psi4 exiting successfully. Buy a developer a beer!
