    -----------------------------------------------------------------------
          Psi4: An Open-Source Ab Initio Electronic Structure Package
                              Psi4 1.0.0 Driver

                          Git: Rev {master} 6a9a71b dirty

    J. M. Turney, A. C. Simmonett, R. M. Parrish, E. G. Hohenstein,
    F. A. Evangelista, J. T. Fermann, B. J. Mintz, L. A. Burns, J. J. Wilke,
    M. L. Abrams, N. J. Russ, M. L. Leininger, C. L. Janssen, E. T. Seidl,
    W. D. Allen, H. F. Schaefer, R. A. King, E. F. Valeev, C. D. Sherrill,
    and T. D. Crawford, WIREs Comput. Mol. Sci. 2, 556-565 (2012)
    (doi: 10.1002/wcms.93)

                         Additional Contributions by
    A. E. DePrince, U. Bozkaya, A. Yu. Sokolov, D. G. A. Smith, R. Di Remigio,
    R. M. Richard, J. F. Gonthier, H. R. McAlexander, M. Saitow, and
    B. P. Pritchard
    -----------------------------------------------------------------------


    Psi4 started on: Thu Sep 22 00:03:36 2016

    Process ID:   1192
    PSI4DATADIR: /usr/local/hpc5/psi4conda/share/psi4
    Memory level set to 256.000 MB

  ==> Input File <==

--------------------------------------------------------------------------
memory 60 Gb

molecule molecule_93_psi {
0 1
C           -2.531584004088    -1.212371588395     0.285795720576
H           -3.462016726984    -0.847451157394     0.722955493934
H           -1.804661710411    -1.299074898582     1.092241462033
H           -2.717242382600    -2.211454775226    -0.109503227339
C            3.138107311308     0.135768428397    -0.296623876896
H            3.870769500811     0.090784959978    -1.102036866195
H            3.636054251764    -0.163952373605     0.627326441943
H            2.831792985621     1.175919572062    -0.186358016920
C           -2.057077892103    -0.255728611224    -0.805051410542
H           -2.851452321709    -0.168506413536    -1.548984073332
H           -1.196316609482    -0.674844687160    -1.332005371656
C            1.946268526392    -0.769704019301    -0.585843184614
H            1.435655863354    -0.424189837050    -1.487669366168
H            2.303301802391    -1.777342908455    -0.810419925208
C           -1.704179935087     1.141094956304    -0.272435175454
H           -2.284627102729     1.329088780303     0.636770051073
H           -2.024706816911     1.894098229766    -0.996224977622
C           -0.224080006153     1.395303351848     0.021537731896
H           -0.133193478191     2.431351307179     0.358333650740
H            0.337674651060     1.337715947857    -0.914789407476
C            0.432829762447     0.493037939309     1.072858826471
H            1.274155901604     1.033858166958     1.512477172649
H           -0.271323599154     0.327252256832     1.893769341311
C            0.955575140973    -0.859282359117     0.575304832016
H            1.452119589246    -1.356476829194     1.414513726707
H            0.129596674010    -1.507845861752     0.282667108725
}

set globals {
  reference rhf
  g_convergence gau_verytight
  basis aug-cc-pvtz
  freeze_core true
  scf_type df
  mp_type df
}
optimize('mp2')
--------------------------------------------------------------------------
/usr/local/hpc5/psi4conda/lib/python2.7/site-packages/v2rdm_casscf/v2rdm_casscf.so loaded.

  Memory set to  60.000 GiB by Python script.
gradient() will perform analytic gradient computation.

*** tstart() called on wr40
*** at Thu Sep 22 00:03:37 2016


         ---------------------------------------------------------
                                   SCF
            by Justin Turney, Rob Parrish, and Andy Simmonett
                              RHF Reference
                       12 Threads,  60000 MiB Core
         ---------------------------------------------------------

  ==> Geometry <==

    Molecular point group: c1
    Full point group: C1

    Geometry (in Angstrom), charge = 0, multiplicity = 1:

       Center              X                  Y                   Z               Mass       
    ------------   -----------------  -----------------  -----------------  -----------------
           C         -2.531584004088    -1.212371588395     0.285795720576    12.000000000000
           H         -3.462016726984    -0.847451157394     0.722955493934     1.007825032070
           H         -1.804661710411    -1.299074898582     1.092241462033     1.007825032070
           H         -2.717242382600    -2.211454775226    -0.109503227339     1.007825032070
           C          3.138107311308     0.135768428397    -0.296623876896    12.000000000000
           H          3.870769500811     0.090784959978    -1.102036866195     1.007825032070
           H          3.636054251764    -0.163952373605     0.627326441943     1.007825032070
           H          2.831792985621     1.175919572062    -0.186358016920     1.007825032070
           C         -2.057077892103    -0.255728611224    -0.805051410542    12.000000000000
           H         -2.851452321709    -0.168506413536    -1.548984073332     1.007825032070
           H         -1.196316609482    -0.674844687160    -1.332005371656     1.007825032070
           C          1.946268526392    -0.769704019301    -0.585843184614    12.000000000000
           H          1.435655863354    -0.424189837050    -1.487669366168     1.007825032070
           H          2.303301802391    -1.777342908455    -0.810419925208     1.007825032070
           C         -1.704179935087     1.141094956304    -0.272435175454    12.000000000000
           H         -2.284627102729     1.329088780303     0.636770051073     1.007825032070
           H         -2.024706816911     1.894098229766    -0.996224977622     1.007825032070
           C         -0.224080006153     1.395303351848     0.021537731896    12.000000000000
           H         -0.133193478191     2.431351307179     0.358333650740     1.007825032070
           H          0.337674651060     1.337715947857    -0.914789407476     1.007825032070
           C          0.432829762447     0.493037939309     1.072858826471    12.000000000000
           H          1.274155901604     1.033858166958     1.512477172649     1.007825032070
           H         -0.271323599154     0.327252256832     1.893769341311     1.007825032070
           C          0.955575140973    -0.859282359117     0.575304832016    12.000000000000
           H          1.452119589246    -1.356476829194     1.414513726707     1.007825032070
           H          0.129596674010    -1.507845861752     0.282667108725     1.007825032070

  Running in c1 symmetry.

  Rotational constants: A =      0.10463  B =      0.03489  C =      0.03137 [cm^-1]
  Rotational constants: A =   3136.63895  B =   1045.84239  C =    940.43744 [MHz]
  Nuclear repulsion =  409.014743397926281

  Charge       = 0
  Multiplicity = 1
  Electrons    = 66
  Nalpha       = 33
  Nbeta        = 33

  ==> Algorithm <==

  SCF Algorithm Type is DF.
  DIIS enabled.
  MOM disabled.
  Fractional occupation disabled.
  Guess Type is SAD.
  Energy threshold   = 1.00e-10
  Density threshold  = 1.00e-10
  Integral threshold = 0.00e+00

  ==> Primary Basis <==

  Basis Set: AUG-CC-PVTZ
    Number of shells: 274
    Number of basis function: 782
    Number of Cartesian functions: 890
    Spherical Harmonics?: true
    Max angular momentum: 3

  ==> Pre-Iterations <==

   -------------------------------------------------------
    Irrep   Nso     Nmo     Nalpha   Nbeta   Ndocc  Nsocc
   -------------------------------------------------------
     A        782     782       0       0       0       0
   -------------------------------------------------------
    Total     782     782      33      33      33       0
   -------------------------------------------------------

  ==> Integral Setup <==

  ==> DFJK: Density-Fitted J/K Matrices <==

    J tasked:                  Yes
    K tasked:                  Yes
    wK tasked:                  No
    OpenMP threads:             12
    Integrals threads:          12
    Memory (MB):             42915
    Algorithm:                Core
    Integral Cache:           NONE
    Schwarz Cutoff:          1E-12
    Fitting Condition:       1E-12

   => Auxiliary Basis Set <=

  Basis Set: 
    Number of shells: 492
    Number of basis function: 1660
    Number of Cartesian functions: 2038
    Spherical Harmonics?: true
    Max angular momentum: 4

  Minimum eigenvalue in the overlap matrix is 1.5443625072E-06.
  Using Symmetric Orthogonalization.
  SCF Guess: Superposition of Atomic Densities via on-the-fly atomic UHF.

  ==> Iterations <==

                           Total Energy        Delta E     RMS |[F,P]|

   @DF-RHF iter   0:  -317.11176930554984   -3.17112e+02   7.06643e-03 
   @DF-RHF iter   1:  -313.30019047222584    3.81158e+00   6.94256e-04 
   @DF-RHF iter   2:  -313.50073193179355   -2.00541e-01   2.54106e-04 DIIS
   @DF-RHF iter   3:  -313.52548699844374   -2.47551e-02   9.85643e-05 DIIS
   @DF-RHF iter   4:  -313.53022666427876   -4.73967e-03   1.54279e-05 DIIS
   @DF-RHF iter   5:  -313.53038707602354   -1.60412e-04   4.56238e-06 DIIS
   @DF-RHF iter   6:  -313.53039882440169   -1.17484e-05   1.38542e-06 DIIS
   @DF-RHF iter   7:  -313.53039989273213   -1.06833e-06   2.71498e-07 DIIS
   @DF-RHF iter   8:  -313.53039994902940   -5.62973e-08   8.07492e-08 DIIS
   @DF-RHF iter   9:  -313.53039995307711   -4.04771e-09   2.30583e-08 DIIS
   @DF-RHF iter  10:  -313.53039995345080   -3.73689e-10   5.64802e-09 DIIS
   @DF-RHF iter  11:  -313.53039995347467   -2.38742e-11   1.24124e-09 DIIS
   @DF-RHF iter  12:  -313.53039995347524   -5.68434e-13   3.57662e-10 DIIS
   @DF-RHF iter  13:  -313.53039995347547   -2.27374e-13   1.00461e-10 DIIS
   @DF-RHF iter  14:  -313.53039995347592   -4.54747e-13   2.39138e-11 DIIS

  ==> Post-Iterations <==

    Orbital Energies (a.u.)
    -----------------------

    Doubly Occupied:                                                      

       1A    -11.212686     2A    -11.212513     3A    -11.210927  
       4A    -11.210563     5A    -11.210040     6A    -11.209369  
       7A    -11.206873     8A    -11.206749     9A     -1.093693  
      10A     -1.056259    11A     -1.004080    12A     -0.952168  
      13A     -0.889319    14A     -0.834615    15A     -0.787195  
      16A     -0.746309    17A     -0.648996    18A     -0.634130  
      19A     -0.601317    20A     -0.596650    21A     -0.577504  
      22A     -0.560697    23A     -0.547640    24A     -0.533077  
      25A     -0.516260    26A     -0.501369    27A     -0.495794  
      28A     -0.471311    29A     -0.463015    30A     -0.461687  
      31A     -0.443430    32A     -0.433546    33A     -0.431839  

    Virtual:                                                              

      34A      0.029763    35A      0.033519    36A      0.033644  
      37A      0.035474    38A      0.046941    39A      0.048869  
      40A      0.049540    41A      0.052790    42A      0.054482  
      43A      0.068831    44A      0.069726    45A      0.073393  
      46A      0.074765    47A      0.076115    48A      0.081773  
      49A      0.093124    50A      0.095585    51A      0.098967  
      52A      0.115121    53A      0.116281    54A      0.121732  
      55A      0.125763    56A      0.130381    57A      0.132769  
      58A      0.133775    59A      0.136294    60A      0.139100  
      61A      0.142422    62A      0.147171    63A      0.148519  
      64A      0.153129    65A      0.156289    66A      0.164523  
      67A      0.166460    68A      0.169282    69A      0.170033  
      70A      0.172693    71A      0.177091    72A      0.181329  
      73A      0.184623    74A      0.189578    75A      0.197577  
      76A      0.202568    77A      0.208082    78A      0.216966  
      79A      0.223616    80A      0.231075    81A      0.239486  
      82A      0.248736    83A      0.255884    84A      0.265003  
      85A      0.271318    86A      0.277546    87A      0.285974  
      88A      0.287865    89A      0.293022    90A      0.296310  
      91A      0.301458    92A      0.307734    93A      0.312412  
      94A      0.314984    95A      0.317366    96A      0.324330  
      97A      0.325764    98A      0.329841    99A      0.334542  
     100A      0.336662   101A      0.342681   102A      0.345087  
     103A      0.349494   104A      0.353282   105A      0.359211  
     106A      0.360728   107A      0.362525   108A      0.366506  
     109A      0.369106   110A      0.371790   111A      0.377238  
     112A      0.381585   113A      0.388027   114A      0.390785  
     115A      0.393818   116A      0.398490   117A      0.402353  
     118A      0.403558   119A      0.408477   120A      0.419292  
     121A      0.423944   122A      0.428326   123A      0.429858  
     124A      0.434731   125A      0.440101   126A      0.440705  
     127A      0.444452   128A      0.453523   129A      0.460858  
     130A      0.463023   131A      0.465443   132A      0.468414  
     133A      0.472166   134A      0.473927   135A      0.477026  
     136A      0.479489   137A      0.480206   138A      0.484970  
     139A      0.489402   140A      0.494485   141A      0.497533  
     142A      0.505496   143A      0.508926   144A      0.513482  
     145A      0.515285   146A      0.516245   147A      0.524405  
     148A      0.529577   149A      0.535885   150A      0.537063  
     151A      0.546283   152A      0.548742   153A      0.552765  
     154A      0.555329   155A      0.559420   156A      0.566927  
     157A      0.568032   158A      0.575145   159A      0.578917  
     160A      0.579395   161A      0.588393   162A      0.590584  
     163A      0.593186   164A      0.600315   165A      0.605226  
     166A      0.609508   167A      0.613457   168A      0.617348  
     169A      0.620936   170A      0.629619   171A      0.631968  
     172A      0.633757   173A      0.639036   174A      0.645027  
     175A      0.650530   176A      0.657097   177A      0.661185  
     178A      0.662816   179A      0.665047   180A      0.677423  
     181A      0.683559   182A      0.692723   183A      0.697016  
     184A      0.702706   185A      0.704130   186A      0.708342  
     187A      0.709936   188A      0.718960   189A      0.721997  
     190A      0.725565   191A      0.731775   192A      0.739885  
     193A      0.742093   194A      0.746562   195A      0.750450  
     196A      0.754905   197A      0.763939   198A      0.776730  
     199A      0.783506   200A      0.795603   201A      0.802981  
     202A      0.803966   203A      0.813537   204A      0.830091  
     205A      0.835962   206A      0.841240   207A      0.846102  
     208A      0.853907   209A      0.863788   210A      0.869103  
     211A      0.870929   212A      0.874314   213A      0.884390  
     214A      0.893012   215A      0.895293   216A      0.900560  
     217A      0.902551   218A      0.905206   219A      0.910092  
     220A      0.918427   221A      0.924176   222A      0.929466  
     223A      0.935789   224A      0.944963   225A      0.946647  
     226A      0.951873   227A      0.957890   228A      0.959844  
     229A      0.967109   230A      0.969748   231A      0.974722  
     232A      0.986475   233A      0.992139   234A      0.995848  
     235A      0.999248   236A      1.000864   237A      1.007247  
     238A      1.012147   239A      1.018987   240A      1.025322  
     241A      1.026121   242A      1.029689   243A      1.032832  
     244A      1.045031   245A      1.048358   246A      1.049987  
     247A      1.055301   248A      1.065624   249A      1.069040  
     250A      1.074743   251A      1.077594   252A      1.086480  
     253A      1.088636   254A      1.095661   255A      1.099643  
     256A      1.107117   257A      1.114947   258A      1.119887  
     259A      1.125333   260A      1.126873   261A      1.136851  
     262A      1.141300   263A      1.149507   264A      1.152404  
     265A      1.157762   266A      1.164433   267A      1.175187  
     268A      1.176487   269A      1.181540   270A      1.182353  
     271A      1.191270   272A      1.192739   273A      1.196764  
     274A      1.209461   275A      1.219273   276A      1.221156  
     277A      1.225556   278A      1.230247   279A      1.235126  
     280A      1.237605   281A      1.248873   282A      1.251767  
     283A      1.259821   284A      1.266003   285A      1.273330  
     286A      1.280259   287A      1.283866   288A      1.285530  
     289A      1.289226   290A      1.300328   291A      1.301316  
     292A      1.307446   293A      1.311713   294A      1.318645  
     295A      1.320681   296A      1.324862   297A      1.336913  
     298A      1.349416   299A      1.353702   300A      1.360803  
     301A      1.363839   302A      1.366339   303A      1.374546  
     304A      1.378094   305A      1.383531   306A      1.396329  
     307A      1.401255   308A      1.405239   309A      1.419598  
     310A      1.425020   311A      1.428040   312A      1.441459  
     313A      1.442055   314A      1.452596   315A      1.456691  
     316A      1.466258   317A      1.479333   318A      1.484999  
     319A      1.492996   320A      1.494713   321A      1.506547  
     322A      1.511174   323A      1.514970   324A      1.529848  
     325A      1.534364   326A      1.544302   327A      1.552864  
     328A      1.556952   329A      1.562642   330A      1.564433  
     331A      1.571783   332A      1.585183   333A      1.590107  
     334A      1.599934   335A      1.605144   336A      1.608792  
     337A      1.617083   338A      1.621852   339A      1.627471  
     340A      1.639618   341A      1.646749   342A      1.648197  
     343A      1.651966   344A      1.658283   345A      1.663907  
     346A      1.678273   347A      1.686130   348A      1.693875  
     349A      1.700936   350A      1.707622   351A      1.711813  
     352A      1.720064   353A      1.723560   354A      1.729189  
     355A      1.732960   356A      1.746147   357A      1.751981  
     358A      1.754774   359A      1.759422   360A      1.759866  
     361A      1.765304   362A      1.775110   363A      1.787726  
     364A      1.793545   365A      1.796188   366A      1.803205  
     367A      1.809799   368A      1.814857   369A      1.824815  
     370A      1.830707   371A      1.836360   372A      1.843876  
     373A      1.845901   374A      1.856253   375A      1.860202  
     376A      1.861757   377A      1.873227   378A      1.876461  
     379A      1.879393   380A      1.886540   381A      1.894917  
     382A      1.902529   383A      1.911138   384A      1.915186  
     385A      1.924269   386A      1.926879   387A      1.937490  
     388A      1.942832   389A      1.945317   390A      1.954673  
     391A      1.959824   392A      1.966737   393A      1.981422  
     394A      1.982560   395A      1.986984   396A      1.990984  
     397A      2.000842   398A      2.006264   399A      2.018646  
     400A      2.023618   401A      2.035568   402A      2.046106  
     403A      2.054123   404A      2.055256   405A      2.059598  
     406A      2.068691   407A      2.083370   408A      2.086434  
     409A      2.093928   410A      2.095269   411A      2.101518  
     412A      2.106415   413A      2.112443   414A      2.123122  
     415A      2.125480   416A      2.130880   417A      2.143038  
     418A      2.151598   419A      2.155046   420A      2.161154  
     421A      2.179029   422A      2.190891   423A      2.200299  
     424A      2.202026   425A      2.215607   426A      2.230429  
     427A      2.239579   428A      2.249426   429A      2.257922  
     430A      2.266821   431A      2.268607   432A      2.281403  
     433A      2.289553   434A      2.298355   435A      2.303867  
     436A      2.305506   437A      2.320595   438A      2.325334  
     439A      2.331747   440A      2.340976   441A      2.349915  
     442A      2.363542   443A      2.367671   444A      2.373919  
     445A      2.382991   446A      2.386811   447A      2.395251  
     448A      2.404664   449A      2.425711   450A      2.435703  
     451A      2.443714   452A      2.451801   453A      2.458246  
     454A      2.466091   455A      2.482139   456A      2.491128  
     457A      2.500265   458A      2.504438   459A      2.511801  
     460A      2.527463   461A      2.537147   462A      2.550291  
     463A      2.557193   464A      2.572249   465A      2.581811  
     466A      2.586800   467A      2.602775   468A      2.606581  
     469A      2.615158   470A      2.626773   471A      2.630629  
     472A      2.651893   473A      2.662943   474A      2.687456  
     475A      2.691077   476A      2.694041   477A      2.709425  
     478A      2.741441   479A      2.749040   480A      2.756925  
     481A      2.784121   482A      2.820493   483A      2.843507  
     484A      2.850970   485A      2.963640   486A      2.971070  
     487A      3.030639   488A      3.097018   489A      3.121527  
     490A      3.141703   491A      3.227232   492A      3.255555  
     493A      3.316285   494A      3.369345   495A      3.392012  
     496A      3.403523   497A      3.421491   498A      3.445362  
     499A      3.480647   500A      3.490577   501A      3.494459  
     502A      3.512659   503A      3.521030   504A      3.549038  
     505A      3.550250   506A      3.562533   507A      3.577910  
     508A      3.590279   509A      3.602187   510A      3.615161  
     511A      3.633768   512A      3.639802   513A      3.662124  
     514A      3.669074   515A      3.672859   516A      3.682404  
     517A      3.694091   518A      3.698121   519A      3.703742  
     520A      3.715002   521A      3.733620   522A      3.737043  
     523A      3.755340   524A      3.763445   525A      3.768028  
     526A      3.773460   527A      3.775398   528A      3.779377  
     529A      3.796540   530A      3.802164   531A      3.825759  
     532A      3.830410   533A      3.834597   534A      3.845135  
     535A      3.849038   536A      3.860298   537A      3.863954  
     538A      3.882415   539A      3.886790   540A      3.893647  
     541A      3.901756   542A      3.913480   543A      3.917858  
     544A      3.925441   545A      3.931402   546A      3.934567  
     547A      3.951350   548A      3.955702   549A      3.961814  
     550A      3.971381   551A      3.974353   552A      3.997537  
     553A      3.999828   554A      4.007658   555A      4.015804  
     556A      4.020655   557A      4.026626   558A      4.032236  
     559A      4.033409   560A      4.050378   561A      4.054603  
     562A      4.067070   563A      4.069663   564A      4.081634  
     565A      4.083377   566A      4.087193   567A      4.102634  
     568A      4.107356   569A      4.123818   570A      4.127257  
     571A      4.131430   572A      4.144680   573A      4.147919  
     574A      4.153481   575A      4.178952   576A      4.181102  
     577A      4.189523   578A      4.194105   579A      4.195204  
     580A      4.208144   581A      4.215618   582A      4.224376  
     583A      4.230630   584A      4.242142   585A      4.250413  
     586A      4.253218   587A      4.275523   588A      4.277305  
     589A      4.293786   590A      4.300636   591A      4.307782  
     592A      4.320547   593A      4.331198   594A      4.339984  
     595A      4.345256   596A      4.350128   597A      4.358189  
     598A      4.369232   599A      4.385898   600A      4.396712  
     601A      4.409491   602A      4.414483   603A      4.424839  
     604A      4.431176   605A      4.436156   606A      4.460183  
     607A      4.463407   608A      4.485769   609A      4.494411  
     610A      4.504752   611A      4.519545   612A      4.527114  
     613A      4.543628   614A      4.552747   615A      4.557611  
     616A      4.569810   617A      4.590563   618A      4.608560  
     619A      4.615685   620A      4.620934   621A      4.637164  
     622A      4.642211   623A      4.655610   624A      4.677873  
     625A      4.686046   626A      4.708142   627A      4.711378  
     628A      4.716320   629A      4.731007   630A      4.750496  
     631A      4.754966   632A      4.762869   633A      4.766763  
     634A      4.795119   635A      4.802692   636A      4.808162  
     637A      4.835133   638A      4.848791   639A      4.865076  
     640A      4.869408   641A      4.876619   642A      4.886596  
     643A      4.898646   644A      4.906038   645A      4.909763  
     646A      4.920921   647A      4.928962   648A      4.940707  
     649A      4.941957   650A      4.969205   651A      4.972053  
     652A      4.984225   653A      4.987124   654A      5.003611  
     655A      5.009669   656A      5.030353   657A      5.044682  
     658A      5.052341   659A      5.078238   660A      5.084122  
     661A      5.098628   662A      5.117558   663A      5.122768  
     664A      5.131337   665A      5.141682   666A      5.151038  
     667A      5.158782   668A      5.181130   669A      5.192180  
     670A      5.203487   671A      5.206010   672A      5.219918  
     673A      5.242873   674A      5.246945   675A      5.264762  
     676A      5.269256   677A      5.278021   678A      5.281121  
     679A      5.288933   680A      5.303541   681A      5.308090  
     682A      5.314128   683A      5.339875   684A      5.341053  
     685A      5.362884   686A      5.388050   687A      5.397434  
     688A      5.403689   689A      5.422789   690A      5.425557  
     691A      5.434481   692A      5.445495   693A      5.462176  
     694A      5.468765   695A      5.476749   696A      5.487458  
     697A      5.498309   698A      5.504504   699A      5.510243  
     700A      5.529311   701A      5.534345   702A      5.561087  
     703A      5.567996   704A      5.582274   705A      5.586847  
     706A      5.592827   707A      5.613373   708A      5.619866  
     709A      5.645823   710A      5.652279   711A      5.667726  
     712A      5.678204   713A      5.687004   714A      5.703151  
     715A      5.723127   716A      5.726020   717A      5.731329  
     718A      5.740146   719A      5.743788   720A      5.755372  
     721A      5.774052   722A      5.782358   723A      5.795536  
     724A      5.809315   725A      5.823061   726A      5.856265  
     727A      5.866844   728A      5.885712   729A      5.901558  
     730A      5.935492   731A      5.950370   732A      5.958422  
     733A      6.003076   734A      6.026764   735A      6.041389  
     736A      6.057940   737A      6.072502   738A      6.091716  
     739A      6.099960   740A      6.123941   741A      6.137062  
     742A      6.167848   743A      6.199933   744A      6.222004  
     745A      6.257258   746A      6.259583   747A      6.269535  
     748A      6.289148   749A      6.307579   750A      6.317211  
     751A      6.345244   752A      6.358398   753A      6.370539  
     754A      6.384718   755A      6.414699   756A      6.427795  
     757A      6.440270   758A      6.470036   759A      6.579382  
     760A      6.635353   761A      6.685892   762A      6.716175  
     763A      6.777103   764A      6.779283   765A      6.852660  
     766A      6.913673   767A      6.932350   768A      6.951194  
     769A      6.990612   770A      7.075264   771A      7.093074  
     772A      7.129228   773A      7.186779   774A      7.206653  
     775A     18.155414   776A     18.274790   777A     18.421204  
     778A     18.622283   779A     18.970755   780A     19.467102  
     781A     19.565806   782A     19.984769  

    Final Occupation by Irrep:
              A 
    DOCC [    33 ]

  Energy converged.

  @DF-RHF Final Energy:  -313.53039995347592

   => Energetics <=

    Nuclear Repulsion Energy =            409.0147433979262814
    One-Electron Energy =               -1233.1670431486918460
    Two-Electron Energy =                 510.6218997972902116
    DFT Exchange-Correlation Energy =       0.0000000000000000
    Empirical Dispersion Energy =           0.0000000000000000
    PCM Polarization Energy =               0.0000000000000000
    EFP Energy =                            0.0000000000000000
    Total Energy =                       -313.5303999534753530


  Saving occupied orbitals to File 180.

*** tstop() called on wr40 at Thu Sep 22 00:04:29 2016
Module time:
	user time   =     573.35 seconds =       9.56 minutes
	system time =       6.08 seconds =       0.10 minutes
	total time  =         52 seconds =       0.87 minutes
Total time:
	user time   =     573.35 seconds =       9.56 minutes
	system time =       6.08 seconds =       0.10 minutes
	total time  =         52 seconds =       0.87 minutes


Properties will be evaluated at   0.000000,   0.000000,   0.000000 Bohr

Properties computed using the SCF density matrix

  Nuclear Dipole Moment: (a.u.)
     X:     0.4927      Y:    -0.7604      Z:     0.0497

  Electronic Dipole Moment: (a.u.)
     X:    -0.4992      Y:     0.7655      Z:    -0.0770

  Dipole Moment: (a.u.)
     X:    -0.0065      Y:     0.0052      Z:    -0.0273     Total:     0.0285

  Dipole Moment: (Debye)
     X:    -0.0165      Y:     0.0132      Z:    -0.0694     Total:     0.0725


  //>>>>>>>>>>>>>>>>>>>>>>>>>>>>>>>>>>>//
  //               DFMP2               //
  //<<<<<<<<<<<<<<<<<<<<<<<<<<<<<<<<<<<//


*** tstart() called on wr40
*** at Thu Sep 22 00:04:29 2016


*** tstop() called on wr40 at Thu Sep 22 00:04:30 2016
Module time:
	user time   =       2.87 seconds =       0.05 minutes
	system time =       0.09 seconds =       0.00 minutes
	total time  =          1 seconds =       0.02 minutes
Total time:
	user time   =     577.15 seconds =       9.62 minutes
	system time =       6.20 seconds =       0.10 minutes
	total time  =         53 seconds =       0.88 minutes
	 --------------------------------------------------------
	                          DF-MP2                         
	      2nd-Order Density-Fitted Moller-Plesset Theory     
	              RMP2 Wavefunction,  12 Threads             
	                                                         
	        Rob Parrish, Justin Turney, Andy Simmonett,      
	           Ed Hohenstein, and C. David Sherrill          
	 --------------------------------------------------------

   => Auxiliary Basis Set <=

  Basis Set: 
    Number of shells: 476
    Number of basis function: 1676
    Number of Cartesian functions: 2078
    Spherical Harmonics?: true
    Max angular momentum: 4

	 --------------------------------------------------------
	                 NBF =   782, NAUX =  1676
	 --------------------------------------------------------
	   CLASS    FOCC     OCC    AOCC    AVIR     VIR    FVIR
	   PAIRS       8      33      25     749     749       0
	 --------------------------------------------------------

DGAS Warning! /src/lib/libfock/apps.cc:80 is not currently checking restricted

         ------------------------------------------------------------
                                     CPHF                           
                                  Rob Parrish                       
         ------------------------------------------------------------

  ==> Geometry <==

    Molecular point group: c1
    Full point group: C1

    Geometry (in Angstrom), charge = 0, multiplicity = 1:

       Center              X                  Y                   Z               Mass       
    ------------   -----------------  -----------------  -----------------  -----------------
           C         -2.531584004088    -1.212371588395     0.285795720576    12.000000000000
           H         -3.462016726984    -0.847451157394     0.722955493934     1.007825032070
           H         -1.804661710411    -1.299074898582     1.092241462033     1.007825032070
           H         -2.717242382600    -2.211454775226    -0.109503227339     1.007825032070
           C          3.138107311308     0.135768428397    -0.296623876896    12.000000000000
           H          3.870769500811     0.090784959978    -1.102036866195     1.007825032070
           H          3.636054251764    -0.163952373605     0.627326441943     1.007825032070
           H          2.831792985621     1.175919572062    -0.186358016920     1.007825032070
           C         -2.057077892103    -0.255728611224    -0.805051410542    12.000000000000
           H         -2.851452321709    -0.168506413536    -1.548984073332     1.007825032070
           H         -1.196316609482    -0.674844687160    -1.332005371656     1.007825032070
           C          1.946268526392    -0.769704019301    -0.585843184614    12.000000000000
           H          1.435655863354    -0.424189837050    -1.487669366168     1.007825032070
           H          2.303301802391    -1.777342908455    -0.810419925208     1.007825032070
           C         -1.704179935087     1.141094956304    -0.272435175454    12.000000000000
           H         -2.284627102729     1.329088780303     0.636770051073     1.007825032070
           H         -2.024706816911     1.894098229766    -0.996224977622     1.007825032070
           C         -0.224080006153     1.395303351848     0.021537731896    12.000000000000
           H         -0.133193478191     2.431351307179     0.358333650740     1.007825032070
           H          0.337674651060     1.337715947857    -0.914789407476     1.007825032070
           C          0.432829762447     0.493037939309     1.072858826471    12.000000000000
           H          1.274155901604     1.033858166958     1.512477172649     1.007825032070
           H         -0.271323599154     0.327252256832     1.893769341311     1.007825032070
           C          0.955575140973    -0.859282359117     0.575304832016    12.000000000000
           H          1.452119589246    -1.356476829194     1.414513726707     1.007825032070
           H          0.129596674010    -1.507845861752     0.282667108725     1.007825032070

  Nuclear repulsion =  409.014743397926281
  Reference energy  = -313.530399953475921

  ==> Basis Set <==

  Basis Set: AUG-CC-PVTZ
    Number of shells: 274
    Number of basis function: 782
    Number of Cartesian functions: 890
    Spherical Harmonics?: true
    Max angular momentum: 3

  ==> CGRSolver (by Rob Parrish) <==

   Number of roots    =         1
   Preconditioning    =    JACOBI
   Convergence cutoff =     1E-06
   Maximum iterations =       100

  ==> CPHFRHamiltonian (by Rob Parrish) <== 

  ==> DFJK: Density-Fitted J/K Matrices <==

    J tasked:                  Yes
    K tasked:                  Yes
    wK tasked:                  No
    OpenMP threads:             12
    Integrals threads:          12
    Memory (MB):             42915
    Algorithm:                Core
    Integral Cache:           NONE
    Schwarz Cutoff:          1E-12
    Fitting Condition:       1E-12

   => Auxiliary Basis Set <=

  Basis Set: 
    Number of shells: 492
    Number of basis function: 1660
    Number of Cartesian functions: 2038
    Spherical Harmonics?: true
    Max angular momentum: 4

  ==> CPHF Iterations <==

  => Iterations <=

             Iter  Converged  Remaining    Residual
  CGR           1          0          1   9.495E-02
  CGR           2          0          1   1.386E-02
  CGR           3          0          1   4.195E-03
  CGR           4          0          1   9.232E-04
  CGR           5          0          1   2.205E-04
  CGR           6          0          1   4.342E-05
  CGR           7          0          1   1.271E-05
  CGR           8          0          1   2.919E-06
  CGR           9          1          0   7.531E-07

    CGRSolver converged.

  ==> DFCorrGrad: Density-Fitted Correlated Gradients <==

    OpenMP threads:             12
    Integrals threads:          12
    Memory (MB):             42915
    Schwarz Cutoff:          0E+00
    Fitting Condition:       1E-12

   => Auxiliary Basis Set <=

  Basis Set: 
    Number of shells: 492
    Number of basis function: 1660
    Number of Cartesian functions: 2038
    Spherical Harmonics?: true
    Max angular momentum: 4

	-----------------------------------------------------------
	 ==================> DF-MP2 Energies <==================== 
	-----------------------------------------------------------
	 Reference Energy          =    -313.5303999534759214 [Eh]
	 Singles Energy            =      -0.0000000000000000 [Eh]
	 Same-Spin Energy          =      -0.3181269713750426 [Eh]
	 Opposite-Spin Energy      =      -1.1282300369548417 [Eh]
	 Correlation Energy        =      -1.4463570083298842 [Eh]
	 Total Energy              =    -314.9767569618057905 [Eh]
	-----------------------------------------------------------
	 ================> DF-SCS-MP2 Energies <================== 
	-----------------------------------------------------------
	 SCS Same-Spin Scale       =       0.3333333333333333 [-]
	 SCS Opposite-Spin Scale   =       1.2000000000000000 [-]
	 SCS Same-Spin Energy      =      -0.1060423237916809 [Eh]
	 SCS Opposite-Spin Energy  =      -1.3538760443458100 [Eh]
	 SCS Correlation Energy    =      -1.4599183681374908 [Eh]
	 SCS Total Energy          =    -314.9903183216134153 [Eh]
	-----------------------------------------------------------


  -Total Gradient:
     Atom            X                  Y                   Z
    ------   -----------------  -----------------  -----------------
       1       -0.000000468803    -0.000000613883     0.000000971893
       2        0.000000723252    -0.000000250612    -0.000000237811
       3       -0.000000676116     0.000000164636    -0.000000909437
       4        0.000000170719     0.000000800786     0.000000403431
       5        0.000000303422     0.000000201730     0.000000032907
       6       -0.000000092485    -0.000000023989     0.000000109883
       7       -0.000000113637     0.000000049850    -0.000000186583
       8        0.000000012233    -0.000000207403    -0.000000090614
       9        0.000000818753    -0.000000085239    -0.000001399853
      10        0.000000796328    -0.000000059304     0.000000218682
      11       -0.000001283448     0.000000596605     0.000000890259
      12        0.000000352332    -0.000000074857    -0.000000432465
      13        0.000000077766    -0.000000174786     0.000000301699
      14       -0.000000061885     0.000000215400     0.000000027512
      15       -0.000000739551     0.000000125802     0.000000205624
      16        0.000000529645    -0.000000165450    -0.000000638169
      17        0.000000025199    -0.000000346826     0.000000536519
      18        0.000000419947     0.000000195549    -0.000000499653
      19        0.000000042684    -0.000000418351    -0.000000251123
      20       -0.000000479174     0.000000004228     0.000000688093
      21       -0.000000470607     0.000000102849     0.000000617482
      22       -0.000000504624    -0.000000195551    -0.000000162713
      23        0.000000521599    -0.000000060288    -0.000000600809
      24       -0.000000236000    -0.000000561151     0.000000595275
      25       -0.000000499327     0.000000034763    -0.000000402972
      26        0.000000831777     0.000000745492     0.000000212942


			-----------------------------------------
			 OPTKING 2.0: for geometry optimizations 
			  - R.A. King,  Bethel University        
			-----------------------------------------

	Internal coordinates to be generated automatically.
	Detected frag 1 with atoms:  1 2 3 4 5 6 7 8 9 10 11 12 13 14 15 16 17 18 19 20
	 21 22 23 24 25 26
	---Fragment 1 Bond Connectivity---
	 1 : 2 3 4 9
	 2 : 1
	 3 : 1
	 4 : 1
	 5 : 6 7 8 12
	 6 : 5
	 7 : 5
	 8 : 5
	 9 : 1 10 11 15
	 10 : 9
	 11 : 9
	 12 : 5 13 14 24
	 13 : 12
	 14 : 12
	 15 : 9 16 17 18
	 16 : 15
	 17 : 15
	 18 : 15 19 20 21
	 19 : 18
	 20 : 18
	 21 : 18 22 23 24
	 22 : 21
	 23 : 21
	 24 : 12 21 25 26
	 25 : 24
	 26 : 24

	---Fragment 1 Geometry and Gradient---
	 C          -4.7840004501       -2.2910502734        0.5400756418
	 H          -6.5422634815       -1.6014505985        1.3661878898
	 H          -3.4103163952       -2.4548957844        2.0640372342
	 H          -5.1348439398       -4.1790438804       -0.2069311103
	 C           5.9301633940        0.2565651472       -0.5605378918
	 H           7.3146942801        0.1715587113       -2.0825478655
	 H           6.8711467401       -0.3098250849        1.1854751712
	 H           5.3513132079        2.2221659455       -0.3521656146
	 C          -3.8873138501       -0.4832570396       -1.5213266888
	 H          -5.3884639690       -0.3184309732       -2.9271556828
	 H          -2.2607107601       -1.2752716410       -2.5171253600
	 C           3.6779144959       -1.4545297999       -1.1070831757
	 H           2.7129964028       -0.8016026204       -2.8112876783
	 H           4.3526096079       -3.3586913412       -1.5314717113
	 C          -3.2204333585        2.1563569590       -0.5148278706
	 H          -4.3173195399        2.5116138011        1.2033210062
	 H          -3.8261413833        3.5793269230       -1.8825923744
	 C          -0.4234498435        2.6367412073        0.0407004148
	 H          -0.2516991965        4.5945881034        0.6771524641
	 H           0.6381126125        2.5279167850       -1.7287014494
	 C           0.8179297132        0.9317066784        2.0274093613
	 H           2.4078057046        1.9537087958        2.8581676385
	 H          -0.5127272958        0.6184171418        3.5787054139
	 C           1.8057753158       -1.6238083296        1.0871685754
	 H           2.7441083359       -2.5633697128        2.6730435547
	 H           0.2449022216       -2.8494157293        0.5341634223
	            -0.0000004688       -0.0000006139        0.0000009719
	             0.0000007233       -0.0000002506       -0.0000002378
	            -0.0000006761        0.0000001646       -0.0000009094
	             0.0000001707        0.0000008008        0.0000004034
	             0.0000003034        0.0000002017        0.0000000329
	            -0.0000000925       -0.0000000240        0.0000001099
	            -0.0000001136        0.0000000499       -0.0000001866
	             0.0000000122       -0.0000002074       -0.0000000906
	             0.0000008188       -0.0000000852       -0.0000013999
	             0.0000007963       -0.0000000593        0.0000002187
	            -0.0000012834        0.0000005966        0.0000008903
	             0.0000003523       -0.0000000749       -0.0000004325
	             0.0000000778       -0.0000001748        0.0000003017
	            -0.0000000619        0.0000002154        0.0000000275
	            -0.0000007396        0.0000001258        0.0000002056
	             0.0000005296       -0.0000001654       -0.0000006382
	             0.0000000252       -0.0000003468        0.0000005365
	             0.0000004199        0.0000001955       -0.0000004997
	             0.0000000427       -0.0000004184       -0.0000002511
	            -0.0000004792        0.0000000042        0.0000006881
	            -0.0000004706        0.0000001028        0.0000006175
	            -0.0000005046       -0.0000001956       -0.0000001627
	             0.0000005216       -0.0000000603       -0.0000006008
	            -0.0000002360       -0.0000005612        0.0000005953
	            -0.0000004993        0.0000000348       -0.0000004030
	             0.0000008318        0.0000007455        0.0000002129

	Previous optimization step data not found.  Starting new optimization.

	---Fragment 1 Intrafragment Coordinates---
	 - Coordinate -           - BOHR/RAD -       - ANG/DEG -
	 R(1,2)           =         2.061431	       1.090862
	 R(1,3)           =         2.058230	       1.089169
	 R(1,4)           =         2.060493	       1.090366
	 R(1,9)           =         2.884708	       1.526522
	 R(5,6)           =         2.059288	       1.089728
	 R(5,7)           =         2.062719	       1.091544
	 R(5,8)           =         2.059629	       1.089909
	 R(5,12)          =         2.880830	       1.524470
	 R(9,10)          =         2.063244	       1.091822
	 R(9,11)          =         2.065125	       1.092817
	 R(9,15)          =         2.902642	       1.536012
	 R(12,13)         =         2.064387	       1.092427
	 R(12,14)         =         2.064255	       1.092357
	 R(12,24)         =         2.889343	       1.528974
	 R(15,16)         =         2.069155	       1.094950
	 R(15,17)         =         2.064584	       1.092531
	 R(15,18)         =         2.891798	       1.530274
	 R(18,19)         =         2.065849	       1.093200
	 R(18,20)         =         2.066287	       1.093432
	 R(18,21)         =         2.897443	       1.533261
	 R(21,22)         =         2.064547	       1.092511
	 R(21,23)         =         2.067684	       1.094171
	 R(21,24)         =         2.896644	       1.532838
	 R(24,25)         =         2.068392	       1.094546
	 R(24,26)         =         2.060158	       1.090189
	 B(1,9,10)        =         1.886840	     108.107980
	 B(1,9,11)        =         1.927373	     110.430316
	 B(1,9,15)        =         1.975255	     113.173765
	 B(2,1,3)         =         1.874613	     107.407390
	 B(2,1,4)         =         1.882389	     107.852934
	 B(2,1,9)         =         1.919690	     109.990163
	 B(3,1,4)         =         1.885076	     108.006919
	 B(3,1,9)         =         1.951455	     111.810138
	 B(4,1,9)         =         1.947736	     111.597036
	 B(5,12,13)       =         1.911535	     109.522908
	 B(5,12,14)       =         1.908549	     109.351812
	 B(5,12,24)       =         1.979357	     113.408813
	 B(6,5,7)         =         1.883436	     107.912949
	 B(6,5,8)         =         1.878768	     107.645455
	 B(6,5,12)        =         1.940026	     111.155296
	 B(7,5,8)         =         1.880337	     107.735390
	 B(7,5,12)        =         1.932797	     110.741108
	 B(8,5,12)        =         1.945840	     111.488437
	 B(9,15,16)       =         1.898924	     108.800309
	 B(9,15,17)       =         1.906728	     109.247473
	 B(9,15,18)       =         2.026279	     116.097229
	 B(10,9,11)       =         1.849548	     105.971276
	 B(10,9,15)       =         1.907923	     109.315935
	 B(11,9,15)       =         1.912408	     109.572910
	 B(12,24,21)      =         1.999608	     114.569103
	 B(12,24,25)      =         1.891189	     108.357122
	 B(12,24,26)      =         1.898549	     108.778856
	 B(13,12,14)      =         1.849183	     105.950385
	 B(13,12,24)      =         1.920480	     110.035418
	 B(14,12,24)      =         1.890059	     108.292378
	 B(15,18,19)      =         1.872378	     107.279370
	 B(15,18,20)      =         1.900388	     108.884227
	 B(15,18,21)      =         2.035725	     116.638442
	 B(16,15,17)      =         1.850683	     106.036326
	 B(16,15,18)      =         1.901485	     108.947040
	 B(17,15,18)      =         1.871858	     107.249549
	 B(18,21,22)      =         1.890771	     108.333212
	 B(18,21,23)      =         1.904849	     109.139790
	 B(18,21,24)      =         2.029408	     116.276487
	 B(19,18,20)      =         1.845247	     105.724845
	 B(19,18,21)      =         1.886865	     108.109402
	 B(20,18,21)      =         1.913520	     109.636615
	 B(21,24,25)      =         1.882402	     107.853700
	 B(21,24,26)      =         1.932211	     110.707564
	 B(22,21,23)      =         1.842833	     105.586581
	 B(22,21,24)      =         1.880440	     107.741303
	 B(23,21,24)      =         1.906388	     109.227994
	 B(25,24,26)      =         1.853843	     106.217383
	 D(1,9,15,16)     =        -0.466240	     -26.713610
	 D(1,9,15,17)     =        -2.479272	    -142.051840
	 D(1,9,15,18)     =         1.685350	      96.563467
	 D(2,1,9,10)      =        -1.002811	     -57.456842
	 D(2,1,9,11)      =        -3.018914	    -172.971019
	 D(2,1,9,15)      =         1.113121	      63.777114
	 D(3,1,9,10)      =        -3.083934	    -176.696392
	 D(3,1,9,11)      =         1.183149	      67.789431
	 D(3,1,9,15)      =        -0.968002	     -55.462436
	 D(4,1,9,10)      =         1.085669	      62.204275
	 D(4,1,9,11)      =        -0.930433	     -53.309902
	 D(4,1,9,15)      =        -3.081584	    -176.561769
	 D(5,12,24,21)    =         0.951936	      54.541911
	 D(5,12,24,25)    =        -1.150432	     -65.914898
	 D(5,12,24,26)    =         3.124512	     179.021325
	 D(6,5,12,13)     =        -1.093953	     -62.678903
	 D(6,5,12,14)     =         0.925278	      53.014506
	 D(6,5,12,24)     =         3.036549	     173.981437
	 D(7,5,12,13)     =         3.095763	     177.374179
	 D(7,5,12,14)     =        -1.168191	     -66.932412
	 D(7,5,12,24)     =         0.943080	      54.034519
	 D(8,5,12,13)     =         1.002355	      57.430684
	 D(8,5,12,14)     =         3.021585	     173.124093
	 D(8,5,12,24)     =        -1.150329	     -65.908976
	 D(9,15,18,19)    =         3.110644	     178.226745
	 D(9,15,18,20)    =         1.121357	      64.249022
	 D(9,15,18,21)    =        -1.054644	     -60.426647
	 D(10,9,15,16)    =         1.637755	      93.836470
	 D(10,9,15,17)    =        -0.375276	     -21.501760
	 D(10,9,15,18)    =        -2.493839	    -142.886452
	 D(11,9,15,16)    =        -2.625625	    -150.437231
	 D(11,9,15,17)    =         1.644528	      94.224539
	 D(11,9,15,18)    =        -0.474034	     -27.160153
	 D(12,24,21,18)   =         0.969000	      55.519628
	 D(12,24,21,22)   =        -1.155998	     -66.233810
	 D(12,24,21,23)   =         3.133535	     179.538328
	 D(13,12,24,21)   =        -1.195831	     -68.516088
	 D(13,12,24,25)   =         2.984986	     171.027103
	 D(13,12,24,26)   =         0.976744	      55.963325
	 D(14,12,24,21)   =         3.073588	     176.103621
	 D(14,12,24,25)   =         0.971220	      55.646812
	 D(14,12,24,26)   =        -1.037022	     -59.416966
	 D(15,18,21,22)   =        -2.689772	    -154.112608
	 D(15,18,21,23)   =        -0.691444	     -39.616824
	 D(15,18,21,24)   =         1.473883	      84.447303
	 D(16,15,18,19)   =        -1.022287	     -58.572720
	 D(16,15,18,20)   =        -3.011573	    -172.550443
	 D(16,15,18,21)   =         1.095611	      62.773888
	 D(17,15,18,19)   =         0.973618	      55.784195
	 D(17,15,18,20)   =        -1.015669	     -58.193528
	 D(17,15,18,21)   =         3.091516	     177.130803
	 D(18,21,24,25)   =         3.076227	     176.254800
	 D(18,21,24,26)   =        -1.185639	     -67.932128
	 D(19,18,21,22)   =        -0.579528	     -33.204508
	 D(19,18,21,23)   =         1.418800	      81.291277
	 D(19,18,21,24)   =        -2.699057	    -154.644597
	 D(20,18,21,22)   =         1.424092	      81.594471
	 D(20,18,21,23)   =        -2.860765	    -163.909744
	 D(20,18,21,24)   =        -0.695437	     -39.845617
	 D(22,21,24,25)   =         0.951228	      54.501361
	 D(22,21,24,26)   =         2.972548	     170.314433
	 D(23,21,24,25)   =        -1.042424	     -59.726500
	 D(23,21,24,26)   =         0.978895	      56.086572
	 R(1,21)          =         6.631738	       3.509364
	 R(1,24)          =         6.646026	       3.516926
	 R(5,18)          =         6.811397	       3.604436
	 R(9,24)          =         6.365247	       3.368344

	Current energy   :      -314.9767569618

	Generating empirical Hessian (Schlegel '84) for each fragment.
	Taking RFO optimization step.
	Going to follow RFO solution 1.
	Using RFO vector 1.
	Norm of target step-size    0.00022
	Projected energy change by RFO approximation:         0.0000000002

	Back-transformation to cartesian coordinates...
	Successfully converged to displaced geometry.

	--- Internal Coordinate Step in ANG or DEG, aJ/ANG or AJ/DEG ---
	 ---------------------------------------------------------------------------
	   Coordinate                Previous        Force       Change         New 
	   ----------                --------       ------       ------       ------
	    1 R(1,2)          =      1.090862     0.000007     0.000001     1.090864
	    2 R(1,3)          =      1.089169     0.000009     0.000002     1.089170
	    3 R(1,4)          =      1.090366     0.000008     0.000001     1.090367
	    4 R(1,9)          =      1.526522    -0.000002    -0.000000     1.526522
	    5 R(5,6)          =      1.089728     0.000001     0.000000     1.089728
	    6 R(5,7)          =      1.091544     0.000002     0.000000     1.091544
	    7 R(5,8)          =      1.089909     0.000002     0.000000     1.089909
	    8 R(5,12)         =      1.524470     0.000000    -0.000000     1.524470
	    9 R(9,10)         =      1.091822     0.000006     0.000001     1.091823
	   10 R(9,11)         =      1.092817     0.000014     0.000003     1.092819
	   11 R(9,15)         =      1.536012     0.000003     0.000001     1.536013
	   12 R(12,13)        =      1.092427     0.000003     0.000001     1.092427
	   13 R(12,14)        =      1.092357     0.000002     0.000000     1.092357
	   14 R(12,24)        =      1.528974    -0.000004    -0.000001     1.528973
	   15 R(15,16)        =      1.094950     0.000007     0.000001     1.094951
	   16 R(15,17)        =      1.092531     0.000005     0.000001     1.092532
	   17 R(15,18)        =      1.530274    -0.000000     0.000001     1.530275
	   18 R(18,19)        =      1.093200     0.000004     0.000001     1.093201
	   19 R(18,20)        =      1.093432     0.000007     0.000001     1.093433
	   20 R(18,21)        =      1.533261     0.000002     0.000001     1.533262
	   21 R(21,22)        =      1.092511     0.000005     0.000001     1.092512
	   22 R(21,23)        =      1.094171     0.000006     0.000001     1.094173
	   23 R(21,24)        =      1.532838     0.000001     0.000000     1.532838
	   24 R(24,25)        =      1.094546     0.000005     0.000001     1.094547
	   25 R(24,26)        =      1.090189     0.000009     0.000002     1.090191
	   26 B(1,9,10)       =    108.107980    -0.000000    -0.000276   108.107704
	   27 B(1,9,11)       =    110.430316    -0.000000     0.000099   110.430415
	   28 B(1,9,15)       =    113.173765     0.000000     0.000221   113.173986
	   29 B(2,1,3)        =    107.407390    -0.000000     0.000025   107.407415
	   30 B(2,1,4)        =    107.852934     0.000000    -0.000038   107.852896
	   31 B(2,1,9)        =    109.990163    -0.000000    -0.000040   109.990123
	   32 B(3,1,4)        =    108.006919    -0.000000     0.000012   108.006931
	   33 B(3,1,9)        =    111.810138     0.000000     0.000114   111.810251
	   34 B(4,1,9)        =    111.597036    -0.000000    -0.000073   111.596964
	   35 B(5,12,13)      =    109.522908     0.000000     0.000032   109.522941
	   36 B(5,12,14)      =    109.351812     0.000000    -0.000019   109.351793
	   37 B(5,12,24)      =    113.408813    -0.000000    -0.000134   113.408679
	   38 B(6,5,7)        =    107.912949    -0.000000    -0.000004   107.912945
	   39 B(6,5,8)        =    107.645455    -0.000000     0.000002   107.645457
	   40 B(6,5,12)       =    111.155296     0.000000     0.000022   111.155319
	   41 B(7,5,8)        =    107.735390    -0.000000    -0.000039   107.735351
	   42 B(7,5,12)       =    110.741108    -0.000000    -0.000009   110.741099
	   43 B(8,5,12)       =    111.488437     0.000000     0.000025   111.488462
	   44 B(9,15,16)      =    108.800309    -0.000000     0.000026   108.800335
	   45 B(9,15,17)      =    109.247473    -0.000000    -0.000193   109.247280
	   46 B(9,15,18)      =    116.097229    -0.000000     0.000266   116.097494
	   47 B(10,9,11)      =    105.971276     0.000000     0.000028   105.971304
	   48 B(10,9,15)      =    109.315935    -0.000000    -0.000143   109.315793
	   49 B(11,9,15)      =    109.572910    -0.000000     0.000050   109.572960
	   50 B(12,24,21)     =    114.569103    -0.000000    -0.000094   114.569009
	   51 B(12,24,25)     =    108.357122    -0.000000    -0.000119   108.357003
	   52 B(12,24,26)     =    108.778856     0.000000     0.000116   108.778972
	   53 B(13,12,14)     =    105.950385    -0.000000     0.000045   105.950430
	   54 B(13,12,24)     =    110.035418     0.000000     0.000084   110.035502
	   55 B(14,12,24)     =    108.292378     0.000000     0.000003   108.292381
	   56 B(15,18,19)     =    107.279370     0.000000    -0.000121   107.279250
	   57 B(15,18,20)     =    108.884227     0.000000     0.000013   108.884241
	   58 B(15,18,21)     =    116.638442    -0.000000     0.000238   116.638679
	   59 B(16,15,17)     =    106.036326     0.000000    -0.000011   106.036315
	   60 B(16,15,18)     =    108.947040    -0.000000     0.000088   108.947128
	   61 B(17,15,18)     =    107.249549     0.000000    -0.000200   107.249349
	   62 B(18,21,22)     =    108.333212     0.000000    -0.000067   108.333145
	   63 B(18,21,23)     =    109.139790    -0.000000     0.000005   109.139795
	   64 B(18,21,24)     =    116.276487     0.000000     0.000051   116.276539
	   65 B(19,18,20)     =    105.724845    -0.000000    -0.000023   105.724823
	   66 B(19,18,21)     =    108.109402     0.000000    -0.000117   108.109285
	   67 B(20,18,21)     =    109.636615     0.000000    -0.000018   109.636597
	   68 B(21,24,25)     =    107.853700     0.000000    -0.000071   107.853628
	   69 B(21,24,26)     =    110.707564     0.000000     0.000095   110.707659
	   70 B(22,21,23)     =    105.586581     0.000000    -0.000011   105.586570
	   71 B(22,21,24)     =    107.741303    -0.000000    -0.000111   107.741192
	   72 B(23,21,24)     =    109.227994     0.000000     0.000123   109.228117
	   73 B(25,24,26)     =    106.217383     0.000000     0.000079   106.217462
	   74 D(1,9,15,16)    =    -26.713610    -0.000000    -0.001160   -26.714770
	   75 D(1,9,15,17)    =   -142.051840    -0.000000    -0.001056  -142.052896
	   76 D(1,9,15,18)    =     96.563467    -0.000000    -0.000829    96.562639
	   77 D(2,1,9,10)     =    -57.456842     0.000000     0.000796   -57.456046
	   78 D(2,1,9,11)     =   -172.971019     0.000000     0.000865  -172.970153
	   79 D(2,1,9,15)     =     63.777114     0.000000     0.000565    63.777679
	   80 D(3,1,9,10)     =   -176.696392    -0.000000     0.000718  -176.695674
	   81 D(3,1,9,11)     =     67.789431     0.000000     0.000788    67.790219
	   82 D(3,1,9,15)     =    -55.462436    -0.000000     0.000487   -55.461949
	   83 D(4,1,9,10)     =     62.204275    -0.000000     0.000674    62.204949
	   84 D(4,1,9,11)     =    -53.309902    -0.000000     0.000744   -53.309158
	   85 D(4,1,9,15)     =   -176.561769    -0.000000     0.000443  -176.561326
	   86 D(5,12,24,21)   =     54.541911     0.000000     0.002306    54.544218
	   87 D(5,12,24,25)   =    -65.914898     0.000000     0.002545   -65.912353
	   88 D(5,12,24,26)   =    179.021325     0.000000     0.002454   179.023779
	   89 D(6,5,12,13)    =    -62.678903     0.000000     0.000497   -62.678406
	   90 D(6,5,12,14)    =     53.014506     0.000000     0.000558    53.015064
	   91 D(6,5,12,24)    =    173.981437    -0.000000     0.000458   173.981896
	   92 D(7,5,12,13)    =    177.374179     0.000000     0.000493   177.374672
	   93 D(7,5,12,14)    =    -66.932412     0.000000     0.000554   -66.931858
	   94 D(7,5,12,24)    =     54.034519    -0.000000     0.000455    54.034974
	   95 D(8,5,12,13)    =     57.430684     0.000000     0.000532    57.431216
	   96 D(8,5,12,14)    =    173.124093     0.000000     0.000593   173.124686
	   97 D(8,5,12,24)    =    -65.908976    -0.000000     0.000493   -65.908483
	   98 D(9,15,18,19)   =    178.226745     0.000000    -0.000172   178.226572
	   99 D(9,15,18,20)   =     64.249022    -0.000000    -0.000090    64.248931
	  100 D(9,15,18,21)   =    -60.426647     0.000000    -0.000259   -60.426906
	  101 D(10,9,15,16)   =     93.836470    -0.000000    -0.001465    93.835005
	  102 D(10,9,15,17)   =    -21.501760    -0.000000    -0.001362   -21.503121
	  103 D(10,9,15,18)   =   -142.886452    -0.000000    -0.001134  -142.887586
	  104 D(11,9,15,16)   =   -150.437231    -0.000000    -0.001484  -150.438715
	  105 D(11,9,15,17)   =     94.224539    -0.000000    -0.001380    94.223159
	  106 D(11,9,15,18)   =    -27.160153    -0.000000    -0.001152   -27.161306
	  107 D(12,24,21,18)  =     55.519628     0.000000    -0.002390    55.517238
	  108 D(12,24,21,22)  =    -66.233810     0.000000    -0.002251   -66.236061
	  109 D(12,24,21,23)  =    179.538328     0.000000    -0.002242   179.536086
	  110 D(13,12,24,21)  =    -68.516088     0.000000     0.002297   -68.513792
	  111 D(13,12,24,25)  =    171.027103     0.000000     0.002535   171.029638
	  112 D(13,12,24,26)  =     55.963325     0.000000     0.002445    55.965770
	  113 D(14,12,24,21)  =    176.103621    -0.000000     0.002196   176.105817
	  114 D(14,12,24,25)  =     55.646812     0.000000     0.002435    55.649247
	  115 D(14,12,24,26)  =    -59.416966     0.000000     0.002345   -59.414621
	  116 D(15,18,21,22)  =   -154.112608    -0.000000    -0.001471  -154.114080
	  117 D(15,18,21,23)  =    -39.616824    -0.000000    -0.001517   -39.618341
	  118 D(15,18,21,24)  =     84.447303    -0.000000    -0.001309    84.445993
	  119 D(16,15,18,19)  =    -58.572720     0.000000     0.000128   -58.572592
	  120 D(16,15,18,20)  =   -172.550443    -0.000000     0.000209  -172.550233
	  121 D(16,15,18,21)  =     62.773888    -0.000000     0.000041    62.773929
	  122 D(17,15,18,19)  =     55.784195     0.000000     0.000054    55.784249
	  123 D(17,15,18,20)  =    -58.193528     0.000000     0.000136   -58.193392
	  124 D(17,15,18,21)  =    177.130803     0.000000    -0.000032   177.130771
	  125 D(18,21,24,25)  =    176.254800    -0.000000    -0.002654   176.252146
	  126 D(18,21,24,26)  =    -67.932128     0.000000    -0.002549   -67.934677
	  127 D(19,18,21,22)  =    -33.204508    -0.000000    -0.001558   -33.206067
	  128 D(19,18,21,23)  =     81.291277    -0.000000    -0.001604    81.289672
	  129 D(19,18,21,24)  =   -154.644597    -0.000000    -0.001396  -154.645993
	  130 D(20,18,21,22)  =     81.594471    -0.000000    -0.001658    81.592813
	  131 D(20,18,21,23)  =   -163.909744    -0.000000    -0.001704  -163.911447
	  132 D(20,18,21,24)  =    -39.845617    -0.000000    -0.001496   -39.847113
	  133 D(22,21,24,25)  =     54.501361    -0.000000    -0.002515    54.498847
	  134 D(22,21,24,26)  =    170.314433    -0.000000    -0.002410   170.312023
	  135 D(23,21,24,25)  =    -59.726500    -0.000000    -0.002506   -59.729006
	  136 D(23,21,24,26)  =     56.086572    -0.000000    -0.002401    56.084171
	  137 R(1,21)         =      3.509364     0.000003     0.000005     3.509370
	  138 R(1,24)         =      3.516926    -0.000003    -0.000028     3.516898
	  139 R(5,18)         =      3.604436    -0.000001    -0.000004     3.604432
	  140 R(9,24)         =      3.368344    -0.000000    -0.000003     3.368341
	 ---------------------------------------------------------------------------

  ==> Convergence Check <==

  Measures of convergence in internal coordinates in au.
  Criteria marked as inactive (o), active & met (*), and active & unmet ( ).
  --------------------------------------------------------------------------------------------- ~
   Step     Total Energy     Delta E     MAX Force     RMS Force      MAX Disp      RMS Disp    ~
  --------------------------------------------------------------------------------------------- ~
    Convergence Criteria             o    2.00e-06 *    1.00e-06 *    6.00e-06 *    4.00e-06 *  ~
  --------------------------------------------------------------------------------------------- ~
      1    -314.97675696   -3.15e+02 o    1.68e-06 *    3.01e-07 *    5.21e-05      1.85e-05    ~
  ---------------------------------------------------------------------------------------------

	Writing optimization data to binary file.
	Structure for next step:
	Cartesian Geometry (in Angstrom)
	    C    -2.5315511311  -1.2123899983   0.2857634355
	    H    -3.4619955365  -0.8474899412   0.7229183566
	    H    -1.8046341157  -1.2990904012   1.0922165616
	    H    -2.7171894673  -2.2114730386  -0.1095491412
	    C     3.1380867341   0.1357440334  -0.2966538909
	    H     3.8707156985   0.0907563629  -1.1020971366
	    H     3.6360663040  -0.1639944195   0.6272735442
	    H     2.8317947386   1.1758996159  -0.1863646276
	    C    -2.0570527526  -0.2557277245  -0.8050699447
	    H    -2.8514314345  -0.1685049952  -1.5489996576
	    H    -1.1962863980  -0.6748291086  -1.3320326529
	    C     1.9462208911  -0.7697054549  -0.5858334669
	    H     1.4355818522  -0.4241793931  -1.4876407719
	    H     2.3032278967  -1.7773507391  -0.8104249304
	    C    -1.7041704704   1.1410958608  -0.2724398120
	    H    -2.2846371389   1.3290840467   0.6367556709
	    H    -2.0246887813   1.8940993154  -0.9962346282
	    C    -0.2240771790   1.3953177636   0.0215588701
	    H    -0.1332084092   2.4313667452   0.3583587571
	    H     0.3376945250   1.3377393443  -0.9147601010
	    C     0.4328286253   0.4930601894   1.0728899803
	    H     1.2741583769   1.0338821763   1.5125013357
	    H    -0.2713255170   0.3272879049   1.8938041370
	    C     0.9555703313  -0.8592674172   0.5753511378
	    H     1.4521538395  -1.3564331248   1.4145550773
	    H     0.1295878935  -1.5078500259   0.2827605787
			--------------------------
			 OPTKING Finished Execution 
			--------------------------

    Structure for next step:
    Molecular point group: c1
    Full point group: C1

    Geometry (in Angstrom), charge = 0, multiplicity = 1:

    C           -2.531550759859    -1.212390879905     0.285761235393
    H           -3.461995165231    -0.847490822851     0.722916156437
    H           -1.804633744463    -1.299091282774     1.092214361482
    H           -2.717189096003    -2.211473920201    -0.109551341355
    C            3.138087105381     0.135743151817    -0.296656091036
    H            3.870716069794     0.090755481301    -1.102099336768
    H            3.636066675223    -0.163995301113     0.627271344034
    H            2.831795109814     1.175898734259    -0.186366827748
    C           -2.057052381389    -0.255728606134    -0.805072144827
    H           -2.851431063247    -0.168505876834    -1.549001857731
    H           -1.196286026777    -0.674829990204    -1.332034853067
    C            1.946221262308    -0.769706336550    -0.585835667044
    H            1.435582223496    -0.424180274685    -1.487642972071
    H            2.303228267979    -1.777351620732    -0.810427130545
    C           -1.704170099156     1.141094979162    -0.272442012141
    H           -2.284636767611     1.329083165091     0.636753470748
    H           -2.024688410019     1.894098433818    -0.996236828332
    C           -0.224076807726     1.395316881961     0.021556669955
    H           -0.133208037980     2.431365863628     0.358356557006
    H            0.337694896227     1.337738462730    -0.914762301091
    C            0.432828996556     0.493059307826     1.072887780223
    H            1.274158748119     1.033881294742     1.512499135528
    H           -0.271325145727     0.327287023337     1.893801936876
    C            0.955570702586    -0.859268298762     0.575348937653
    H            1.452154210774    -1.356434006375     1.414552877169
    H            0.129588264731    -1.507850907472     0.282758378603

gradient() will perform analytic gradient computation.

*** tstart() called on wr40
*** at Thu Sep 22 00:07:48 2016


         ---------------------------------------------------------
                                   SCF
            by Justin Turney, Rob Parrish, and Andy Simmonett
                              RHF Reference
                       12 Threads,  60000 MiB Core
         ---------------------------------------------------------

  ==> Geometry <==

    Molecular point group: c1
    Full point group: C1

    Geometry (in Angstrom), charge = 0, multiplicity = 1:

       Center              X                  Y                   Z               Mass       
    ------------   -----------------  -----------------  -----------------  -----------------
           C         -2.531550759859    -1.212390879905     0.285761235393    12.000000000000
           H         -3.461995165231    -0.847490822851     0.722916156437     1.007825032070
           H         -1.804633744463    -1.299091282774     1.092214361482     1.007825032070
           H         -2.717189096003    -2.211473920201    -0.109551341355     1.007825032070
           C          3.138087105381     0.135743151817    -0.296656091036    12.000000000000
           H          3.870716069794     0.090755481301    -1.102099336768     1.007825032070
           H          3.636066675223    -0.163995301113     0.627271344034     1.007825032070
           H          2.831795109814     1.175898734259    -0.186366827748     1.007825032070
           C         -2.057052381389    -0.255728606134    -0.805072144827    12.000000000000
           H         -2.851431063247    -0.168505876834    -1.549001857731     1.007825032070
           H         -1.196286026777    -0.674829990204    -1.332034853067     1.007825032070
           C          1.946221262308    -0.769706336550    -0.585835667044    12.000000000000
           H          1.435582223496    -0.424180274685    -1.487642972071     1.007825032070
           H          2.303228267979    -1.777351620732    -0.810427130545     1.007825032070
           C         -1.704170099156     1.141094979162    -0.272442012141    12.000000000000
           H         -2.284636767611     1.329083165091     0.636753470748     1.007825032070
           H         -2.024688410019     1.894098433818    -0.996236828332     1.007825032070
           C         -0.224076807726     1.395316881961     0.021556669955    12.000000000000
           H         -0.133208037980     2.431365863628     0.358356557006     1.007825032070
           H          0.337694896227     1.337738462730    -0.914762301091     1.007825032070
           C          0.432828996556     0.493059307826     1.072887780223    12.000000000000
           H          1.274158748119     1.033881294742     1.512499135528     1.007825032070
           H         -0.271325145727     0.327287023337     1.893801936876     1.007825032070
           C          0.955570702586    -0.859268298762     0.575348937653    12.000000000000
           H          1.452154210774    -1.356434006375     1.414552877169     1.007825032070
           H          0.129588264731    -1.507850907472     0.282758378603     1.007825032070

  Running in c1 symmetry.

  Rotational constants: A =      0.10462  B =      0.03489  C =      0.03137 [cm^-1]
  Rotational constants: A =   3136.57651  B =   1045.85752  C =    940.45117 [MHz]
  Nuclear repulsion =  409.015167470689335

  Charge       = 0
  Multiplicity = 1
  Electrons    = 66
  Nalpha       = 33
  Nbeta        = 33

  ==> Algorithm <==

  SCF Algorithm Type is DF.
  DIIS enabled.
  MOM disabled.
  Fractional occupation disabled.
  Guess Type is READ.
  Energy threshold   = 1.00e-10
  Density threshold  = 1.00e-10
  Integral threshold = 0.00e+00

  ==> Primary Basis <==

  Basis Set: AUG-CC-PVTZ
    Number of shells: 274
    Number of basis function: 782
    Number of Cartesian functions: 890
    Spherical Harmonics?: true
    Max angular momentum: 3

  ==> Pre-Iterations <==

   -------------------------------------------------------
    Irrep   Nso     Nmo     Nalpha   Nbeta   Ndocc  Nsocc
   -------------------------------------------------------
     A        782     782       0       0       0       0
   -------------------------------------------------------
    Total     782     782      33      33      33       0
   -------------------------------------------------------

  ==> Integral Setup <==

  ==> DFJK: Density-Fitted J/K Matrices <==

    J tasked:                  Yes
    K tasked:                  Yes
    wK tasked:                  No
    OpenMP threads:             12
    Integrals threads:          12
    Memory (MB):             42915
    Algorithm:                Core
    Integral Cache:           NONE
    Schwarz Cutoff:          1E-12
    Fitting Condition:       1E-12

   => Auxiliary Basis Set <=

  Basis Set: 
    Number of shells: 492
    Number of basis function: 1660
    Number of Cartesian functions: 2038
    Spherical Harmonics?: true
    Max angular momentum: 4

  Minimum eigenvalue in the overlap matrix is 1.5444066354E-06.
  Using Symmetric Orthogonalization.
  SCF Guess: Reading in previously saved MOs, projecting if necessary.

  Using orbitals from previous SCF, no projection.
  Recomputing DOCC and SOCC from number of alpha and beta electrons from previous calculation.
              A 
    DOCC [    33 ]

  ==> Iterations <==

                           Total Energy        Delta E     RMS |[F,P]|

   @DF-RHF iter   0:  -313.53037712516027   -3.13530e+02   1.33050e-07 
   @DF-RHF iter   1:  -313.53039958029456   -2.24551e-05   2.53925e-08 
   @DF-RHF iter   2:  -313.53039958062800   -3.33443e-10   1.07747e-08 DIIS
   @DF-RHF iter   3:  -313.53039958067745   -4.94538e-11   4.29540e-09 DIIS
   @DF-RHF iter   4:  -313.53039958068825   -1.08002e-11   5.14726e-10 DIIS
   @DF-RHF iter   5:  -313.53039958068848   -2.27374e-13   1.66907e-10 DIIS
   @DF-RHF iter   6:  -313.53039958068791    5.68434e-13   4.44309e-11 DIIS

  ==> Post-Iterations <==

    Orbital Energies (a.u.)
    -----------------------

    Doubly Occupied:                                                      

       1A    -11.212687     2A    -11.212513     3A    -11.210928  
       4A    -11.210564     5A    -11.210041     6A    -11.209369  
       7A    -11.206873     8A    -11.206750     9A     -1.093693  
      10A     -1.056258    11A     -1.004080    12A     -0.952168  
      13A     -0.889319    14A     -0.834615    15A     -0.787195  
      16A     -0.746307    17A     -0.648996    18A     -0.634130  
      19A     -0.601317    20A     -0.596649    21A     -0.577503  
      22A     -0.560697    23A     -0.547640    24A     -0.533077  
      25A     -0.516260    26A     -0.501369    27A     -0.495794  
      28A     -0.471312    29A     -0.463013    30A     -0.461687  
      31A     -0.443430    32A     -0.433546    33A     -0.431840  

    Virtual:                                                              

      34A      0.029763    35A      0.033519    36A      0.033644  
      37A      0.035474    38A      0.046941    39A      0.048869  
      40A      0.049540    41A      0.052790    42A      0.054482  
      43A      0.068831    44A      0.069726    45A      0.073393  
      46A      0.074765    47A      0.076115    48A      0.081773  
      49A      0.093124    50A      0.095585    51A      0.098967  
      52A      0.115122    53A      0.116281    54A      0.121732  
      55A      0.125763    56A      0.130382    57A      0.132769  
      58A      0.133775    59A      0.136294    60A      0.139099  
      61A      0.142422    62A      0.147172    63A      0.148519  
      64A      0.153129    65A      0.156289    66A      0.164522  
      67A      0.166460    68A      0.169283    69A      0.170034  
      70A      0.172694    71A      0.177090    72A      0.181329  
      73A      0.184623    74A      0.189577    75A      0.197577  
      76A      0.202568    77A      0.208081    78A      0.216967  
      79A      0.223616    80A      0.231075    81A      0.239488  
      82A      0.248737    83A      0.255883    84A      0.265003  
      85A      0.271318    86A      0.277546    87A      0.285974  
      88A      0.287866    89A      0.293022    90A      0.296311  
      91A      0.301457    92A      0.307734    93A      0.312413  
      94A      0.314985    95A      0.317367    96A      0.324330  
      97A      0.325763    98A      0.329842    99A      0.334542  
     100A      0.336662   101A      0.342681   102A      0.345087  
     103A      0.349494   104A      0.353281   105A      0.359211  
     106A      0.360729   107A      0.362526   108A      0.366506  
     109A      0.369105   110A      0.371790   111A      0.377238  
     112A      0.381584   113A      0.388027   114A      0.390784  
     115A      0.393819   116A      0.398491   117A      0.402354  
     118A      0.403558   119A      0.408477   120A      0.419292  
     121A      0.423945   122A      0.428326   123A      0.429858  
     124A      0.434731   125A      0.440101   126A      0.440706  
     127A      0.444452   128A      0.453522   129A      0.460859  
     130A      0.463024   131A      0.465443   132A      0.468415  
     133A      0.472167   134A      0.473928   135A      0.477026  
     136A      0.479488   137A      0.480206   138A      0.484972  
     139A      0.489401   140A      0.494484   141A      0.497531  
     142A      0.505497   143A      0.508925   144A      0.513481  
     145A      0.515285   146A      0.516244   147A      0.524407  
     148A      0.529578   149A      0.535885   150A      0.537063  
     151A      0.546285   152A      0.548741   153A      0.552765  
     154A      0.555329   155A      0.559421   156A      0.566927  
     157A      0.568032   158A      0.575144   159A      0.578918  
     160A      0.579395   161A      0.588393   162A      0.590587  
     163A      0.593187   164A      0.600315   165A      0.605229  
     166A      0.609509   167A      0.613458   168A      0.617348  
     169A      0.620936   170A      0.629618   171A      0.631969  
     172A      0.633757   173A      0.639037   174A      0.645026  
     175A      0.650530   176A      0.657098   177A      0.661185  
     178A      0.662817   179A      0.665048   180A      0.677423  
     181A      0.683561   182A      0.692723   183A      0.697018  
     184A      0.702705   185A      0.704128   186A      0.708344  
     187A      0.709938   188A      0.718959   189A      0.721996  
     190A      0.725565   191A      0.731773   192A      0.739887  
     193A      0.742095   194A      0.746564   195A      0.750447  
     196A      0.754906   197A      0.763937   198A      0.776734  
     199A      0.783508   200A      0.795606   201A      0.802984  
     202A      0.803967   203A      0.813533   204A      0.830092  
     205A      0.835963   206A      0.841241   207A      0.846103  
     208A      0.853907   209A      0.863791   210A      0.869103  
     211A      0.870927   212A      0.874313   213A      0.884390  
     214A      0.893013   215A      0.895295   216A      0.900556  
     217A      0.902550   218A      0.905206   219A      0.910093  
     220A      0.918428   221A      0.924178   222A      0.929467  
     223A      0.935792   224A      0.944962   225A      0.946647  
     226A      0.951872   227A      0.957887   228A      0.959846  
     229A      0.967108   230A      0.969746   231A      0.974720  
     232A      0.986475   233A      0.992142   234A      0.995847  
     235A      0.999248   236A      1.000862   237A      1.007249  
     238A      1.012148   239A      1.018987   240A      1.025324  
     241A      1.026119   242A      1.029689   243A      1.032834  
     244A      1.045032   245A      1.048359   246A      1.049985  
     247A      1.055301   248A      1.065624   249A      1.069041  
     250A      1.074746   251A      1.077596   252A      1.086482  
     253A      1.088638   254A      1.095666   255A      1.099643  
     256A      1.107116   257A      1.114948   258A      1.119884  
     259A      1.125334   260A      1.126873   261A      1.136853  
     262A      1.141306   263A      1.149505   264A      1.152403  
     265A      1.157763   266A      1.164436   267A      1.175186  
     268A      1.176487   269A      1.181540   270A      1.182351  
     271A      1.191272   272A      1.192739   273A      1.196768  
     274A      1.209463   275A      1.219274   276A      1.221157  
[...]
	Denominators (dg)(dq) or (dq)(dq) are very small.
	 Skipping Hessian update for step 8.
	Denominators (dg)(dq) or (dq)(dq) are very small.
	 Skipping Hessian update for step 7.
	Denominators (dg)(dq) or (dq)(dq) are very small.
	 Skipping Hessian update for step 6.
	Denominators (dg)(dq) or (dq)(dq) are very small.
	 Skipping Hessian update for step 5.
	Denominators (dg)(dq) or (dq)(dq) are very small.
	 Skipping Hessian update for step 4.
	Denominators (dg)(dq) or (dq)(dq) are very small.
	 Skipping Hessian update for step 3.
	Denominators (dg)(dq) or (dq)(dq) are very small.
	 Skipping Hessian update for step 2.
	Steps to be used in Hessian update: 1
	Taking RFO optimization step.
	Going to follow RFO solution 1.
	Using RFO vector 1.
	Norm of target step-size    0.00002
	Projected energy change by RFO approximation:        -0.0000000000

	Back-transformation to cartesian coordinates...
	Successfully converged to displaced geometry.

	--- Internal Coordinate Step in ANG or DEG, aJ/ANG or AJ/DEG ---
	 ---------------------------------------------------------------------------
	   Coordinate                Previous        Force       Change         New 
	   ----------                --------       ------       ------       ------
	    1 R(1,2)          =      1.090863    -0.000001     0.000000     1.090863
	    2 R(1,3)          =      1.089170    -0.000001     0.000000     1.089170
	    3 R(1,4)          =      1.090367    -0.000001     0.000000     1.090367
	    4 R(1,9)          =      1.526522     0.000000    -0.000000     1.526522
	    5 R(5,6)          =      1.089728     0.000001     0.000000     1.089729
	    6 R(5,7)          =      1.091544     0.000002     0.000000     1.091545
	    7 R(5,8)          =      1.089909     0.000001     0.000000     1.089910
	    8 R(5,12)         =      1.524470     0.000000     0.000000     1.524470
	    9 R(9,10)         =      1.091822    -0.000000     0.000000     1.091823
	   10 R(9,11)         =      1.092819    -0.000002     0.000000     1.092819
	   11 R(9,15)         =      1.536012     0.000000     0.000000     1.536013
	   12 R(12,13)        =      1.092427     0.000001     0.000000     1.092427
	   13 R(12,14)        =      1.092357     0.000002     0.000000     1.092358
	   14 R(12,24)        =      1.528974     0.000002     0.000000     1.528974
	   15 R(15,16)        =      1.094950    -0.000001     0.000000     1.094951
	   16 R(15,17)        =      1.092531    -0.000001     0.000000     1.092531
	   17 R(15,18)        =      1.530274    -0.000001    -0.000000     1.530274
	   18 R(18,19)        =      1.093201    -0.000003    -0.000000     1.093201
	   19 R(18,20)        =      1.093433    -0.000005    -0.000000     1.093432
	   20 R(18,21)        =      1.533261    -0.000004    -0.000000     1.533260
	   21 R(21,22)        =      1.092512    -0.000003    -0.000000     1.092512
	   22 R(21,23)        =      1.094172    -0.000003    -0.000000     1.094172
	   23 R(21,24)        =      1.532839     0.000001     0.000000     1.532839
	   24 R(24,25)        =      1.094547    -0.000001    -0.000000     1.094546
	   25 R(24,26)        =      1.090190    -0.000002    -0.000000     1.090190
	   26 B(1,9,10)       =    108.107781    -0.000000    -0.000030   108.107751
	   27 B(1,9,11)       =    110.430388    -0.000000     0.000019   110.430407
	   28 B(1,9,15)       =    113.173943     0.000000     0.000021   113.173964
	   29 B(2,1,3)        =    107.407343     0.000000     0.000013   107.407356
	   30 B(2,1,4)        =    107.852882    -0.000000     0.000006   107.852888
	   31 B(2,1,9)        =    109.990113     0.000000     0.000018   109.990131
	   32 B(3,1,4)        =    108.006954     0.000000    -0.000011   108.006943
	   33 B(3,1,9)        =    111.810295    -0.000000    -0.000014   111.810281
	   34 B(4,1,9)        =    111.596987    -0.000000    -0.000010   111.596976
	   35 B(5,12,13)      =    109.522922    -0.000000    -0.000046   109.522875
	   36 B(5,12,14)      =    109.351781     0.000000     0.000022   109.351802
	   37 B(5,12,24)      =    113.408710     0.000000     0.000036   113.408746
	   38 B(6,5,7)        =    107.912943    -0.000000    -0.000011   107.912932
	   39 B(6,5,8)        =    107.645449     0.000000     0.000010   107.645459
	   40 B(6,5,12)       =    111.155335    -0.000000    -0.000017   111.155318
	   41 B(7,5,8)        =    107.735350     0.000000     0.000011   107.735362
	   42 B(7,5,12)       =    110.741089     0.000000     0.000034   110.741123
	   43 B(8,5,12)       =    111.488466    -0.000000    -0.000027   111.488440
	   44 B(9,15,16)      =    108.800309    -0.000000    -0.000022   108.800287
	   45 B(9,15,17)      =    109.247369    -0.000000    -0.000006   109.247363
	   46 B(9,15,18)      =    116.097318     0.000000     0.000010   116.097327
	   47 B(10,9,11)      =    105.971293     0.000000     0.000011   105.971305
	   48 B(10,9,15)      =    109.315857    -0.000000    -0.000029   109.315828
	   49 B(11,9,15)      =    109.572905    -0.000000     0.000006   109.572911
	   50 B(12,24,21)     =    114.569111     0.000000     0.000041   114.569152
	   51 B(12,24,25)     =    108.356989     0.000000     0.000016   108.357004
	   52 B(12,24,26)     =    108.778990    -0.000000    -0.000011   108.778978
	   53 B(13,12,14)     =    105.950412     0.000000     0.000011   105.950423
	   54 B(13,12,24)     =    110.035502    -0.000000    -0.000065   110.035437
	   55 B(14,12,24)     =    108.292395     0.000000     0.000043   108.292438
	   56 B(15,18,19)     =    107.279363     0.000000     0.000003   107.279367
	   57 B(15,18,20)     =    108.884215     0.000000     0.000037   108.884252
	   58 B(15,18,21)     =    116.638593    -0.000000    -0.000074   116.638519
	   59 B(16,15,17)     =    106.036358    -0.000000    -0.000012   106.036346
	   60 B(16,15,18)     =    108.947127    -0.000000    -0.000001   108.947126
	   61 B(17,15,18)     =    107.249439     0.000000     0.000030   107.249469
	   62 B(18,21,22)     =    108.333130    -0.000000    -0.000008   108.333123
	   63 B(18,21,23)     =    109.139766     0.000000    -0.000000   109.139766
	   64 B(18,21,24)     =    116.276572     0.000000     0.000015   116.276587
	   65 B(19,18,20)     =    105.724822    -0.000000     0.000029   105.724851
	   66 B(19,18,21)     =    108.109340     0.000000     0.000017   108.109357
	   67 B(20,18,21)     =    109.636554     0.000000    -0.000004   109.636550
	   68 B(21,24,25)     =    107.853563    -0.000000    -0.000024   107.853539
	   69 B(21,24,26)     =    110.707643    -0.000000    -0.000023   110.707620
	   70 B(22,21,23)     =    105.586579     0.000000    -0.000018   105.586561
	   71 B(22,21,24)     =    107.741246     0.000000     0.000049   107.741295
	   72 B(23,21,24)     =    109.228065    -0.000000    -0.000041   109.228024
	   73 B(25,24,26)     =    106.217425     0.000000     0.000000   106.217426
	   74 D(1,9,15,16)    =    -26.714138     0.000000     0.000183   -26.713955
	   75 D(1,9,15,17)    =   -142.052349     0.000000     0.000212  -142.052137
	   76 D(1,9,15,18)    =     96.563121     0.000000     0.000170    96.563291
	   77 D(2,1,9,10)     =    -57.455423    -0.000000    -0.000251   -57.455675
	   78 D(2,1,9,11)     =   -172.969546    -0.000000    -0.000258  -172.969805
	   79 D(2,1,9,15)     =     63.778409    -0.000000    -0.000296    63.778113
	   80 D(3,1,9,10)     =   -176.694983    -0.000000    -0.000271  -176.695254
	   81 D(3,1,9,11)     =     67.790894    -0.000000    -0.000277    67.790616
	   82 D(3,1,9,15)     =    -55.461151    -0.000000    -0.000315   -55.461466
	   83 D(4,1,9,10)     =     62.205563     0.000000    -0.000239    62.205324
	   84 D(4,1,9,11)     =    -53.308560     0.000000    -0.000246   -53.308806
	   85 D(4,1,9,15)     =   -176.560605     0.000000    -0.000283  -176.560888
	   86 D(5,12,24,21)   =     54.542521    -0.000000    -0.000182    54.542340
	   87 D(5,12,24,25)   =    -65.914022    -0.000000    -0.000189   -65.914211
	   88 D(5,12,24,26)   =    179.022151    -0.000000    -0.000192   179.021959
	   89 D(6,5,12,13)    =    -62.678503    -0.000000     0.000203   -62.678300
	   90 D(6,5,12,14)    =     53.014928    -0.000000     0.000203    53.015131
	   91 D(6,5,12,24)    =    173.981790     0.000000     0.000298   173.982087
	   92 D(7,5,12,13)    =    177.374573    -0.000000     0.000206   177.374779
	   93 D(7,5,12,14)    =    -66.931996    -0.000000     0.000205   -66.931791
	   94 D(7,5,12,24)    =     54.034866     0.000000     0.000300    54.035166
	   95 D(8,5,12,13)    =     57.431122    -0.000000     0.000187    57.431308
	   96 D(8,5,12,14)    =    173.124553    -0.000000     0.000186   173.124739
	   97 D(8,5,12,24)    =    -65.908585     0.000000     0.000281   -65.908305
	   98 D(9,15,18,19)   =    178.227261    -0.000000    -0.000086   178.227176
	   99 D(9,15,18,20)   =     64.249576    -0.000000    -0.000140    64.249436
	  100 D(9,15,18,21)   =    -60.426115    -0.000000    -0.000110   -60.426225
	  101 D(10,9,15,16)   =     93.835752    -0.000000     0.000138    93.835890
	  102 D(10,9,15,17)   =    -21.502460     0.000000     0.000167   -21.502293
	  103 D(10,9,15,18)   =   -142.886990     0.000000     0.000125  -142.886864
	  104 D(11,9,15,16)   =   -150.437975    -0.000000     0.000138  -150.437837
	  105 D(11,9,15,17)   =     94.223813     0.000000     0.000168    94.223981
	  106 D(11,9,15,18)   =    -27.160717    -0.000000     0.000126   -27.160591
	  107 D(12,24,21,18)  =     55.519089    -0.000000     0.000072    55.519161
	  108 D(12,24,21,22)  =    -66.234256    -0.000000     0.000033   -66.234222
	  109 D(12,24,21,23)  =    179.537880    -0.000000     0.000049   179.537929
	  110 D(13,12,24,21)  =    -68.515486     0.000000    -0.000098   -68.515584
	  111 D(13,12,24,25)  =    171.027971     0.000000    -0.000105   171.027865
	  112 D(13,12,24,26)  =     55.964144    -0.000000    -0.000108    55.964036
	  113 D(14,12,24,21)  =    176.104136    -0.000000    -0.000100   176.104036
	  114 D(14,12,24,25)  =     55.647593     0.000000    -0.000108    55.647486
	  115 D(14,12,24,26)  =    -59.416234    -0.000000    -0.000110   -59.416344
	  116 D(15,18,21,22)  =   -154.113702     0.000000     0.000069  -154.113632
	  117 D(15,18,21,23)  =    -39.617975     0.000000     0.000044   -39.617930
	  118 D(15,18,21,24)  =     84.446290     0.000000     0.000001    84.446291
	  119 D(16,15,18,19)  =    -58.572067    -0.000000    -0.000110   -58.572177
	  120 D(16,15,18,20)  =   -172.549753    -0.000000    -0.000164  -172.549917
	  121 D(16,15,18,21)  =     62.774556    -0.000000    -0.000134    62.774422
	  122 D(17,15,18,19)  =     55.784871     0.000000    -0.000108    55.784763
	  123 D(17,15,18,20)  =    -58.192814    -0.000000    -0.000162   -58.192976
	  124 D(17,15,18,21)  =    177.131495    -0.000000    -0.000132   177.131363
	  125 D(18,21,24,25)  =    176.253998    -0.000000     0.000101   176.254099
	  126 D(18,21,24,26)  =    -67.932915    -0.000000     0.000075   -67.932840
	  127 D(19,18,21,22)  =    -33.205556     0.000000     0.000037   -33.205519
	  128 D(19,18,21,23)  =     81.290171    -0.000000     0.000012    81.290183
	  129 D(19,18,21,24)  =   -154.645564    -0.000000    -0.000032  -154.645595
	  130 D(20,18,21,22)  =     81.593330     0.000000     0.000080    81.593410
	  131 D(20,18,21,23)  =   -163.910943    -0.000000     0.000054  -163.910888
	  132 D(20,18,21,24)  =    -39.846678    -0.000000     0.000011   -39.846667
	  133 D(22,21,24,25)  =     54.500653     0.000000     0.000062    54.500716
	  134 D(22,21,24,26)  =    170.313740    -0.000000     0.000036   170.313776
	  135 D(23,21,24,25)  =    -59.727212     0.000000     0.000078   -59.727133
	  136 D(23,21,24,26)  =     56.085875     0.000000     0.000052    56.085927
	  137 R(1,21)         =      3.509364     0.000001     0.000002     3.509366
	  138 R(1,24)         =      3.516909    -0.000000     0.000001     3.516910
	  139 R(5,18)         =      3.604437     0.000001    -0.000000     3.604437
	  140 R(9,24)         =      3.368332    -0.000001    -0.000001     3.368331
	 ---------------------------------------------------------------------------

  ==> Convergence Check <==

  Measures of convergence in internal coordinates in au.
  Criteria marked as inactive (o), active & met (*), and active & unmet ( ).
  ---------------------------------------------------------------------------------------------
   Step     Total Energy     Delta E     MAX Force     RMS Force      MAX Disp      RMS Disp   
  ---------------------------------------------------------------------------------------------
    Convergence Criteria             o    2.00e-06 *    1.00e-06 *    6.00e-06 *    4.00e-06 *
  ---------------------------------------------------------------------------------------------
     22    -314.97675696   -8.13e-09 o    6.06e-07 *    1.12e-07 *    5.50e-06 *    2.03e-06 *  ~
  ---------------------------------------------------------------------------------------------


  **** Optimization is complete! (in 22 steps) ****

  ==> Optimization Summary <==

  Measures of convergence in internal coordinates in au.
  --------------------------------------------------------------------------------------------------------------- ~
   Step         Total Energy             Delta E       MAX Force       RMS Force        MAX Disp        RMS Disp  ~
  --------------------------------------------------------------------------------------------------------------- ~
      1    -314.976756961806   -314.976756961806      0.00000168      0.00000030      0.00005205      0.00001851  ~
      2    -314.976756960509      0.000000001297      0.00000154      0.00000033      0.00005258      0.00002011  ~
      3    -314.976756963003     -0.000000002494      0.00000116      0.00000030      0.00005972      0.00001912  ~
      4    -314.976756962375      0.000000000628      0.00000183      0.00000031      0.00004672      0.00001873  ~
      5    -314.976756959757      0.000000002618      0.00000186      0.00000040      0.00003853      0.00001163  ~
      6    -314.976756960127     -0.000000000370      0.00000124      0.00000029      0.00003628      0.00001003  ~
      7    -314.976756966525     -0.000000006398      0.00000136      0.00000033      0.00006899      0.00001816  ~
      8    -314.976756966309      0.000000000216      0.00000245      0.00000047      0.00004682      0.00001749  ~
      9    -314.976756961971      0.000000004338      0.00000061      0.00000015      0.00002180      0.00000663  ~
     10    -314.976756961564      0.000000000407      0.00000124      0.00000030      0.00002501      0.00001025  ~
     11    -314.976756959566      0.000000001998      0.00000082      0.00000020      0.00008920      0.00003225  ~
     12    -314.976756962282     -0.000000002716      0.00000403      0.00000075      0.00009857      0.00002942  ~
     13    -314.976756961328      0.000000000954      0.00000218      0.00000051      0.00001933      0.00000625  ~
     14    -314.976756965034     -0.000000003706      0.00000096      0.00000019      0.00002689      0.00000840  ~
     15    -314.976756962251      0.000000002783      0.00000068      0.00000017      0.00003375      0.00000831  ~
     16    -314.976756960059      0.000000002192      0.00000264      0.00000050      0.00023777      0.00008638  ~
     17    -314.976756960769     -0.000000000710      0.00000981      0.00000213      0.00023258      0.00008359  ~
     18    -314.976756962034     -0.000000001265      0.00000268      0.00000047      0.00073146      0.00023151  ~
     19    -314.976756948003      0.000000014031      0.00002543      0.00000534      0.00072551      0.00023108  ~
     20    -314.976756959375     -0.000000011372      0.00000245      0.00000054      0.00008195      0.00003238  ~
     21    -314.976756956532      0.000000002843      0.00000502      0.00000086      0.00009114      0.00003433  ~
     22    -314.976756964664     -0.000000008132      0.00000061      0.00000011      0.00000550      0.00000203  ~
  --------------------------------------------------------------------------------------------------------------- ~

	Writing optimization data to binary file.
	Final energy is   -314.9767569646640
	Final (previous) structure:
	Cartesian Geometry (in Angstrom)
	    C    -2.5315682096  -1.2123820415   0.2857835867
	    H    -3.4620182434  -0.8474817955   0.7229257556
	    H    -1.8046596393  -1.2990699268   1.0922449935
	    H    -2.7171982226  -2.2114699634  -0.1095196178
	    C     3.1380981762   0.1357607409  -0.2966368181
	    H     3.8707487289   0.0907821031  -1.1020610583
	    H     3.6360571488  -0.1639727063   0.6273034082
	    H     2.8317915064   1.1759128331  -0.1863547924
	    C    -2.0570643850  -0.2557291351  -0.8050554273
	    H    -2.8514400102  -0.1685085743  -1.5489884053
	    H    -1.1962982454  -0.6748368899  -1.3320121898
	    C     1.9462501088  -0.7697022189  -0.5858477714
	    H     1.4356296765  -0.4241801585  -1.4876671226
	    H     2.3032748025  -1.7773427020  -0.8104329593
	    C    -1.7041773453   1.1410953769  -0.2724333590
	    H    -2.2846361786   1.3290863145   0.6367659828
	    H    -2.0246995525   1.8940974448  -0.9962275413
	    C    -0.2240816254   1.3953121549   0.0215537376
	    H    -0.1332058075   2.4313578813   0.3583612898
	    H     0.3376809635   1.3377393772  -0.9147706461
	    C     0.4328303509   0.4930428312   1.0728695352
	    H     1.2741608843   1.0338609718   1.5124838720
	    H    -0.2713198411   0.3272590457   1.8937843638
	    C     0.9555712102  -0.8592787355   0.5753118483
	    H     1.4521301645  -1.3564672712   1.4145167458
	    H     0.1295897537  -1.5078469255   0.2826888897
	Saving final (previous) structure.
			--------------------------
			 OPTKING Finished Execution 
			--------------------------

    Final optimized geometry and variables:
    Molecular point group: c1
    Full point group: C1

    Geometry (in Angstrom), charge = 0, multiplicity = 1:

    C           -2.531568209596    -1.212382041488     0.285783586709
    H           -3.462018243404    -0.847481795469     0.722925755641
    H           -1.804659639270    -1.299069926839     1.092244993497
    H           -2.717198222587    -2.211469963383    -0.109519617763
    C            3.138098176233     0.135760740885    -0.296636818088
    H            3.870748728909     0.090782103109    -1.102061058334
    H            3.636057148817    -0.163972706260     0.627303408151
    H            2.831791506440     1.175912833104    -0.186354792416
    C           -2.057064385028    -0.255729135062    -0.805055427309
    H           -2.851440010198    -0.168508574276    -1.548988405340
    H           -1.196298245436    -0.674836889860    -1.332012189831
    C            1.946250108803    -0.769702218924    -0.585847771413
    H            1.435629676470    -0.424180158481    -1.487667122610
    H            2.303274802453    -1.777342701979    -0.810432959284
    C           -1.704177345299     1.141095376933    -0.272433358979
    H           -2.284636178594     1.329086314472     0.636765982833
    H           -2.024699552503     1.894097444848    -0.996227541269
    C           -0.224081625430     1.395312154912     0.021553737575
    H           -0.133205807539     2.431357881326     0.358361289802
    H            0.337680963453     1.337739377236    -0.914770646146
    C            0.432830350942     0.493042831235     1.072869535222
    H            1.274160884301     1.033860971830     1.512483871956
    H           -0.271319841105     0.327259045703     1.893784363797
    C            0.955571210170    -0.859278735487     0.575311848321
    H            1.452130164453    -1.356467271235     1.414516745845
    H            0.129589753725    -1.507846925521     0.282688889732

	Cleaning optimization helper files.

*** Psi4 exiting successfully. Buy a developer a beer!
