    -----------------------------------------------------------------------
          Psi4: An Open-Source Ab Initio Electronic Structure Package
                              Psi4 1.0.0 Driver

                          Git: Rev {master} 6a9a71b dirty

    J. M. Turney, A. C. Simmonett, R. M. Parrish, E. G. Hohenstein,
    F. A. Evangelista, J. T. Fermann, B. J. Mintz, L. A. Burns, J. J. Wilke,
    M. L. Abrams, N. J. Russ, M. L. Leininger, C. L. Janssen, E. T. Seidl,
    W. D. Allen, H. F. Schaefer, R. A. King, E. F. Valeev, C. D. Sherrill,
    and T. D. Crawford, WIREs Comput. Mol. Sci. 2, 556-565 (2012)
    (doi: 10.1002/wcms.93)

                         Additional Contributions by
    A. E. DePrince, U. Bozkaya, A. Yu. Sokolov, D. G. A. Smith, R. Di Remigio,
    R. M. Richard, J. F. Gonthier, H. R. McAlexander, M. Saitow, and
    B. P. Pritchard
    -----------------------------------------------------------------------


    Psi4 started on: Tue Sep 20 23:52:02 2016

    Process ID:  24734
    PSI4DATADIR: /usr/local/hpc5/psi4conda/share/psi4
    Memory level set to 256.000 MB

  ==> Input File <==

--------------------------------------------------------------------------
memory 60 Gb

molecule molecule_64_psi {
0 1
C           -3.564825426890    -0.271892845050     0.577122390791
H           -4.004651218439     0.358323744486    -0.197859650679
H           -3.261661849944     0.374107403250     1.400085954013
H           -4.343757833814    -0.936787883032     0.949484293142
C            3.443242833029    -1.085478431749     0.024296781114
H            3.613755274437    -1.047942179441     1.101070879176
H            4.221753101802    -0.490970821761    -0.455422854035
H            3.563059295592    -2.119440846417    -0.298233049427
C           -2.385121899052    -1.062363748907     0.020737418009
H           -2.748650410812    -1.774901311985    -0.723097271454
H           -1.930890363120    -1.654046951024     0.820822800777
C            2.060736350972    -0.544400410413    -0.320566515121
H            1.898245403189    -0.604443450758    -1.400425187404
H            1.299170153276    -1.173490502973     0.145968589605
C           -1.312891068873    -0.181856574140    -0.615781518301
H           -1.753494714167     0.383559497835    -1.443672158052
H           -0.540793187792    -0.816284649824    -1.054930853071
C           -0.669974702580     0.803251397425     0.358906112468
H           -0.369784734196     0.270246621354     1.268469185331
H           -1.420692654486     1.532473365745     0.668060436573
C            0.546365572855     1.536251689509    -0.225187981734
H            0.448096995194     1.583944767942    -1.314430774256
H            0.557353062864     2.570090995205     0.126406517950
C            1.887679131205     0.899256691027     0.136387045624
H            2.696171266253     1.500490835558    -0.290732067274
H            2.014728422377     0.940501448431     1.223362839356
}

set globals {
  reference rhf
  g_convergence gau_verytight
  basis aug-cc-pvtz
  freeze_core true
  scf_type df
  mp_type df
}
optimize('mp2')
--------------------------------------------------------------------------
/usr/local/hpc5/psi4conda/lib/python2.7/site-packages/v2rdm_casscf/v2rdm_casscf.so loaded.

  Memory set to  60.000 GiB by Python script.
gradient() will perform analytic gradient computation.

*** tstart() called on wr40
*** at Tue Sep 20 23:52:03 2016


         ---------------------------------------------------------
                                   SCF
            by Justin Turney, Rob Parrish, and Andy Simmonett
                              RHF Reference
                       12 Threads,  60000 MiB Core
         ---------------------------------------------------------

  ==> Geometry <==

    Molecular point group: c1
    Full point group: C1

    Geometry (in Angstrom), charge = 0, multiplicity = 1:

       Center              X                  Y                   Z               Mass       
    ------------   -----------------  -----------------  -----------------  -----------------
           C         -3.564825426890    -0.271892845050     0.577122390791    12.000000000000
           H         -4.004651218439     0.358323744486    -0.197859650679     1.007825032070
           H         -3.261661849944     0.374107403250     1.400085954013     1.007825032070
           H         -4.343757833814    -0.936787883032     0.949484293142     1.007825032070
           C          3.443242833029    -1.085478431749     0.024296781114    12.000000000000
           H          3.613755274437    -1.047942179441     1.101070879176     1.007825032070
           H          4.221753101802    -0.490970821761    -0.455422854035     1.007825032070
           H          3.563059295592    -2.119440846417    -0.298233049427     1.007825032070
           C         -2.385121899052    -1.062363748907     0.020737418009    12.000000000000
           H         -2.748650410812    -1.774901311985    -0.723097271454     1.007825032070
           H         -1.930890363120    -1.654046951024     0.820822800777     1.007825032070
           C          2.060736350972    -0.544400410413    -0.320566515121    12.000000000000
           H          1.898245403189    -0.604443450758    -1.400425187404     1.007825032070
           H          1.299170153276    -1.173490502973     0.145968589605     1.007825032070
           C         -1.312891068873    -0.181856574140    -0.615781518301    12.000000000000
           H         -1.753494714167     0.383559497835    -1.443672158052     1.007825032070
           H         -0.540793187792    -0.816284649824    -1.054930853071     1.007825032070
           C         -0.669974702580     0.803251397425     0.358906112468    12.000000000000
           H         -0.369784734196     0.270246621354     1.268469185331     1.007825032070
           H         -1.420692654486     1.532473365745     0.668060436573     1.007825032070
           C          0.546365572855     1.536251689509    -0.225187981734    12.000000000000
           H          0.448096995194     1.583944767942    -1.314430774256     1.007825032070
           H          0.557353062864     2.570090995205     0.126406517950     1.007825032070
           C          1.887679131205     0.899256691027     0.136387045624    12.000000000000
           H          2.696171266253     1.500490835558    -0.290732067274     1.007825032070
           H          2.014728422377     0.940501448431     1.223362839356     1.007825032070

  Running in c1 symmetry.

  Rotational constants: A =      0.12453  B =      0.02638  C =      0.02339 [cm^-1]
  Rotational constants: A =   3733.42564  B =    790.92417  C =    701.26046 [MHz]
  Nuclear repulsion =  394.407800647712747

  Charge       = 0
  Multiplicity = 1
  Electrons    = 66
  Nalpha       = 33
  Nbeta        = 33

  ==> Algorithm <==

  SCF Algorithm Type is DF.
  DIIS enabled.
  MOM disabled.
  Fractional occupation disabled.
  Guess Type is SAD.
  Energy threshold   = 1.00e-10
  Density threshold  = 1.00e-10
  Integral threshold = 0.00e+00

  ==> Primary Basis <==

  Basis Set: AUG-CC-PVTZ
    Number of shells: 274
    Number of basis function: 782
    Number of Cartesian functions: 890
    Spherical Harmonics?: true
    Max angular momentum: 3

  ==> Pre-Iterations <==

   -------------------------------------------------------
    Irrep   Nso     Nmo     Nalpha   Nbeta   Ndocc  Nsocc
   -------------------------------------------------------
     A        782     782       0       0       0       0
   -------------------------------------------------------
    Total     782     782      33      33      33       0
   -------------------------------------------------------

  ==> Integral Setup <==

  ==> DFJK: Density-Fitted J/K Matrices <==

    J tasked:                  Yes
    K tasked:                  Yes
    wK tasked:                  No
    OpenMP threads:             12
    Integrals threads:          12
    Memory (MB):             42915
    Algorithm:                Core
    Integral Cache:           NONE
    Schwarz Cutoff:          1E-12
    Fitting Condition:       1E-12

   => Auxiliary Basis Set <=

  Basis Set: 
    Number of shells: 492
    Number of basis function: 1660
    Number of Cartesian functions: 2038
    Spherical Harmonics?: true
    Max angular momentum: 4

  Minimum eigenvalue in the overlap matrix is 1.8879131001E-06.
  Using Symmetric Orthogonalization.
  SCF Guess: Superposition of Atomic Densities via on-the-fly atomic UHF.

  ==> Iterations <==

                           Total Energy        Delta E     RMS |[F,P]|

   @DF-RHF iter   0:  -316.87801983924101   -3.16878e+02   6.98543e-03 
   @DF-RHF iter   1:  -313.30279209124933    3.57523e+00   6.86389e-04 
   @DF-RHF iter   2:  -313.50717319909211   -2.04381e-01   2.47651e-04 DIIS
   @DF-RHF iter   3:  -313.53358378830706   -2.64106e-02   1.01515e-04 DIIS
   @DF-RHF iter   4:  -313.53866242039840   -5.07863e-03   1.55384e-05 DIIS
   @DF-RHF iter   5:  -313.53880930720868   -1.46887e-04   5.10886e-06 DIIS
   @DF-RHF iter   6:  -313.53882235613196   -1.30489e-05   1.10966e-06 DIIS
   @DF-RHF iter   7:  -313.53882307652646   -7.20394e-07   2.05553e-07 DIIS
   @DF-RHF iter   8:  -313.53882310400036   -2.74739e-08   6.29248e-08 DIIS
   @DF-RHF iter   9:  -313.53882310573920   -1.73884e-09   1.56187e-08 DIIS
   @DF-RHF iter  10:  -313.53882310589836   -1.59162e-10   3.55548e-09 DIIS
   @DF-RHF iter  11:  -313.53882310590848   -1.01181e-11   9.91465e-10 DIIS
   @DF-RHF iter  12:  -313.53882310590836    1.13687e-13   2.76411e-10 DIIS
   @DF-RHF iter  13:  -313.53882310590882   -4.54747e-13   6.31713e-11 DIIS

  ==> Post-Iterations <==

    Orbital Energies (a.u.)
    -----------------------

    Doubly Occupied:                                                      

       1A    -11.212535     2A    -11.212515     3A    -11.210999  
       4A    -11.210369     5A    -11.209630     6A    -11.208900  
       7A    -11.207245     8A    -11.206357     9A     -1.093740  
      10A     -1.059866    11A     -1.008527    12A     -0.946648  
      13A     -0.884999    14A     -0.830300    15A     -0.779003  
      16A     -0.767641    17A     -0.644215    18A     -0.628760  
      19A     -0.607483    20A     -0.594080    21A     -0.579716  
      22A     -0.561617    23A     -0.548073    24A     -0.525412  
      25A     -0.516331    26A     -0.498113    27A     -0.488239  
      28A     -0.479705    29A     -0.464206    30A     -0.460356  
      31A     -0.451573    32A     -0.435601    33A     -0.431672  

    Virtual:                                                              

      34A      0.029962    35A      0.032870    36A      0.033489  
      37A      0.035053    38A      0.046910    39A      0.047573  
      40A      0.050254    41A      0.054276    42A      0.055406  
      43A      0.064975    44A      0.067650    45A      0.070943  
      46A      0.073830    47A      0.076369    48A      0.083793  
      49A      0.093433    50A      0.094756    51A      0.104135  
      52A      0.112244    53A      0.114753    54A      0.118610  
      55A      0.122678    56A      0.128415    57A      0.130505  
      58A      0.134837    59A      0.136445    60A      0.142366  
      61A      0.146933    62A      0.150889    63A      0.154302  
      64A      0.155247    65A      0.158235    66A      0.158867  
      67A      0.165242    68A      0.166574    69A      0.170245  
      70A      0.171740    71A      0.176137    72A      0.180031  
      73A      0.184599    74A      0.190654    75A      0.195288  
      76A      0.197543    77A      0.217119    78A      0.223603  
      79A      0.225528    80A      0.240354    81A      0.243732  
      82A      0.247510    83A      0.253473    84A      0.256872  
      85A      0.267097    86A      0.272684    87A      0.275123  
      88A      0.278412    89A      0.283310    90A      0.285889  
      91A      0.300929    92A      0.301951    93A      0.313440  
      94A      0.315704    95A      0.316703    96A      0.323099  
      97A      0.326349    98A      0.330055    99A      0.332557  
     100A      0.338053   101A      0.339915   102A      0.344937  
     103A      0.348644   104A      0.351808   105A      0.355059  
     106A      0.358162   107A      0.362028   108A      0.365807  
     109A      0.366659   110A      0.368435   111A      0.371229  
     112A      0.378318   113A      0.379812   114A      0.386503  
     115A      0.387984   116A      0.389570   117A      0.392192  
     118A      0.395947   119A      0.402989   120A      0.409788  
     121A      0.411670   122A      0.417939   123A      0.425597  
     124A      0.428082   125A      0.430967   126A      0.438905  
     127A      0.442409   128A      0.445092   129A      0.448497  
     130A      0.452466   131A      0.454537   132A      0.459551  
     133A      0.465166   134A      0.466203   135A      0.467473  
     136A      0.471160   137A      0.476501   138A      0.481332  
     139A      0.487481   140A      0.489218   141A      0.490393  
     142A      0.494809   143A      0.498160   144A      0.502949  
     145A      0.504117   146A      0.509137   147A      0.512505  
     148A      0.514415   149A      0.518556   150A      0.521391  
     151A      0.531034   152A      0.535919   153A      0.539285  
     154A      0.540713   155A      0.543521   156A      0.551747  
     157A      0.556387   158A      0.559022   159A      0.562865  
     160A      0.571326   161A      0.571396   162A      0.575722  
     163A      0.581700   164A      0.585313   165A      0.587799  
     166A      0.596868   167A      0.599021   168A      0.602005  
     169A      0.612942   170A      0.616071   171A      0.617559  
     172A      0.624359   173A      0.631304   174A      0.639537  
     175A      0.641448   176A      0.644878   177A      0.646976  
     178A      0.651515   179A      0.659629   180A      0.662448  
     181A      0.667770   182A      0.677080   183A      0.680338  
     184A      0.683400   185A      0.686901   186A      0.694909  
     187A      0.703024   188A      0.708851   189A      0.715146  
     190A      0.718060   191A      0.724543   192A      0.730594  
     193A      0.734592   194A      0.746418   195A      0.748489  
     196A      0.756007   197A      0.765612   198A      0.774002  
     199A      0.778451   200A      0.793673   201A      0.798286  
     202A      0.805365   203A      0.822947   204A      0.828566  
     205A      0.833495   206A      0.837580   207A      0.846334  
     208A      0.847314   209A      0.856474   210A      0.862100  
     211A      0.867284   212A      0.872037   213A      0.876154  
     214A      0.880447   215A      0.891740   216A      0.895630  
     217A      0.898846   218A      0.906584   219A      0.910081  
     220A      0.913975   221A      0.919554   222A      0.920859  
     223A      0.928217   224A      0.933554   225A      0.936980  
     226A      0.938410   227A      0.944079   228A      0.946961  
     229A      0.951049   230A      0.960060   231A      0.961382  
     232A      0.969398   233A      0.975396   234A      0.979187  
     235A      0.982725   236A      0.988195   237A      0.993528  
     238A      0.996288   239A      0.998391   240A      1.006347  
     241A      1.009716   242A      1.019811   243A      1.023471  
     244A      1.025781   245A      1.031026   246A      1.035477  
     247A      1.040394   248A      1.046390   249A      1.053297  
     250A      1.056981   251A      1.066413   252A      1.070940  
     253A      1.080004   254A      1.087626   255A      1.092201  
     256A      1.094433   257A      1.097179   258A      1.100114  
     259A      1.102641   260A      1.109458   261A      1.117853  
     262A      1.123893   263A      1.126072   264A      1.132527  
     265A      1.140177   266A      1.141790   267A      1.145509  
     268A      1.150507   269A      1.162102   270A      1.167672  
     271A      1.175075   272A      1.177773   273A      1.183627  
     274A      1.188985   275A      1.192896   276A      1.199217  
     277A      1.203223   278A      1.206936   279A      1.210819  
     280A      1.220854   281A      1.223832   282A      1.230330  
     283A      1.235026   284A      1.240598   285A      1.245088  
     286A      1.253721   287A      1.254385   288A      1.259221  
     289A      1.263793   290A      1.268522   291A      1.274234  
     292A      1.277002   293A      1.286625   294A      1.289355  
     295A      1.299729   296A      1.305284   297A      1.309763  
     298A      1.320485   299A      1.327563   300A      1.332110  
     301A      1.334818   302A      1.341501   303A      1.355221  
     304A      1.359757   305A      1.363476   306A      1.372317  
     307A      1.381983   308A      1.383686   309A      1.394119  
     310A      1.398491   311A      1.409778   312A      1.411254  
     313A      1.420537   314A      1.423140   315A      1.429851  
     316A      1.434601   317A      1.444245   318A      1.456591  
     319A      1.464429   320A      1.471496   321A      1.476259  
     322A      1.480255   323A      1.487200   324A      1.492036  
     325A      1.503474   326A      1.505619   327A      1.525713  
     328A      1.528683   329A      1.543630   330A      1.544743  
     331A      1.555424   332A      1.562540   333A      1.571042  
     334A      1.576002   335A      1.582156   336A      1.591378  
     337A      1.601569   338A      1.605253   339A      1.615394  
     340A      1.620533   341A      1.632194   342A      1.635707  
     343A      1.647591   344A      1.654691   345A      1.659269  
     346A      1.662735   347A      1.673970   348A      1.678210  
     349A      1.693929   350A      1.695092   351A      1.697472  
     352A      1.702866   353A      1.705836   354A      1.710688  
     355A      1.717294   356A      1.722096   357A      1.726215  
     358A      1.728451   359A      1.735805   360A      1.742334  
     361A      1.745936   362A      1.758179   363A      1.761911  
     364A      1.763689   365A      1.768727   366A      1.771283  
     367A      1.780363   368A      1.786830   369A      1.797275  
     370A      1.801433   371A      1.813741   372A      1.814771  
     373A      1.819441   374A      1.827044   375A      1.835165  
     376A      1.840216   377A      1.841363   378A      1.849575  
     379A      1.854990   380A      1.860994   381A      1.875858  
     382A      1.878566   383A      1.882929   384A      1.891208  
     385A      1.896300   386A      1.900505   387A      1.906027  
     388A      1.914719   389A      1.918757   390A      1.922464  
     391A      1.928363   392A      1.946144   393A      1.950757  
     394A      1.955851   395A      1.963063   396A      1.967552  
     397A      1.975241   398A      1.978960   399A      1.983757  
     400A      1.999770   401A      2.005352   402A      2.010696  
     403A      2.017573   404A      2.020581   405A      2.035019  
     406A      2.040294   407A      2.050045   408A      2.055978  
     409A      2.060157   410A      2.067616   411A      2.071516  
     412A      2.072503   413A      2.082921   414A      2.092086  
     415A      2.110985   416A      2.114736   417A      2.119430  
     418A      2.124211   419A      2.126398   420A      2.131217  
     421A      2.140842   422A      2.150312   423A      2.157855  
     424A      2.165532   425A      2.175682   426A      2.187982  
     427A      2.190391   428A      2.199341   429A      2.213928  
     430A      2.231380   431A      2.237275   432A      2.245826  
     433A      2.246907   434A      2.264475   435A      2.273224  
     436A      2.281700   437A      2.285929   438A      2.290587  
     439A      2.294384   440A      2.298241   441A      2.318336  
     442A      2.322864   443A      2.339236   444A      2.341305  
     445A      2.350947   446A      2.359927   447A      2.363741  
     448A      2.370640   449A      2.388349   450A      2.391240  
     451A      2.401834   452A      2.410770   453A      2.420383  
     454A      2.423917   455A      2.432207   456A      2.442347  
     457A      2.462997   458A      2.468860   459A      2.478683  
     460A      2.487347   461A      2.506918   462A      2.511810  
     463A      2.520825   464A      2.530426   465A      2.540445  
     466A      2.554397   467A      2.566956   468A      2.585778  
     469A      2.605767   470A      2.612538   471A      2.635567  
     472A      2.637578   473A      2.650622   474A      2.666773  
     475A      2.675067   476A      2.690642   477A      2.722922  
     478A      2.735468   479A      2.752387   480A      2.762137  
     481A      2.784123   482A      2.797134   483A      2.817984  
     484A      2.832939   485A      2.898886   486A      2.955545  
     487A      3.001246   488A      3.012017   489A      3.091814  
     490A      3.123848   491A      3.190745   492A      3.224299  
     493A      3.292499   494A      3.318955   495A      3.348583  
     496A      3.419001   497A      3.426998   498A      3.461591  
     499A      3.471245   500A      3.481444   501A      3.491365  
     502A      3.498881   503A      3.506606   504A      3.522926  
     505A      3.531415   506A      3.549605   507A      3.561711  
     508A      3.564780   509A      3.589842   510A      3.596981  
     511A      3.603085   512A      3.614155   513A      3.623059  
     514A      3.638963   515A      3.645789   516A      3.662324  
     517A      3.664704   518A      3.672367   519A      3.687007  
     520A      3.696846   521A      3.700860   522A      3.706473  
     523A      3.714360   524A      3.724959   525A      3.734510  
     526A      3.752420   527A      3.762513   528A      3.771411  
     529A      3.780670   530A      3.790587   531A      3.797865  
     532A      3.810217   533A      3.818130   534A      3.821619  
     535A      3.824629   536A      3.833822   537A      3.837598  
     538A      3.848683   539A      3.856226   540A      3.862938  
     541A      3.869413   542A      3.883960   543A      3.889325  
     544A      3.895506   545A      3.903140   546A      3.912490  
     547A      3.924615   548A      3.930199   549A      3.941581  
     550A      3.951603   551A      3.954369   552A      3.963434  
     553A      3.972619   554A      3.976997   555A      3.981256  
     556A      3.991942   557A      4.001656   558A      4.004705  
     559A      4.010921   560A      4.019155   561A      4.029115  
     562A      4.029720   563A      4.041390   564A      4.045750  
     565A      4.054069   566A      4.058714   567A      4.070839  
     568A      4.079512   569A      4.081216   570A      4.094212  
     571A      4.101006   572A      4.106121   573A      4.117107  
     574A      4.130635   575A      4.137799   576A      4.141751  
     577A      4.147849   578A      4.155246   579A      4.163801  
     580A      4.172467   581A      4.179565   582A      4.201799  
     583A      4.202787   584A      4.210928   585A      4.219856  
     586A      4.232519   587A      4.245455   588A      4.254206  
     589A      4.270574   590A      4.285430   591A      4.289379  
     592A      4.300490   593A      4.305356   594A      4.309794  
     595A      4.320062   596A      4.329933   597A      4.346759  
     598A      4.351703   599A      4.357510   600A      4.375942  
     601A      4.380724   602A      4.389226   603A      4.401072  
     604A      4.419959   605A      4.425881   606A      4.432854  
     607A      4.442607   608A      4.458838   609A      4.465768  
     610A      4.486355   611A      4.516467   612A      4.520176  
     613A      4.526231   614A      4.543690   615A      4.559686  
     616A      4.569699   617A      4.587702   618A      4.604185  
     619A      4.614520   620A      4.619493   621A      4.631243  
     622A      4.652519   623A      4.660025   624A      4.668392  
     625A      4.678478   626A      4.699562   627A      4.703154  
     628A      4.711243   629A      4.730888   630A      4.737446  
     631A      4.743389   632A      4.748652   633A      4.757559  
     634A      4.774549   635A      4.784243   636A      4.791717  
     637A      4.800304   638A      4.817681   639A      4.831156  
     640A      4.849029   641A      4.854545   642A      4.859898  
     643A      4.873399   644A      4.880327   645A      4.884548  
     646A      4.895879   647A      4.909866   648A      4.911682  
     649A      4.918004   650A      4.929802   651A      4.954068  
     652A      4.965192   653A      4.970481   654A      4.983587  
     655A      4.997031   656A      5.010537   657A      5.021666  
     658A      5.037849   659A      5.040819   660A      5.058755  
     661A      5.074677   662A      5.087205   663A      5.099275  
     664A      5.111466   665A      5.134392   666A      5.138841  
     667A      5.156973   668A      5.172852   669A      5.181332  
     670A      5.186049   671A      5.199377   672A      5.202365  
     673A      5.209845   674A      5.231928   675A      5.235574  
     676A      5.252577   677A      5.264748   678A      5.270454  
     679A      5.280331   680A      5.295883   681A      5.312442  
     682A      5.326679   683A      5.334510   684A      5.338220  
     685A      5.345413   686A      5.360124   687A      5.374720  
     688A      5.388023   689A      5.391425   690A      5.399240  
     691A      5.406678   692A      5.412679   693A      5.421215  
     694A      5.428159   695A      5.453720   696A      5.459431  
     697A      5.477208   698A      5.482940   699A      5.488766  
     700A      5.513199   701A      5.520109   702A      5.533493  
     703A      5.540636   704A      5.562580   705A      5.567054  
     706A      5.571540   707A      5.592990   708A      5.610144  
     709A      5.628036   710A      5.635990   711A      5.640366  
     712A      5.654276   713A      5.675997   714A      5.691113  
     715A      5.692941   716A      5.707336   717A      5.725010  
     718A      5.730412   719A      5.747241   720A      5.750185  
     721A      5.775608   722A      5.783365   723A      5.794078  
     724A      5.805520   725A      5.825401   726A      5.838010  
     727A      5.847844   728A      5.873328   729A      5.882201  
     730A      5.902791   731A      5.909495   732A      5.939362  
     733A      5.982154   734A      6.019650   735A      6.029577  
     736A      6.043696   737A      6.068439   738A      6.082797  
     739A      6.089681   740A      6.120750   741A      6.148010  
     742A      6.173197   743A      6.191906   744A      6.208632  
     745A      6.223434   746A      6.232835   747A      6.242679  
     748A      6.259289   749A      6.281459   750A      6.304280  
     751A      6.309398   752A      6.319750   753A      6.333522  
     754A      6.354545   755A      6.369520   756A      6.396346  
     757A      6.418963   758A      6.490007   759A      6.602525  
     760A      6.627036   761A      6.672914   762A      6.682145  
     763A      6.718737   764A      6.788619   765A      6.803176  
     766A      6.813525   767A      6.879749   768A      6.900890  
     769A      6.909430   770A      6.992662   771A      7.003823  
     772A      7.048696   773A      7.097953   774A      7.134216  
     775A     17.992052   776A     18.240471   777A     18.296482  
     778A     18.537569   779A     18.568375   780A     19.062932  
     781A     19.702731   782A     19.908266  

    Final Occupation by Irrep:
              A 
    DOCC [    33 ]

  Energy converged.

  @DF-RHF Final Energy:  -313.53882310590882

   => Energetics <=

    Nuclear Repulsion Energy =            394.4078006477127474
    One-Electron Energy =               -1203.9643935309668450
    Two-Electron Energy =                 496.0177697773453929
    DFT Exchange-Correlation Energy =       0.0000000000000000
    Empirical Dispersion Energy =           0.0000000000000000
    PCM Polarization Energy =               0.0000000000000000
    EFP Energy =                            0.0000000000000000
    Total Energy =                       -313.5388231059087047


  Saving occupied orbitals to File 180.

*** tstop() called on wr40 at Tue Sep 20 23:53:37 2016
Module time:
	user time   =     927.35 seconds =      15.46 minutes
	system time =      16.72 seconds =       0.28 minutes
	total time  =         94 seconds =       1.57 minutes
Total time:
	user time   =     927.35 seconds =      15.46 minutes
	system time =      16.72 seconds =       0.28 minutes
	total time  =         94 seconds =       1.57 minutes


Properties will be evaluated at   0.000000,   0.000000,   0.000000 Bohr

Properties computed using the SCF density matrix

  Nuclear Dipole Moment: (a.u.)
     X:    -0.0582      Y:    -1.0355      Z:     0.4921

  Electronic Dipole Moment: (a.u.)
     X:     0.0544      Y:     1.0350      Z:    -0.5083

  Dipole Moment: (a.u.)
     X:    -0.0038      Y:    -0.0005      Z:    -0.0162     Total:     0.0166

  Dipole Moment: (Debye)
     X:    -0.0097      Y:    -0.0012      Z:    -0.0411     Total:     0.0423


  //>>>>>>>>>>>>>>>>>>>>>>>>>>>>>>>>>>>//
  //               DFMP2               //
  //<<<<<<<<<<<<<<<<<<<<<<<<<<<<<<<<<<<//


*** tstart() called on wr40
*** at Tue Sep 20 23:53:38 2016


*** tstop() called on wr40 at Tue Sep 20 23:53:38 2016
Module time:
	user time   =       4.62 seconds =       0.08 minutes
	system time =       0.19 seconds =       0.00 minutes
	total time  =          0 seconds =       0.00 minutes
Total time:
	user time   =     932.13 seconds =      15.54 minutes
	system time =      16.91 seconds =       0.28 minutes
	total time  =         95 seconds =       1.58 minutes
	 --------------------------------------------------------
	                          DF-MP2                         
	      2nd-Order Density-Fitted Moller-Plesset Theory     
	              RMP2 Wavefunction,  12 Threads             
	                                                         
	        Rob Parrish, Justin Turney, Andy Simmonett,      
	           Ed Hohenstein, and C. David Sherrill          
	 --------------------------------------------------------

   => Auxiliary Basis Set <=

  Basis Set: 
    Number of shells: 476
    Number of basis function: 1676
    Number of Cartesian functions: 2078
    Spherical Harmonics?: true
    Max angular momentum: 4

	 --------------------------------------------------------
	                 NBF =   782, NAUX =  1676
	 --------------------------------------------------------
	   CLASS    FOCC     OCC    AOCC    AVIR     VIR    FVIR
	   PAIRS       8      33      25     749     749       0
	 --------------------------------------------------------

DGAS Warning! /src/lib/libfock/apps.cc:80 is not currently checking restricted

         ------------------------------------------------------------
                                     CPHF                           
                                  Rob Parrish                       
         ------------------------------------------------------------

  ==> Geometry <==

    Molecular point group: c1
    Full point group: C1

    Geometry (in Angstrom), charge = 0, multiplicity = 1:

       Center              X                  Y                   Z               Mass       
    ------------   -----------------  -----------------  -----------------  -----------------
           C         -3.564825426890    -0.271892845050     0.577122390791    12.000000000000
           H         -4.004651218439     0.358323744486    -0.197859650679     1.007825032070
           H         -3.261661849944     0.374107403250     1.400085954013     1.007825032070
           H         -4.343757833814    -0.936787883032     0.949484293142     1.007825032070
           C          3.443242833029    -1.085478431749     0.024296781114    12.000000000000
           H          3.613755274437    -1.047942179441     1.101070879176     1.007825032070
           H          4.221753101802    -0.490970821761    -0.455422854035     1.007825032070
           H          3.563059295592    -2.119440846417    -0.298233049427     1.007825032070
           C         -2.385121899052    -1.062363748907     0.020737418009    12.000000000000
           H         -2.748650410812    -1.774901311985    -0.723097271454     1.007825032070
           H         -1.930890363120    -1.654046951024     0.820822800777     1.007825032070
           C          2.060736350972    -0.544400410413    -0.320566515121    12.000000000000
           H          1.898245403189    -0.604443450758    -1.400425187404     1.007825032070
           H          1.299170153276    -1.173490502973     0.145968589605     1.007825032070
           C         -1.312891068873    -0.181856574140    -0.615781518301    12.000000000000
           H         -1.753494714167     0.383559497835    -1.443672158052     1.007825032070
           H         -0.540793187792    -0.816284649824    -1.054930853071     1.007825032070
           C         -0.669974702580     0.803251397425     0.358906112468    12.000000000000
           H         -0.369784734196     0.270246621354     1.268469185331     1.007825032070
           H         -1.420692654486     1.532473365745     0.668060436573     1.007825032070
           C          0.546365572855     1.536251689509    -0.225187981734    12.000000000000
           H          0.448096995194     1.583944767942    -1.314430774256     1.007825032070
           H          0.557353062864     2.570090995205     0.126406517950     1.007825032070
           C          1.887679131205     0.899256691027     0.136387045624    12.000000000000
           H          2.696171266253     1.500490835558    -0.290732067274     1.007825032070
           H          2.014728422377     0.940501448431     1.223362839356     1.007825032070

  Nuclear repulsion =  394.407800647712634
  Reference energy  = -313.538823105908818

  ==> Basis Set <==

  Basis Set: AUG-CC-PVTZ
    Number of shells: 274
    Number of basis function: 782
    Number of Cartesian functions: 890
    Spherical Harmonics?: true
    Max angular momentum: 3

  ==> CGRSolver (by Rob Parrish) <==

   Number of roots    =         1
   Preconditioning    =    JACOBI
   Convergence cutoff =     1E-06
   Maximum iterations =       100

  ==> CPHFRHamiltonian (by Rob Parrish) <== 

  ==> DFJK: Density-Fitted J/K Matrices <==

    J tasked:                  Yes
    K tasked:                  Yes
    wK tasked:                  No
    OpenMP threads:             12
    Integrals threads:          12
    Memory (MB):             42915
    Algorithm:                Core
    Integral Cache:           NONE
    Schwarz Cutoff:          1E-12
    Fitting Condition:       1E-12

   => Auxiliary Basis Set <=

  Basis Set: 
    Number of shells: 492
    Number of basis function: 1660
    Number of Cartesian functions: 2038
    Spherical Harmonics?: true
    Max angular momentum: 4

  ==> CPHF Iterations <==

  => Iterations <=

             Iter  Converged  Remaining    Residual
  CGR           1          0          1   9.048E-02
  CGR           2          0          1   1.299E-02
  CGR           3          0          1   3.751E-03
  CGR           4          0          1   8.574E-04
  CGR           5          0          1   1.794E-04
  CGR           6          0          1   4.231E-05
  CGR           7          0          1   1.257E-05
  CGR           8          0          1   2.790E-06
  CGR           9          1          0   7.508E-07

    CGRSolver converged.

  ==> DFCorrGrad: Density-Fitted Correlated Gradients <==

    OpenMP threads:             12
    Integrals threads:          12
    Memory (MB):             42915
    Schwarz Cutoff:          0E+00
    Fitting Condition:       1E-12

   => Auxiliary Basis Set <=

  Basis Set: 
    Number of shells: 492
    Number of basis function: 1660
    Number of Cartesian functions: 2038
    Spherical Harmonics?: true
    Max angular momentum: 4

	-----------------------------------------------------------
	 ==================> DF-MP2 Energies <==================== 
	-----------------------------------------------------------
	 Reference Energy          =    -313.5388231059088184 [Eh]
	 Singles Energy            =      -0.0000000000000003 [Eh]
	 Same-Spin Energy          =      -0.3162995274927667 [Eh]
	 Opposite-Spin Energy      =      -1.1256153729551226 [Eh]
	 Correlation Energy        =      -1.4419149004478895 [Eh]
	 Total Energy              =    -314.9807380063567166 [Eh]
	-----------------------------------------------------------
	 ================> DF-SCS-MP2 Energies <================== 
	-----------------------------------------------------------
	 SCS Same-Spin Scale       =       0.3333333333333333 [-]
	 SCS Opposite-Spin Scale   =       1.2000000000000000 [-]
	 SCS Same-Spin Energy      =      -0.1054331758309222 [Eh]
	 SCS Opposite-Spin Energy  =      -1.3507384475461470 [Eh]
	 SCS Correlation Energy    =      -1.4561716233770694 [Eh]
	 SCS Total Energy          =    -314.9949947292859065 [Eh]
	-----------------------------------------------------------


  -Total Gradient:
     Atom            X                  Y                   Z
    ------   -----------------  -----------------  -----------------
       1       -0.000000723450     0.000000382485     0.000000404051
       2        0.000000385640    -0.000000565146     0.000000516317
       3       -0.000000189410    -0.000000575620    -0.000000624485
       4        0.000000483867     0.000000479548    -0.000000240371
       5        0.000000990416    -0.000000456925     0.000000073594
       6       -0.000000263897     0.000000010776    -0.000000986302
       7       -0.000000751191    -0.000000518094     0.000000409418
       8       -0.000000108223     0.000000943511     0.000000276686
       9       -0.000000099831    -0.000001333305    -0.000000050464
      10        0.000000457125     0.000000536606     0.000000583105
      11       -0.000000362798     0.000000620905    -0.000000770292
      12       -0.000001520858    -0.000000861094    -0.000000685734
      13        0.000000175405     0.000000360712     0.000001668295
      14        0.000001127720     0.000001092529    -0.000000491150
      15        0.000000009232    -0.000000177042    -0.000001421629
      16        0.000000480031    -0.000000552859     0.000000862628
      17       -0.000000746672     0.000001056307     0.000000717877
      18        0.000000251037     0.000000468034     0.000001465215
      19       -0.000000708719     0.000000809559    -0.000001424153
      20        0.000000918818    -0.000000664678    -0.000000189571
      21        0.000000242411     0.000000815221    -0.000001000260
      22        0.000000096194    -0.000000131745     0.000001738419
      23       -0.000000272044    -0.000001054175    -0.000000626338
      24        0.000001167848     0.000000176603     0.000000699323
      25       -0.000000751984    -0.000000647594     0.000000512243
      26       -0.000000286668    -0.000000214519    -0.000001416423


			-----------------------------------------
			 OPTKING 2.0: for geometry optimizations 
			  - R.A. King,  Bethel University        
			-----------------------------------------

	Internal coordinates to be generated automatically.
	Detected frag 1 with atoms:  1 2 3 4 5 6 7 8 9 10 11 12 13 14 15 16 17 18 19 20
	 21 22 23 24 25 26
	---Fragment 1 Bond Connectivity---
	 1 : 2 3 4 9
	 2 : 1
	 3 : 1
	 4 : 1
	 5 : 6 7 8 12
	 6 : 5
	 7 : 5
	 8 : 5
	 9 : 1 10 11 15
	 10 : 9
	 11 : 9
	 12 : 5 13 14 24
	 13 : 12
	 14 : 12
	 15 : 9 16 17 18
	 16 : 15
	 17 : 15
	 18 : 15 19 20 21
	 19 : 18
	 20 : 18
	 21 : 18 22 23 24
	 22 : 21
	 23 : 21
	 24 : 12 21 25 26
	 25 : 24
	 26 : 24

	---Fragment 1 Geometry and Gradient---
	 C          -6.7365437684       -0.5138030146        1.0906032638
	 H          -7.5676940606        0.6771337440       -0.3739005525
	 H          -6.1636476345        0.7069605364        2.6457790156
	 H          -8.2085126935       -1.7702725435        1.7942652815
	 C           6.5067859634       -2.0512569592        0.0459142622
	 H           6.8290077800       -1.9803237222        2.0807224145
	 H           7.9779571631       -0.9278003924       -0.8606244688
	 H           6.7332062639       -4.0051627546       -0.5635787872
	 C          -4.5072271828       -2.0075765389        0.0391880407
	 H          -5.1941965115       -3.3540773926       -1.3664558105
	 H          -3.6488539789       -3.1256957484        1.5511302971
	 C           3.8942273354       -1.0287676823       -0.6057829210
	 H           3.5871639450       -1.1422325847       -2.6464200738
	 H           2.4550757897       -2.2175756702        0.2758406584
	 C          -2.4810045625       -0.3436591206       -1.1636584273
	 H          -3.3136247852        0.7248224066       -2.7281450044
	 H          -1.0219510195       -1.5425544346       -1.9935304014
	 C          -1.2660687038        1.5179251570        0.6782342600
	 H          -0.6987918758        0.5106921027        2.3970593683
	 H          -2.6847200360        2.8959549672        1.2624512653
	 C           1.0324813011        2.9030949644       -0.4255436139
	 H           0.8467806019        2.9932218210       -2.4839141840
	 H           1.0532446481        4.8567681175        0.2388737003
	 C           3.5671965847        1.6993488692        0.2577341643
	 H           5.0950253006        2.8355167441       -0.5494039852
	 H           3.8072849504        1.7772901651        2.3118207275
	            -0.0000007235        0.0000003825        0.0000004041
	             0.0000003856       -0.0000005651        0.0000005163
	            -0.0000001894       -0.0000005756       -0.0000006245
	             0.0000004839        0.0000004795       -0.0000002404
	             0.0000009904       -0.0000004569        0.0000000736
	            -0.0000002639        0.0000000108       -0.0000009863
	            -0.0000007512       -0.0000005181        0.0000004094
	            -0.0000001082        0.0000009435        0.0000002767
	            -0.0000000998       -0.0000013333       -0.0000000505
	             0.0000004571        0.0000005366        0.0000005831
	            -0.0000003628        0.0000006209       -0.0000007703
	            -0.0000015209       -0.0000008611       -0.0000006857
	             0.0000001754        0.0000003607        0.0000016683
	             0.0000011277        0.0000010925       -0.0000004911
	             0.0000000092       -0.0000001770       -0.0000014216
	             0.0000004800       -0.0000005529        0.0000008626
	            -0.0000007467        0.0000010563        0.0000007179
	             0.0000002510        0.0000004680        0.0000014652
	            -0.0000007087        0.0000008096       -0.0000014242
	             0.0000009188       -0.0000006647       -0.0000001896
	             0.0000002424        0.0000008152       -0.0000010003
	             0.0000000962       -0.0000001317        0.0000017384
	            -0.0000002720       -0.0000010542       -0.0000006263
	             0.0000011678        0.0000001766        0.0000006993
	            -0.0000007520       -0.0000006476        0.0000005122
	            -0.0000002867       -0.0000002145       -0.0000014164

	Previous optimization step data not found.  Starting new optimization.

	---Fragment 1 Intrafragment Coordinates---
	 - Coordinate -           - BOHR/RAD -       - ANG/DEG -
	 R(1,2)           =         2.062502	       1.091429
	 R(1,3)           =         2.058408	       1.089263
	 R(1,4)           =         2.059259	       1.089713
	 R(1,9)           =         2.882132	       1.525159
	 R(5,6)           =         2.061384	       1.090837
	 R(5,7)           =         2.061143	       1.090710
	 R(5,8)           =         2.059246	       1.089706
	 R(5,12)          =         2.880218	       1.524146
	 R(9,10)          =         2.064177	       1.092315
	 R(9,11)          =         2.067115	       1.093870
	 R(9,15)          =         2.884621	       1.526476
	 R(12,13)         =         2.066727	       1.093665
	 R(12,14)         =         2.064384	       1.092425
	 R(12,24)         =         2.880144	       1.524107
	 R(15,16)         =         2.069427	       1.095094
	 R(15,17)         =         2.062735	       1.091552
	 R(15,18)         =         2.886890	       1.527676
	 R(18,19)         =         2.071396	       1.096136
	 R(18,20)         =         2.062243	       1.091292
	 R(18,21)         =         2.901784	       1.535558
	 R(21,22)         =         2.068695	       1.094706
	 R(21,23)         =         2.063667	       1.092045
	 R(21,24)         =         2.888019	       1.528274
	 R(24,25)         =         2.067997	       1.094337
	 R(24,26)         =         2.069538	       1.095153
	 B(1,9,10)        =         1.906132	     109.213330
	 B(1,9,11)        =         1.912098	     109.555129
	 B(1,9,15)        =         1.978474	     113.358220
	 B(2,1,3)         =         1.881972	     107.829074
	 B(2,1,4)         =         1.882728	     107.872376
	 B(2,1,9)         =         1.930441	     110.606149
	 B(3,1,4)         =         1.878255	     107.616096
	 B(3,1,9)         =         1.947348	     111.574816
	 B(4,1,9)         =         1.940478	     111.181180
	 B(5,12,13)       =         1.916318	     109.796951
	 B(5,12,14)       =         1.908460	     109.346718
	 B(5,12,24)       =         1.951336	     111.803306
	 B(6,5,7)         =         1.879502	     107.687553
	 B(6,5,8)         =         1.883493	     107.916221
	 B(6,5,12)        =         1.931487	     110.666070
	 B(7,5,8)         =         1.884436	     107.970250
	 B(7,5,12)        =         1.933087	     110.757702
	 B(8,5,12)        =         1.949384	     111.691495
	 B(9,15,16)       =         1.907577	     109.296120
	 B(9,15,17)       =         1.906414	     109.229450
	 B(9,15,18)       =         1.983978	     113.673592
	 B(10,9,11)       =         1.858169	     106.465235
	 B(10,9,15)       =         1.902958	     109.031477
	 B(11,9,15)       =         1.902147	     108.985013
	 B(12,24,21)      =         2.008133	     115.057518
	 B(12,24,25)      =         1.895996	     108.632596
	 B(12,24,26)      =         1.896610	     108.667729
	 B(13,12,14)      =         1.861348	     106.647373
	 B(13,12,24)      =         1.908334	     109.339508
	 B(14,12,24)      =         1.915875	     109.771537
	 B(15,18,19)      =         1.908284	     109.336619
	 B(15,18,20)      =         1.898779	     108.792013
	 B(15,18,21)      =         1.980661	     113.483496
	 B(16,15,17)      =         1.855147	     106.292105
	 B(16,15,18)      =         1.895180	     108.585824
	 B(17,15,18)      =         1.911125	     109.499395
	 B(18,21,22)      =         1.905164	     109.157831
	 B(18,21,23)      =         1.914962	     109.719235
	 B(18,21,24)      =         1.989149	     113.969849
	 B(19,18,20)      =         1.852766	     106.155670
	 B(19,18,21)      =         1.907969	     109.318566
	 B(20,18,21)      =         1.911015	     109.493087
	 B(21,24,25)      =         1.904008	     109.091603
	 B(21,24,26)      =         1.897524	     108.720089
	 B(22,21,23)      =         1.854602	     106.260869
	 B(22,21,24)      =         1.909595	     109.411732
	 B(23,21,24)      =         1.885556	     108.034397
	 B(25,24,26)      =         1.855618	     106.319060
	 D(1,9,15,16)     =        -1.046130	     -59.938861
	 D(1,9,15,17)     =        -3.069100	    -175.846481
	 D(1,9,15,18)     =         1.074122	      61.542654
	 D(2,1,9,10)      =        -1.155268	     -66.191964
	 D(2,1,9,11)      =         3.098947	     177.556573
	 D(2,1,9,15)      =         0.970191	      55.587868
	 D(3,1,9,10)      =         3.033029	     173.779766
	 D(3,1,9,11)      =         1.004058	      57.528302
	 D(3,1,9,15)      =        -1.124697	     -64.440402
	 D(4,1,9,10)      =         0.936044	      53.631396
	 D(4,1,9,11)      =        -1.092926	     -62.620068
	 D(4,1,9,15)      =         3.061503	     175.411228
	 D(5,12,24,21)    =         3.098443	     177.527709
	 D(5,12,24,25)    =         0.958789	      54.934560
	 D(5,12,24,26)    =        -1.053079	     -60.336979
	 D(6,5,12,13)     =        -3.124750	    -179.035012
	 D(6,5,12,14)     =        -1.088214	     -62.350058
	 D(6,5,12,24)     =         1.037174	      59.425676
	 D(7,5,12,13)     =         1.075290	      61.609569
	 D(7,5,12,14)     =         3.111826	     178.294523
	 D(7,5,12,24)     =        -1.045971	     -59.929743
	 D(8,5,12,13)     =        -1.025874	     -58.778223
	 D(8,5,12,14)     =         1.010663	      57.906731
	 D(8,5,12,24)     =         3.136051	     179.682465
	 D(9,15,18,19)    =         0.855019	      48.988968
	 D(9,15,18,20)    =        -1.161259	     -66.535238
	 D(9,15,18,21)    =         2.989990	     171.313836
	 D(10,9,15,16)    =         1.081101	      61.942543
	 D(10,9,15,17)    =        -0.941868	     -53.965077
	 D(10,9,15,18)    =        -3.081832	    -176.575942
	 D(11,9,15,16)    =         3.102760	     177.775031
	 D(11,9,15,17)    =         1.079790	      61.867411
	 D(11,9,15,18)    =        -1.060173	     -60.743454
	 D(12,24,21,18)   =         1.038318	      59.491244
	 D(12,24,21,22)   =        -1.099901	     -63.019695
	 D(12,24,21,23)   =        -3.111824	    -178.294376
	 D(13,12,24,21)   =         0.972582	      55.724823
	 D(13,12,24,25)   =        -1.167072	     -66.868326
	 D(13,12,24,26)   =         3.104245	     177.860135
	 D(14,12,24,21)   =        -1.063628	     -60.941380
	 D(14,12,24,25)   =         3.079903	     176.465471
	 D(14,12,24,26)   =         1.068036	      61.193932
	 D(15,18,21,22)   =         0.462672	      26.509181
	 D(15,18,21,23)   =         2.488418	     142.575878
	 D(15,18,21,24)   =        -1.677973	     -96.140777
	 D(16,15,18,19)   =         2.982165	     170.865486
	 D(16,15,18,20)   =         0.965888	      55.341280
	 D(16,15,18,21)   =        -1.166048	     -66.809647
	 D(17,15,18,19)   =        -1.282349	     -73.473183
	 D(17,15,18,20)   =         2.984559	     171.002611
	 D(17,15,18,21)   =         0.852623	      48.851684
	 D(18,21,24,25)   =        -3.109514	    -178.162042
	 D(18,21,24,26)   =        -1.092853	     -62.615848
	 D(19,18,21,22)   =         2.597819	     148.844052
	 D(19,18,21,23)   =        -1.659621	     -95.089251
	 D(19,18,21,24)   =         0.457173	      26.194094
	 D(20,18,21,22)   =        -1.662455	     -95.251629
	 D(20,18,21,23)   =         0.363291	      20.815068
	 D(20,18,21,24)   =         2.480085	     142.098413
	 D(22,21,24,25)   =         1.035452	      59.327019
	 D(22,21,24,26)   =         3.052113	     174.873213
	 D(23,21,24,25)   =        -0.976471	     -55.947661
	 D(23,21,24,26)   =         1.040191	      59.598532
	 R(12,15)         =         6.436162	       3.405870

	Current energy   :      -314.9807380064

	Generating empirical Hessian (Schlegel '84) for each fragment.
	Taking RFO optimization step.
	Going to follow RFO solution 1.
	Using RFO vector 1.
	Norm of target step-size    0.00043
	Projected energy change by RFO approximation:         0.0000000003

	Back-transformation to cartesian coordinates...
	Successfully converged to displaced geometry.

	--- Internal Coordinate Step in ANG or DEG, aJ/ANG or AJ/DEG ---
	 ---------------------------------------------------------------------------
	   Coordinate                Previous        Force       Change         New 
	   ----------                --------       ------       ------       ------
	    1 R(1,2)          =      1.091429     0.000007     0.000001     1.091430
	    2 R(1,3)          =      1.089263     0.000007     0.000001     1.089264
	    3 R(1,4)          =      1.089713     0.000006     0.000001     1.089714
	    4 R(1,9)          =      1.525159     0.000001     0.000000     1.525159
	    5 R(5,6)          =      1.090837     0.000008     0.000002     1.090839
	    6 R(5,7)          =      1.090710     0.000008     0.000002     1.090712
	    7 R(5,8)          =      1.089706     0.000008     0.000002     1.089708
	    8 R(5,12)         =      1.524146     0.000001     0.000000     1.524146
	    9 R(9,10)         =      1.092315     0.000007     0.000001     1.092317
	   10 R(9,11)         =      1.093870     0.000009     0.000002     1.093872
	   11 R(9,15)         =      1.526476    -0.000002    -0.000000     1.526475
	   12 R(12,13)        =      1.093665     0.000014     0.000003     1.093668
	   13 R(12,14)        =      1.092425     0.000013     0.000002     1.092428
	   14 R(12,24)        =      1.524107     0.000005     0.000001     1.524108
	   15 R(15,16)        =      1.095094     0.000009     0.000002     1.095095
	   16 R(15,17)        =      1.091552     0.000012     0.000002     1.091554
	   17 R(15,18)        =      1.527676    -0.000003    -0.000001     1.527676
	   18 R(18,19)        =      1.096136     0.000015     0.000003     1.096138
	   19 R(18,20)        =      1.091292     0.000009     0.000002     1.091294
	   20 R(18,21)        =      1.535558     0.000001     0.000000     1.535559
	   21 R(21,22)        =      1.094706     0.000014     0.000003     1.094709
	   22 R(21,23)        =      1.092045     0.000010     0.000002     1.092047
	   23 R(21,24)        =      1.528274    -0.000002     0.000000     1.528274
	   24 R(24,25)        =      1.094337     0.000009     0.000002     1.094338
	   25 R(24,26)        =      1.095153     0.000012     0.000002     1.095155
	   26 B(1,9,10)       =    109.213330     0.000000    -0.000043   109.213287
	   27 B(1,9,11)       =    109.555129     0.000000     0.000021   109.555151
	   28 B(1,9,15)       =    113.358220    -0.000000    -0.000157   113.358063
	   29 B(2,1,3)        =    107.829074    -0.000000    -0.000050   107.829024
	   30 B(2,1,4)        =    107.872376    -0.000000    -0.000001   107.872375
	   31 B(2,1,9)        =    110.606149     0.000000     0.000056   110.606204
	   32 B(3,1,4)        =    107.616096     0.000000     0.000002   107.616098
	   33 B(3,1,9)        =    111.574816     0.000000     0.000024   111.574840
	   34 B(4,1,9)        =    111.181180    -0.000000    -0.000034   111.181146
	   35 B(5,12,13)      =    109.796951     0.000000    -0.000018   109.796932
	   36 B(5,12,14)      =    109.346718    -0.000000    -0.000075   109.346642
	   37 B(5,12,24)      =    111.803306    -0.000000    -0.000054   111.803252
	   38 B(6,5,7)        =    107.687553    -0.000000    -0.000019   107.687534
	   39 B(6,5,8)        =    107.916221    -0.000000    -0.000031   107.916191
	   40 B(6,5,12)       =    110.666070     0.000000     0.000061   110.666131
	   41 B(7,5,8)        =    107.970250    -0.000000    -0.000015   107.970235
	   42 B(7,5,12)       =    110.757702     0.000000     0.000027   110.757729
	   43 B(8,5,12)       =    111.691495    -0.000000    -0.000026   111.691470
	   44 B(9,15,16)      =    109.296120     0.000000    -0.000238   109.295883
	   45 B(9,15,17)      =    109.229450     0.000000     0.000225   109.229675
	   46 B(9,15,18)      =    113.673592    -0.000000    -0.000298   113.673294
	   47 B(10,9,11)      =    106.465235    -0.000000     0.000038   106.465273
	   48 B(10,9,15)      =    109.031477     0.000000     0.000055   109.031532
	   49 B(11,9,15)      =    108.985013     0.000000     0.000098   108.985112
	   50 B(12,24,21)     =    115.057518     0.000000     0.000163   115.057681
	   51 B(12,24,25)     =    108.632596    -0.000000    -0.000055   108.632540
	   52 B(12,24,26)     =    108.667729     0.000000     0.000043   108.667772
	   53 B(13,12,14)     =    106.647373    -0.000000    -0.000086   106.647287
	   54 B(13,12,24)     =    109.339508     0.000000     0.000145   109.339653
	   55 B(14,12,24)     =    109.771537     0.000000     0.000087   109.771625
	   56 B(15,18,19)     =    109.336619    -0.000000     0.000134   109.336753
	   57 B(15,18,20)     =    108.792013    -0.000000    -0.000239   108.791774
	   58 B(15,18,21)     =    113.483496     0.000000     0.000166   113.483662
	   59 B(16,15,17)     =    106.292105    -0.000000     0.000022   106.292127
	   60 B(16,15,18)     =    108.585824     0.000000    -0.000136   108.585688
	   61 B(17,15,18)     =    109.499395     0.000000     0.000440   109.499835
	   62 B(18,21,22)     =    109.157831     0.000000     0.000148   109.157979
	   63 B(18,21,23)     =    109.719235     0.000000    -0.000078   109.719158
	   64 B(18,21,24)     =    113.969849    -0.000000     0.000055   113.969904
	   65 B(19,18,20)     =    106.155670     0.000000     0.000038   106.155708
	   66 B(19,18,21)     =    109.318566    -0.000000     0.000082   109.318648
	   67 B(20,18,21)     =    109.493087    -0.000000    -0.000191   109.492896
	   68 B(21,24,25)     =    109.091603    -0.000000    -0.000058   109.091545
	   69 B(21,24,26)     =    108.720089    -0.000000    -0.000045   108.720043
	   70 B(22,21,23)     =    106.260869     0.000000     0.000059   106.260928
	   71 B(22,21,24)     =    109.411732     0.000000     0.000085   109.411817
	   72 B(23,21,24)     =    108.034397    -0.000000    -0.000272   108.034125
	   73 B(25,24,26)     =    106.319060    -0.000000    -0.000064   106.318996
	   74 D(1,9,15,16)    =    -59.938861     0.000000    -0.001190   -59.940051
	   75 D(1,9,15,17)    =   -175.846481     0.000000    -0.001210  -175.847690
	   76 D(1,9,15,18)    =     61.542654    -0.000000    -0.001740    61.540914
	   77 D(2,1,9,10)     =    -66.191964     0.000000    -0.000047   -66.192011
	   78 D(2,1,9,11)     =    177.556573    -0.000000    -0.000080   177.556493
	   79 D(2,1,9,15)     =     55.587868    -0.000000    -0.000114    55.587754
	   80 D(3,1,9,10)     =    173.779766     0.000000    -0.000037   173.779728
	   81 D(3,1,9,11)     =     57.528302    -0.000000    -0.000070    57.528232
	   82 D(3,1,9,15)     =    -64.440402    -0.000000    -0.000104   -64.440506
	   83 D(4,1,9,10)     =     53.631396     0.000000    -0.000033    53.631362
	   84 D(4,1,9,11)     =    -62.620068     0.000000    -0.000066   -62.620134
	   85 D(4,1,9,15)     =    175.411228    -0.000000    -0.000100   175.411128
	   86 D(5,12,24,21)   =    177.527709     0.000000     0.002485   177.530194
	   87 D(5,12,24,25)   =     54.934560     0.000000     0.002489    54.937049
	   88 D(5,12,24,26)   =    -60.336979     0.000000     0.002572   -60.334408
	   89 D(6,5,12,13)    =   -179.035012     0.000000     0.000200  -179.034812
	   90 D(6,5,12,14)    =    -62.350058    -0.000000     0.000041   -62.350017
	   91 D(6,5,12,24)    =     59.425676    -0.000000     0.000064    59.425740
	   92 D(7,5,12,13)    =     61.609569     0.000000     0.000166    61.609736
	   93 D(7,5,12,14)    =    178.294523    -0.000000     0.000008   178.294531
	   94 D(7,5,12,24)    =    -59.929743    -0.000000     0.000031   -59.929712
	   95 D(8,5,12,13)    =    -58.778223     0.000000     0.000185   -58.778038
	   96 D(8,5,12,14)    =     57.906731    -0.000000     0.000027    57.906757
	   97 D(8,5,12,24)    =    179.682465    -0.000000     0.000049   179.682514
	   98 D(9,15,18,19)   =     48.988968     0.000000     0.007786    48.996754
	   99 D(9,15,18,20)   =    -66.535238     0.000000     0.007799   -66.527439
	  100 D(9,15,18,21)   =    171.313836     0.000000     0.008105   171.321941
	  101 D(10,9,15,16)   =     61.942543    -0.000000    -0.001311    61.941231
	  102 D(10,9,15,17)   =    -53.965077    -0.000000    -0.001331   -53.966408
	  103 D(10,9,15,18)   =   -176.575942    -0.000000    -0.001861  -176.577804
	  104 D(11,9,15,16)   =    177.775031     0.000000    -0.001182   177.773849
	  105 D(11,9,15,17)   =     61.867411     0.000000    -0.001201    61.866210
	  106 D(11,9,15,18)   =    -60.743454    -0.000000    -0.001732   -60.745186
	  107 D(12,24,21,18)  =     59.491244     0.000000     0.000602    59.491846
	  108 D(12,24,21,22)  =    -63.019695    -0.000000     0.000307   -63.019388
	  109 D(12,24,21,23)  =   -178.294376    -0.000000     0.000340  -178.294035
	  110 D(13,12,24,21)  =     55.724823     0.000000     0.002444    55.727267
	  111 D(13,12,24,25)  =    -66.868326     0.000000     0.002448   -66.865878
	  112 D(13,12,24,26)  =    177.860135     0.000000     0.002530   177.862665
	  113 D(14,12,24,21)  =    -60.941380     0.000000     0.002414   -60.938966
	  114 D(14,12,24,25)  =    176.465471     0.000000     0.002418   176.467889
	  115 D(14,12,24,26)  =     61.193932     0.000000     0.002500    61.196432
	  116 D(15,18,21,22)  =     26.509181    -0.000000     0.000538    26.509719
	  117 D(15,18,21,23)  =    142.575878     0.000000     0.000649   142.576527
	  118 D(15,18,21,24)  =    -96.140777    -0.000000     0.000278   -96.140499
	  119 D(16,15,18,19)  =    170.865486    -0.000000     0.007184   170.872670
	  120 D(16,15,18,20)  =     55.341280    -0.000000     0.007197    55.348477
	  121 D(16,15,18,21)  =    -66.809647     0.000000     0.007503   -66.802144
	  122 D(17,15,18,19)  =    -73.473183     0.000000     0.007374   -73.465809
	  123 D(17,15,18,20)  =    171.002611     0.000000     0.007387   171.009997
	  124 D(17,15,18,21)  =     48.851684     0.000000     0.007693    48.859377
	  125 D(18,21,24,25)  =   -178.162042     0.000000     0.000600  -178.161442
	  126 D(18,21,24,26)  =    -62.615848    -0.000000     0.000467   -62.615381
	  127 D(19,18,21,22)  =    148.844052     0.000000     0.000886   148.844938
	  128 D(19,18,21,23)  =    -95.089251     0.000000     0.000997   -95.088253
	  129 D(19,18,21,24)  =     26.194094     0.000000     0.000626    26.194721
	  130 D(20,18,21,22)  =    -95.251629     0.000000     0.000871   -95.250758
	  131 D(20,18,21,23)  =     20.815068     0.000000     0.000983    20.816050
	  132 D(20,18,21,24)  =    142.098413     0.000000     0.000611   142.099024
	  133 D(22,21,24,25)  =     59.327019    -0.000000     0.000305    59.327324
	  134 D(22,21,24,26)  =    174.873213    -0.000000     0.000173   174.873385
	  135 D(23,21,24,25)  =    -55.947661     0.000000     0.000338   -55.947323
	  136 D(23,21,24,26)  =     59.598532    -0.000000     0.000206    59.598738
	  137 R(12,15)        =      3.405870     0.000003     0.000008     3.405878
	 ---------------------------------------------------------------------------

  ==> Convergence Check <==

  Measures of convergence in internal coordinates in au.
  Criteria marked as inactive (o), active & met (*), and active & unmet ( ).
  --------------------------------------------------------------------------------------------- ~
   Step     Total Energy     Delta E     MAX Force     RMS Force      MAX Disp      RMS Disp    ~
  --------------------------------------------------------------------------------------------- ~
    Convergence Criteria             o    2.00e-06 *    1.00e-06 *    6.00e-06 *    4.00e-06 *  ~
  --------------------------------------------------------------------------------------------- ~
      1    -314.98073801   -3.15e+02 o    1.77e-06 *    4.88e-07 *    1.41e-04      3.65e-05    ~
  ---------------------------------------------------------------------------------------------

	Writing optimization data to binary file.
	Structure for next step:
	Cartesian Geometry (in Angstrom)
	    C    -3.5648650466  -0.2717945211   0.5770731021
	    H    -4.0046092780   0.3584307900  -0.1979499754
	    H    -3.2616941553   0.3742105685   1.4000319031
	    H    -4.3438637822  -0.9366226488   0.9494188963
	    C     3.4433002523  -1.0854292915   0.0242632651
	    H     3.6137883471  -1.0479206175   1.1010437434
	    H     4.2218063963  -0.4908856884  -0.4554218910
	    H     3.5631524009  -2.1193803402  -0.2982948631
	    C    -2.3851919833  -1.0623683794   0.0207693492
	    H    -2.7487377920  -1.7749041035  -0.7230606803
	    H    -1.9310398460  -1.6540593628   0.8208962325
	    C     2.0607863639  -0.5443793214  -0.3206156522
	    H     1.8983203066  -0.6043984384  -1.4004820378
	    H     1.2992262790  -1.1735062178   0.1458856418
	    C    -1.3128707407  -0.1819558617  -0.6157270910
	    H    -1.7533962415   0.3834476740  -1.4436702006
	    H    -0.5407817062  -0.8164487861  -1.0548037072
	    C    -0.6699660190   0.8031641643   0.3589552432
	    H    -0.3697396678   0.2701624256   1.2685114035
	    H    -1.4207049607   1.5323591655   0.6681282920
	    C     0.5463359188   1.5362152255  -0.2251562021
	    H     0.4480398873   1.5839278108  -1.3143983512
	    H     0.5572990503   2.5700490000   0.1264610548
	    C     1.8876803732   0.8992610654   0.1363762195
	    H     2.6961421696   1.5005376403  -0.2907449608
	    H     2.0147502729   0.9404858988   1.2233526294
			--------------------------
			 OPTKING Finished Execution 
			--------------------------

    Structure for next step:
    Molecular point group: c1
    Full point group: C1

    Geometry (in Angstrom), charge = 0, multiplicity = 1:

    C           -3.564864885582    -0.271789254506     0.577070742568
    H           -4.004609116981     0.358436056610    -0.197952334893
    H           -3.261693994290     0.374215835083     1.400029543547
    H           -4.343863621156    -0.936617382145     0.949416536725
    C            3.443300413329    -1.085424024849     0.024260905611
    H            3.613788508172    -1.047915350868     1.101041383874
    H            4.221806557309    -0.490880421764    -0.455424250492
    H            3.563152561910    -2.119375073554    -0.298297222642
    C           -2.385191822274    -1.062363112812     0.020766989650
    H           -2.748737630956    -1.774898836856    -0.723063039880
    H           -1.931039684965    -1.654054096145     0.820893872944
    C            2.060786524919    -0.544374054822    -0.320618011706
    H            1.898320467604    -0.604393171799    -1.400484397382
    H            1.299226440079    -1.173500951172     0.145883282227
    C           -1.312870579696    -0.181950595098    -0.615729450569
    H           -1.753396080430     0.383452940593    -1.443672560182
    H           -0.540781545174    -0.816443519482    -1.054806066751
    C           -0.669965857932     0.803169430926     0.358952883639
    H           -0.369739506792     0.270167692229     1.268509043996
    H           -1.420704799704     1.532364432156     0.668125932442
    C            0.546336079783     1.536220492099    -0.225158561593
    H            0.448040048328     1.583933077401    -1.314400710723
    H            0.557299211325     2.570054266610     0.126458695226
    C            1.887680534251     0.899266332063     0.136373859976
    H            2.696142330670     1.500542906940    -0.290747320319
    H            2.014750433931     0.940491165444     1.223350269911

gradient() will perform analytic gradient computation.

*** tstart() called on wr40
*** at Tue Sep 20 23:59:07 2016


         ---------------------------------------------------------
                                   SCF
            by Justin Turney, Rob Parrish, and Andy Simmonett
                              RHF Reference
                       12 Threads,  60000 MiB Core
         ---------------------------------------------------------

  ==> Geometry <==

    Molecular point group: c1
    Full point group: C1

    Geometry (in Angstrom), charge = 0, multiplicity = 1:

       Center              X                  Y                   Z               Mass       
    ------------   -----------------  -----------------  -----------------  -----------------
           C         -3.564864885582    -0.271789254506     0.577070742568    12.000000000000
           H         -4.004609116981     0.358436056610    -0.197952334893     1.007825032070
           H         -3.261693994290     0.374215835083     1.400029543547     1.007825032070
           H         -4.343863621156    -0.936617382145     0.949416536725     1.007825032070
           C          3.443300413329    -1.085424024849     0.024260905611    12.000000000000
           H          3.613788508172    -1.047915350868     1.101041383874     1.007825032070
           H          4.221806557309    -0.490880421764    -0.455424250492     1.007825032070
           H          3.563152561910    -2.119375073554    -0.298297222642     1.007825032070
           C         -2.385191822274    -1.062363112812     0.020766989650    12.000000000000
           H         -2.748737630956    -1.774898836856    -0.723063039880     1.007825032070
           H         -1.931039684965    -1.654054096145     0.820893872944     1.007825032070
           C          2.060786524919    -0.544374054822    -0.320618011706    12.000000000000
           H          1.898320467604    -0.604393171799    -1.400484397382     1.007825032070
           H          1.299226440079    -1.173500951172     0.145883282227     1.007825032070
           C         -1.312870579696    -0.181950595098    -0.615729450569    12.000000000000
           H         -1.753396080430     0.383452940593    -1.443672560182     1.007825032070
           H         -0.540781545174    -0.816443519482    -1.054806066751     1.007825032070
           C         -0.669965857932     0.803169430926     0.358952883639    12.000000000000
           H         -0.369739506792     0.270167692229     1.268509043996     1.007825032070
           H         -1.420704799704     1.532364432156     0.668125932442     1.007825032070
           C          0.546336079783     1.536220492099    -0.225158561593    12.000000000000
           H          0.448040048328     1.583933077401    -1.314400710723     1.007825032070
           H          0.557299211325     2.570054266610     0.126458695226     1.007825032070
           C          1.887680534251     0.899266332063     0.136373859976    12.000000000000
           H          2.696142330670     1.500542906940    -0.290747320319     1.007825032070
           H          2.014750433931     0.940491165444     1.223350269911     1.007825032070

  Running in c1 symmetry.

  Rotational constants: A =      0.12454  B =      0.02638  C =      0.02339 [cm^-1]
  Rotational constants: A =   3733.61578  B =    790.90527  C =    701.24907 [MHz]
  Nuclear repulsion =  394.407108253960985

  Charge       = 0
  Multiplicity = 1
  Electrons    = 66
  Nalpha       = 33
  Nbeta        = 33

  ==> Algorithm <==

  SCF Algorithm Type is DF.
  DIIS enabled.
  MOM disabled.
  Fractional occupation disabled.
  Guess Type is READ.
  Energy threshold   = 1.00e-10
  Density threshold  = 1.00e-10
  Integral threshold = 0.00e+00

  ==> Primary Basis <==

  Basis Set: AUG-CC-PVTZ
    Number of shells: 274
    Number of basis function: 782
    Number of Cartesian functions: 890
    Spherical Harmonics?: true
    Max angular momentum: 3

  ==> Pre-Iterations <==

   -------------------------------------------------------
    Irrep   Nso     Nmo     Nalpha   Nbeta   Ndocc  Nsocc
   -------------------------------------------------------
     A        782     782       0       0       0       0
   -------------------------------------------------------
    Total     782     782      33      33      33       0
   -------------------------------------------------------

  ==> Integral Setup <==

  ==> DFJK: Density-Fitted J/K Matrices <==

    J tasked:                  Yes
    K tasked:                  Yes
    wK tasked:                  No
    OpenMP threads:             12
    Integrals threads:          12
    Memory (MB):             42915
    Algorithm:                Core
    Integral Cache:           NONE
    Schwarz Cutoff:          1E-12
    Fitting Condition:       1E-12

   => Auxiliary Basis Set <=

  Basis Set: 
    Number of shells: 492
    Number of basis function: 1660
    Number of Cartesian functions: 2038
    Spherical Harmonics?: true
    Max angular momentum: 4

  Minimum eigenvalue in the overlap matrix is 1.8878870011E-06.
  Using Symmetric Orthogonalization.
  SCF Guess: Reading in previously saved MOs, projecting if necessary.

  Using orbitals from previous SCF, no projection.
  Recomputing DOCC and SOCC from number of alpha and beta electrons from previous calculation.
              A 
    DOCC [    33 ]

  ==> Iterations <==

                           Total Energy        Delta E     RMS |[F,P]|

   @DF-RHF iter   0:  -313.53873699298714   -3.13539e+02   2.72248e-07 
   @DF-RHF iter   1:  -313.53882274412280   -8.57511e-05   5.89170e-08 
   @DF-RHF iter   2:  -313.53882274579752   -1.67472e-09   2.52438e-08 DIIS
   @DF-RHF iter   3:  -313.53882274604820   -2.50679e-10   8.59706e-09 DIIS
   @DF-RHF iter   4:  -313.53882274609560   -4.74074e-11   1.09955e-09 DIIS
   @DF-RHF iter   5:  -313.53882274609686   -1.25056e-12   3.87043e-10 DIIS
   @DF-RHF iter   6:  -313.53882274609617    6.82121e-13   8.89306e-11 DIIS

  ==> Post-Iterations <==

    Orbital Energies (a.u.)
    -----------------------

    Doubly Occupied:                                                      

       1A    -11.212535     2A    -11.212515     3A    -11.210999  
       4A    -11.210369     5A    -11.209631     6A    -11.208901  
       7A    -11.207245     8A    -11.206357     9A     -1.093740  
      10A     -1.059866    11A     -1.008527    12A     -0.946647  
      13A     -0.884999    14A     -0.830300    15A     -0.779001  
      16A     -0.767640    17A     -0.644217    18A     -0.628758  
      19A     -0.607483    20A     -0.594080    21A     -0.579715  
      22A     -0.561616    23A     -0.548073    24A     -0.525412  
      25A     -0.516330    26A     -0.498112    27A     -0.488239  
      28A     -0.479706    29A     -0.464205    30A     -0.460356  
      31A     -0.451573    32A     -0.435600    33A     -0.431672  

    Virtual:                                                              

      34A      0.029962    35A      0.032870    36A      0.033489  
      37A      0.035053    38A      0.046910    39A      0.047573  
      40A      0.050254    41A      0.054276    42A      0.055406  
      43A      0.064975    44A      0.067650    45A      0.070943  
      46A      0.073830    47A      0.076369    48A      0.083793  
      49A      0.093431    50A      0.094757    51A      0.104135  
      52A      0.112244    53A      0.114753    54A      0.118610  
      55A      0.122679    56A      0.128415    57A      0.130505  
      58A      0.134837    59A      0.136445    60A      0.142365  
      61A      0.146933    62A      0.150889    63A      0.154302  
      64A      0.155246    65A      0.158234    66A      0.158866  
      67A      0.165243    68A      0.166576    69A      0.170247  
      70A      0.171739    71A      0.176138    72A      0.180031  
      73A      0.184599    74A      0.190654    75A      0.195288  
      76A      0.197543    77A      0.217118    78A      0.223605  
      79A      0.225529    80A      0.240354    81A      0.243731  
      82A      0.247510    83A      0.253472    84A      0.256873  
      85A      0.267095    86A      0.272684    87A      0.275120  
      88A      0.278415    89A      0.283309    90A      0.285892  
      91A      0.300932    92A      0.301951    93A      0.313438  
      94A      0.315706    95A      0.316704    96A      0.323100  
      97A      0.326349    98A      0.330056    99A      0.332556  
     100A      0.338051   101A      0.339914   102A      0.344937  
     103A      0.348643   104A      0.351807   105A      0.355061  
     106A      0.358165   107A      0.362028   108A      0.365806  
     109A      0.366658   110A      0.368436   111A      0.371228  
     112A      0.378318   113A      0.379812   114A      0.386500  
     115A      0.387984   116A      0.389569   117A      0.392192  
     118A      0.395948   119A      0.402988   120A      0.409789  
     121A      0.411668   122A      0.417938   123A      0.425594  
     124A      0.428082   125A      0.430966   126A      0.438906  
     127A      0.442407   128A      0.445094   129A      0.448498  
     130A      0.452466   131A      0.454536   132A      0.459551  
     133A      0.465166   134A      0.466201   135A      0.467471  
     136A      0.471162   137A      0.476502   138A      0.481330  
     139A      0.487481   140A      0.489219   141A      0.490391  
     142A      0.494809   143A      0.498162   144A      0.502948  
     145A      0.504119   146A      0.509135   147A      0.512503  
     148A      0.514414   149A      0.518557   150A      0.521389  
     151A      0.531034   152A      0.535921   153A      0.539287  
     154A      0.540709   155A      0.543519   156A      0.551749  
     157A      0.556387   158A      0.559020   159A      0.562866  
     160A      0.571327   161A      0.571395   162A      0.575723  
     163A      0.581701   164A      0.585317   165A      0.587797  
     166A      0.596865   167A      0.599020   168A      0.602007  
     169A      0.612943   170A      0.616074   171A      0.617562  
     172A      0.624358   173A      0.631304   174A      0.639534  
     175A      0.641449   176A      0.644880   177A      0.646975  
     178A      0.651512   179A      0.659631   180A      0.662449  
     181A      0.667768   182A      0.677076   183A      0.680334  
     184A      0.683399   185A      0.686897   186A      0.694905  
     187A      0.703022   188A      0.708849   189A      0.715142  
     190A      0.718063   191A      0.724542   192A      0.730597  
     193A      0.734589   194A      0.746425   195A      0.748496  
     196A      0.756002   197A      0.765620   198A      0.773998  
     199A      0.778451   200A      0.793677   201A      0.798290  
     202A      0.805370   203A      0.822946   204A      0.828564  
     205A      0.833494   206A      0.837583   207A      0.846333  
     208A      0.847317   209A      0.856477   210A      0.862101  
     211A      0.867284   212A      0.872033   213A      0.876150  
     214A      0.880446   215A      0.891741   216A      0.895629  
     217A      0.898846   218A      0.906582   219A      0.910083  
     220A      0.913974   221A      0.919559   222A      0.920856  
     223A      0.928218   224A      0.933548   225A      0.936977  
     226A      0.938406   227A      0.944084   228A      0.946964  
     229A      0.951042   230A      0.960056   231A      0.961383  
     232A      0.969396   233A      0.975393   234A      0.979188  
     235A      0.982726   236A      0.988193   237A      0.993529  
     238A      0.996288   239A      0.998390   240A      1.006348  
     241A      1.009713   242A      1.019813   243A      1.023470  
     244A      1.025784   245A      1.031022   246A      1.035473  
     247A      1.040391   248A      1.046388   249A      1.053304  
     250A      1.056984   251A      1.066412   252A      1.070939  
     253A      1.080008   254A      1.087620   255A      1.092200  
     256A      1.094433   257A      1.097173   258A      1.100110  
     259A      1.102647   260A      1.109458   261A      1.117859  
     262A      1.123896   263A      1.126076   264A      1.132522  
     265A      1.140168   266A      1.141783   267A      1.145506  
     268A      1.150502   269A      1.162106   270A      1.167672  
     271A      1.175074   272A      1.177775   273A      1.183626  
     274A      1.188983   275A      1.192892   276A      1.199213  
     277A      1.203226   278A      1.206938   279A      1.210823  
     280A      1.220856   281A      1.223835   282A      1.230327  
     283A      1.235021   284A      1.240603   285A      1.245094  
     286A      1.253724   287A      1.254388   288A      1.259225  
     289A      1.263794   290A      1.268529   291A      1.274227  
     292A      1.277005   293A      1.286624   294A      1.289357  
     295A      1.299727   296A      1.305283   297A      1.309766  
[...]
	 Skipping Hessian update for step 11.
	Denominators (dg)(dq) or (dq)(dq) are very small.
	 Skipping Hessian update for step 10.
	Denominators (dg)(dq) or (dq)(dq) are very small.
	 Skipping Hessian update for step 9.
	Denominators (dg)(dq) or (dq)(dq) are very small.
	 Skipping Hessian update for step 8.
	Denominators (dg)(dq) or (dq)(dq) are very small.
	 Skipping Hessian update for step 7.
	Denominators (dg)(dq) or (dq)(dq) are very small.
	 Skipping Hessian update for step 6.
	Denominators (dg)(dq) or (dq)(dq) are very small.
	 Skipping Hessian update for step 5.
	Denominators (dg)(dq) or (dq)(dq) are very small.
	 Skipping Hessian update for step 4.
	Denominators (dg)(dq) or (dq)(dq) are very small.
	 Skipping Hessian update for step 3.
	Denominators (dg)(dq) or (dq)(dq) are very small.
	 Skipping Hessian update for step 2.
	Steps to be used in Hessian update: 1
	Taking RFO optimization step.
	Going to follow RFO solution 1.
	Using RFO vector 1.
	Norm of target step-size    0.00002
	Projected energy change by RFO approximation:        -0.0000000000

	Back-transformation to cartesian coordinates...
	Successfully converged to displaced geometry.

	--- Internal Coordinate Step in ANG or DEG, aJ/ANG or AJ/DEG ---
	 ---------------------------------------------------------------------------
	   Coordinate                Previous        Force       Change         New 
	   ----------                --------       ------       ------       ------
	    1 R(1,2)          =      1.091430     0.000001     0.000000     1.091430
	    2 R(1,3)          =      1.089263     0.000001     0.000000     1.089264
	    3 R(1,4)          =      1.089714     0.000001     0.000000     1.089714
	    4 R(1,9)          =      1.525159    -0.000000    -0.000000     1.525159
	    5 R(5,6)          =      1.090838     0.000001     0.000000     1.090839
	    6 R(5,7)          =      1.090711     0.000001     0.000000     1.090711
	    7 R(5,8)          =      1.089707     0.000001     0.000000     1.089708
	    8 R(5,12)         =      1.524146     0.000001     0.000000     1.524146
	    9 R(9,10)         =      1.092316    -0.000000     0.000000     1.092316
	   10 R(9,11)         =      1.093871     0.000000     0.000000     1.093871
	   11 R(9,15)         =      1.526476    -0.000001    -0.000000     1.526476
	   12 R(12,13)        =      1.093667     0.000002     0.000000     1.093667
	   13 R(12,14)        =      1.092427     0.000002     0.000000     1.092427
	   14 R(12,24)        =      1.524107     0.000000    -0.000000     1.524107
	   15 R(15,16)        =      1.095095    -0.000001    -0.000000     1.095095
	   16 R(15,17)        =      1.091554    -0.000003    -0.000000     1.091553
	   17 R(15,18)        =      1.527675    -0.000000     0.000000     1.527675
	   18 R(18,19)        =      1.096137    -0.000001    -0.000000     1.096137
	   19 R(18,20)        =      1.091293    -0.000001    -0.000000     1.091293
	   20 R(18,21)        =      1.535559    -0.000003    -0.000001     1.535558
	   21 R(21,22)        =      1.094708    -0.000001    -0.000000     1.094707
	   22 R(21,23)        =      1.092046    -0.000000    -0.000000     1.092046
	   23 R(21,24)        =      1.528274    -0.000001    -0.000000     1.528273
	   24 R(24,25)        =      1.094338     0.000001     0.000000     1.094338
	   25 R(24,26)        =      1.095154     0.000001     0.000000     1.095154
	   26 B(1,9,10)       =    109.213221    -0.000000    -0.000017   109.213204
	   27 B(1,9,11)       =    109.555143     0.000000     0.000018   109.555161
	   28 B(1,9,15)       =    113.358206     0.000000     0.000014   113.358219
	   29 B(2,1,3)        =    107.829057    -0.000000    -0.000016   107.829041
	   30 B(2,1,4)        =    107.872370    -0.000000    -0.000005   107.872365
	   31 B(2,1,9)        =    110.606166     0.000000     0.000012   110.606178
	   32 B(3,1,4)        =    107.616063    -0.000000    -0.000002   107.616061
	   33 B(3,1,9)        =    111.574903     0.000000     0.000015   111.574917
	   34 B(4,1,9)        =    111.181129    -0.000000    -0.000004   111.181124
	   35 B(5,12,13)      =    109.796975     0.000000     0.000007   109.796982
	   36 B(5,12,14)      =    109.346701    -0.000000     0.000006   109.346707
	   37 B(5,12,24)      =    111.803277     0.000000     0.000006   111.803283
	   38 B(6,5,7)        =    107.687536    -0.000000    -0.000004   107.687532
	   39 B(6,5,8)        =    107.916184     0.000000    -0.000005   107.916180
	   40 B(6,5,12)       =    110.666112     0.000000     0.000011   110.666122
	   41 B(7,5,8)        =    107.970216     0.000000     0.000000   107.970217
	   42 B(7,5,12)       =    110.757722     0.000000     0.000025   110.757747
	   43 B(8,5,12)       =    111.691518    -0.000000    -0.000027   111.691490
	   44 B(9,15,16)      =    109.295969     0.000000    -0.000005   109.295964
	   45 B(9,15,17)      =    109.229524     0.000000     0.000027   109.229551
	   46 B(9,15,18)      =    113.673455     0.000000     0.000025   113.673480
	   47 B(10,9,11)      =    106.465240     0.000000     0.000001   106.465241
	   48 B(10,9,15)      =    109.031449    -0.000000    -0.000023   109.031426
	   49 B(11,9,15)      =    108.985148    -0.000000     0.000006   108.985154
	   50 B(12,24,21)     =    115.057619     0.000000    -0.000039   115.057580
	   51 B(12,24,25)     =    108.632544    -0.000000     0.000012   108.632556
	   52 B(12,24,26)     =    108.667743    -0.000000    -0.000017   108.667726
	   53 B(13,12,14)     =    106.647288    -0.000000    -0.000026   106.647262
	   54 B(13,12,24)     =    109.339592    -0.000000    -0.000008   109.339584
	   55 B(14,12,24)     =    109.771557     0.000000     0.000013   109.771570
	   56 B(15,18,19)     =    109.336695    -0.000000     0.000002   109.336697
	   57 B(15,18,20)     =    108.791821    -0.000000    -0.000002   108.791819
	   58 B(15,18,21)     =    113.483745     0.000000     0.000006   113.483751
	   59 B(16,15,17)     =    106.292105    -0.000000    -0.000031   106.292073
	   60 B(16,15,18)     =    108.585771    -0.000000    -0.000021   108.585750
	   61 B(17,15,18)     =    109.499669     0.000000     0.000001   109.499670
	   62 B(18,21,22)     =    109.157880     0.000000     0.000012   109.157892
	   63 B(18,21,23)     =    109.719152     0.000000     0.000015   109.719168
	   64 B(18,21,24)     =    113.969959    -0.000000    -0.000069   113.969890
	   65 B(19,18,20)     =    106.155707     0.000000    -0.000005   106.155701
	   66 B(19,18,21)     =    109.318546     0.000000     0.000026   109.318573
	   67 B(20,18,21)     =    109.492924    -0.000000    -0.000028   109.492896
	   68 B(21,24,25)     =    109.091563     0.000000     0.000047   109.091610
	   69 B(21,24,26)     =    108.720094    -0.000000    -0.000002   108.720092
	   70 B(22,21,23)     =    106.260896    -0.000000     0.000012   106.260908
	   71 B(22,21,24)     =    109.411747     0.000000     0.000011   109.411758
	   72 B(23,21,24)     =    108.034271    -0.000000     0.000025   108.034297
	   73 B(25,24,26)     =    106.319021     0.000000     0.000002   106.319023
	   74 D(1,9,15,16)    =    -59.938689     0.000000     0.000066   -59.938622
	   75 D(1,9,15,17)    =   -175.846265     0.000000     0.000092  -175.846174
	   76 D(1,9,15,18)    =     61.542555    -0.000000     0.000053    61.542608
	   77 D(2,1,9,10)     =    -66.192447     0.000000    -0.000080   -66.192527
	   78 D(2,1,9,11)     =    177.556138    -0.000000    -0.000082   177.556055
	   79 D(2,1,9,15)     =     55.587261    -0.000000    -0.000113    55.587148
	   80 D(3,1,9,10)     =    173.779235     0.000000    -0.000077   173.779157
	   81 D(3,1,9,11)     =     57.527820    -0.000000    -0.000080    57.527740
	   82 D(3,1,9,15)     =    -64.441057    -0.000000    -0.000110   -64.441168
	   83 D(4,1,9,10)     =     53.630881     0.000000    -0.000081    53.630800
	   84 D(4,1,9,11)     =    -62.620533    -0.000000    -0.000084   -62.620617
	   85 D(4,1,9,15)     =    175.410590    -0.000000    -0.000114   175.410475
	   86 D(5,12,24,21)   =    177.528291     0.000000     0.000315   177.528606
	   87 D(5,12,24,25)   =     54.935162    -0.000000     0.000272    54.935435
	   88 D(5,12,24,26)   =    -60.336310     0.000000     0.000272   -60.336038
	   89 D(6,5,12,13)    =   -179.034849     0.000000     0.000171  -179.034678
	   90 D(6,5,12,14)    =    -62.349994    -0.000000     0.000147   -62.349847
	   91 D(6,5,12,24)    =     59.425734     0.000000     0.000171    59.425906
	   92 D(7,5,12,13)    =     61.609714     0.000000     0.000153    61.609866
	   93 D(7,5,12,14)    =    178.294570    -0.000000     0.000129   178.294698
	   94 D(7,5,12,24)    =    -59.929703     0.000000     0.000153   -59.929549
	   95 D(8,5,12,13)    =    -58.778064     0.000000     0.000154   -58.777910
	   96 D(8,5,12,14)    =     57.906792    -0.000000     0.000130    57.906922
	   97 D(8,5,12,24)    =    179.682520     0.000000     0.000155   179.682674
	   98 D(9,15,18,19)   =     48.991763    -0.000000     0.000168    48.991931
	   99 D(9,15,18,20)   =    -66.532422     0.000000     0.000174   -66.532248
	  100 D(9,15,18,21)   =    171.316832     0.000000     0.000207   171.317040
	  101 D(10,9,15,16)   =     61.942545    -0.000000     0.000037    61.942582
	  102 D(10,9,15,17)   =    -53.965031     0.000000     0.000062   -53.964969
	  103 D(10,9,15,18)   =   -176.576211    -0.000000     0.000023  -176.576188
	  104 D(11,9,15,16)   =    177.775098    -0.000000     0.000029   177.775127
	  105 D(11,9,15,17)   =     61.867521     0.000000     0.000054    61.867576
	  106 D(11,9,15,18)   =    -60.743658    -0.000000     0.000016   -60.743643
	  107 D(12,24,21,18)  =     59.491308     0.000000    -0.000083    59.491224
	  108 D(12,24,21,22)  =    -63.019783    -0.000000    -0.000058   -63.019842
	  109 D(12,24,21,23)  =   -178.294436    -0.000000    -0.000091  -178.294528
	  110 D(13,12,24,21)  =     55.725335     0.000000     0.000307    55.725643
	  111 D(13,12,24,25)  =    -66.867793    -0.000000     0.000265   -66.867529
	  112 D(13,12,24,26)  =    177.860734     0.000000     0.000265   177.860999
	  113 D(14,12,24,21)  =    -60.940826     0.000000     0.000336   -60.940490
	  114 D(14,12,24,25)  =    176.466046    -0.000000     0.000293   176.466339
	  115 D(14,12,24,26)  =     61.194573     0.000000     0.000293    61.194867
	  116 D(15,18,21,22)  =     26.509033    -0.000000    -0.000236    26.508797
	  117 D(15,18,21,23)  =    142.575744    -0.000000    -0.000207   142.575537
	  118 D(15,18,21,24)  =    -96.141058    -0.000000    -0.000211   -96.141269
	  119 D(16,15,18,19)  =    170.867957    -0.000000     0.000163   170.868120
	  120 D(16,15,18,20)  =     55.343772     0.000000     0.000169    55.343941
	  121 D(16,15,18,21)  =    -66.806974     0.000000     0.000203   -66.806771
	  122 D(17,15,18,19)  =    -73.470593    -0.000000     0.000114   -73.470478
	  123 D(17,15,18,20)  =    171.005222    -0.000000     0.000120   171.005342
	  124 D(17,15,18,21)  =     48.854476     0.000000     0.000154    48.854630
	  125 D(18,21,24,25)  =   -178.162005     0.000000    -0.000059  -178.162064
	  126 D(18,21,24,26)  =    -62.615877     0.000000    -0.000033   -62.615909
	  127 D(19,18,21,22)  =    148.844159    -0.000000    -0.000210   148.843949
	  128 D(19,18,21,23)  =    -95.089130     0.000000    -0.000180   -95.089310
	  129 D(19,18,21,24)  =     26.194068    -0.000000    -0.000184    26.193884
	  130 D(20,18,21,22)  =    -95.251581    -0.000000    -0.000217   -95.251799
	  131 D(20,18,21,23)  =     20.815130     0.000000    -0.000188    20.814942
	  132 D(20,18,21,24)  =    142.098328    -0.000000    -0.000192   142.098136
	  133 D(22,21,24,25)  =     59.326904     0.000000    -0.000034    59.326869
	  134 D(22,21,24,26)  =    174.873032     0.000000    -0.000008   174.873025
	  135 D(23,21,24,25)  =    -55.947749    -0.000000    -0.000067   -55.947817
	  136 D(23,21,24,26)  =     59.598379    -0.000000    -0.000041    59.598339
	  137 R(12,15)        =      3.405885    -0.000001    -0.000000     3.405885
	 ---------------------------------------------------------------------------

  ==> Convergence Check <==

  Measures of convergence in internal coordinates in au.
  Criteria marked as inactive (o), active & met (*), and active & unmet ( ).
  ---------------------------------------------------------------------------------------------
   Step     Total Energy     Delta E     MAX Force     RMS Force      MAX Disp      RMS Disp   
  ---------------------------------------------------------------------------------------------
    Convergence Criteria             o    2.00e-06 *    1.00e-06 *    6.00e-06 *    4.00e-06 *
  ---------------------------------------------------------------------------------------------
     22    -314.98073800   -1.91e-09 o    3.49e-07 *    7.16e-08 *    5.87e-06 *    1.98e-06 *  ~
  ---------------------------------------------------------------------------------------------


  **** Optimization is complete! (in 22 steps) ****

  ==> Optimization Summary <==

  Measures of convergence in internal coordinates in au.
  --------------------------------------------------------------------------------------------------------------- ~
   Step         Total Energy             Delta E       MAX Force       RMS Force        MAX Disp        RMS Disp  ~
  --------------------------------------------------------------------------------------------------------------- ~
      1    -314.980738006357   -314.980738006357      0.00000177      0.00000049      0.00014146      0.00003646  ~
      2    -314.980738007609     -0.000000001252      0.00000156      0.00000038      0.00005732      0.00002705  ~
      3    -314.980738008050     -0.000000000442      0.00000118      0.00000032      0.00009516      0.00002782  ~
      4    -314.980738006090      0.000000001960      0.00000216      0.00000055      0.00006007      0.00002146  ~
      5    -314.980738005030      0.000000001060      0.00000046      0.00000011      0.00003289      0.00000990  ~
      6    -314.980738010613     -0.000000005583      0.00000076      0.00000018      0.00002143      0.00000704  ~
      7    -314.980738006238      0.000000004375      0.00000101      0.00000029      0.00002176      0.00000587  ~
      8    -314.980738009149     -0.000000002911      0.00000058      0.00000013      0.00000898      0.00000274  ~
      9    -314.980738008945      0.000000000203      0.00000051      0.00000011      0.00002019      0.00000495  ~
     10    -314.980738005732      0.000000003213      0.00000138      0.00000035      0.00005772      0.00001688  ~
     11    -314.980738006039     -0.000000000306      0.00000263      0.00000065      0.00006225      0.00001659  ~
     12    -314.980738004020      0.000000002018      0.00000051      0.00000012      0.00001711      0.00000562  ~
     13    -314.980738002933      0.000000001087      0.00000062      0.00000014      0.00001085      0.00000367  ~
     14    -314.980738005770     -0.000000002837      0.00000025      0.00000005      0.00001084      0.00000399  ~
     15    -314.980738010677     -0.000000004907      0.00000123      0.00000030      0.00001762      0.00000471  ~
     16    -314.980738003556      0.000000007121      0.00000018      0.00000004      0.00000749      0.00000227  ~
     17    -314.980738007259     -0.000000003702      0.00000071      0.00000016      0.00000829      0.00000296  ~
     18    -314.980738009284     -0.000000002025      0.00000042      0.00000010      0.00000946      0.00000352  ~
     19    -314.980738007225      0.000000002059      0.00000029      0.00000006      0.00001055      0.00000328  ~
     20    -314.980738004607      0.000000002618      0.00000183      0.00000043      0.00010825      0.00002836  ~
     21    -314.980738002836      0.000000001771      0.00000310      0.00000066      0.00008106      0.00002298  ~
     22    -314.980738004749     -0.000000001913      0.00000035      0.00000007      0.00000587      0.00000198  ~
  --------------------------------------------------------------------------------------------------------------- ~

	Writing optimization data to binary file.
	Final energy is   -314.9807380047487
	Final (previous) structure:
	Cartesian Geometry (in Angstrom)
	    C    -3.5648479715  -0.2718518811   0.5771011467
	    H    -4.0046376968   0.3583723398  -0.1978961977
	    H    -3.2616867427   0.3741458168   1.4000683190
	    H    -4.3438085241  -0.9367227947   0.9494488864
	    C     3.4432735029  -1.0854539886   0.0242814364
	    H     3.6137834845  -1.0479243482   1.1010572502
	    H     4.2217776481  -0.4909312831  -0.4554319114
	    H     3.5631059478  -2.1194132596  -0.2982566325
	    C    -2.3851538477  -1.0623611497   0.0207497087
	    H    -2.7486886347  -1.7748994326  -0.7230824126
	    H    -1.9309530486  -1.6540462892   0.8208522978
	    C     2.0607602135  -0.5443927096  -0.3205810993
	    H     1.8982711149  -0.6044318676  -1.4004421313
	    H     1.2992007653  -1.1734978655   0.1459486965
	    C    -1.3128893763  -0.1818901883  -0.6157633926
	    H    -1.7534677312   0.3835258139  -1.4436691772
	    H    -0.5407993334  -0.8163440431  -1.0548934135
	    C    -0.6699704588   0.8032165589   0.3589223359
	    H    -0.3697657821   0.2702093409   1.2684811672
	    H    -1.4206939268   1.5324299207   0.6680872477
	    C     0.5463564901   1.5362366418  -0.2251768595
	    H     0.4480786850   1.5839373964  -1.3144200156
	    H     0.5573331389   2.5700739915   0.1264268193
	    C     1.8876825204   0.8992592437   0.1363829247
	    H     2.6961623298   1.5005091558  -0.2907396245
	    H     2.0147409589   0.9404998887   1.2233590737
	Saving final (previous) structure.
			--------------------------
			 OPTKING Finished Execution 
			--------------------------

    Final optimized geometry and variables:
    Molecular point group: c1
    Full point group: C1

    Geometry (in Angstrom), charge = 0, multiplicity = 1:

    C           -3.564847971546    -0.271851881102     0.577101146720
    H           -4.004637696818     0.358372339770    -0.197896197721
    H           -3.261686742654     0.374145816750     1.400068318983
    H           -4.343808524052    -0.936722794677     0.949448886396
    C            3.443273502883    -1.085453988609     0.024281436437
    H            3.613783484484    -1.047924348156     1.101057250177
    H            4.221777648136    -0.490931283074    -0.455431911389
    H            3.563105947838    -2.119413259560    -0.298256632519
    C           -2.385153847700    -1.062361149694     0.020749708658
    H           -2.748688634709    -1.774899432605    -0.723082412643
    H           -1.930953048641    -1.654046289167     0.820852297781
    C            2.060760213470    -0.544392709559    -0.320581099251
    H            1.898271114911    -0.604431867560    -1.400442131338
    H            1.299200765260    -1.173497865460     0.145948696515
    C           -1.312889376332    -0.181890188316    -0.615763392605
    H           -1.753467731194     0.383525813923    -1.443669177167
    H           -0.540799333396    -0.816344043089    -1.054893413462
    C           -0.669970458784     0.803216558909     0.358922335928
    H           -0.369765782091     0.270209340914     1.268481167197
    H           -1.420693926814     1.532429920662     0.668087247698
    C            0.546356490051     1.536236641791    -0.225176859539
    H            0.448078684996     1.583937396369    -1.314420015551
    H            0.557333138922     2.570073991458     0.126426819291
    C            1.887682520426     0.899259243728     0.136382924732
    H            2.696162329774     1.500509155807    -0.290739624512
    H            2.014740958900     0.940499888667     1.223359073725

	Cleaning optimization helper files.

*** Psi4 exiting successfully. Buy a developer a beer!
