    -----------------------------------------------------------------------
          Psi4: An Open-Source Ab Initio Electronic Structure Package
                              Psi4 1.0.0 Driver

                          Git: Rev {master} 6a9a71b dirty

    J. M. Turney, A. C. Simmonett, R. M. Parrish, E. G. Hohenstein,
    F. A. Evangelista, J. T. Fermann, B. J. Mintz, L. A. Burns, J. J. Wilke,
    M. L. Abrams, N. J. Russ, M. L. Leininger, C. L. Janssen, E. T. Seidl,
    W. D. Allen, H. F. Schaefer, R. A. King, E. F. Valeev, C. D. Sherrill,
    and T. D. Crawford, WIREs Comput. Mol. Sci. 2, 556-565 (2012)
    (doi: 10.1002/wcms.93)

                         Additional Contributions by
    A. E. DePrince, U. Bozkaya, A. Yu. Sokolov, D. G. A. Smith, R. Di Remigio,
    R. M. Richard, J. F. Gonthier, H. R. McAlexander, M. Saitow, and
    B. P. Pritchard
    -----------------------------------------------------------------------


    Psi4 started on: Tue Sep 20 22:40:03 2016

    Process ID:   2133
    PSI4DATADIR: /usr/local/hpc5/psi4conda/share/psi4
    Memory level set to 256.000 MB

  ==> Input File <==

--------------------------------------------------------------------------
memory 60 Gb

molecule molecule_50_psi {
0 1
C           -2.660035785019     1.584622057915    -0.012167147731
H           -1.940236620372     2.258633155412     0.455185783524
H           -3.443437462667     1.379591184042     0.718673219016
H           -3.113113167677     2.109397324650    -0.852908776533
C            2.749914238589     1.583699622259     0.286831749094
H            3.722577317640     1.186390807649    -0.006689140827
H            2.688104988752     1.537462566394     1.374993670474
H            2.712785468238     2.632504187902    -0.006772409018
C           -1.979211596861     0.294576903684    -0.452622753650
H           -1.212008161568     0.524782341241    -1.194437545890
H           -2.702762584585    -0.358043632622    -0.949335190630
C            1.623388698981     0.780282135289    -0.351109588857
H            0.661774386348     1.207432150962    -0.062624052824
H            1.682516940726     0.861612582499    -1.440087887151
C           -1.362407227658    -0.455426299581     0.721893333701
H           -2.156563290144    -0.697779524520     1.434472025166
H           -0.672322639055     0.204304776474     1.256284951657
C           -0.646346517758    -1.743991711415     0.325070226833
H           -1.361992764291    -2.404176074011    -0.174462210619
H           -0.326980558436    -2.264913019068     1.232427512537
C            0.578238027578    -1.566054858801    -0.575573153841
H            0.976526564202    -2.560799193342    -0.787261520933
H            0.281176519142    -1.150187945432    -1.542236108703
C            1.686318472742    -0.696131071689     0.032623566892
H            1.662543842084    -0.788294067229     1.124126804986
H            2.662166580001    -1.077189732066    -0.281038206029
}

set globals {
  reference rhf
  g_convergence gau_verytight
  basis aug-cc-pvtz
  freeze_core true
  scf_type df
  mp_type df
}
optimize('mp2')
--------------------------------------------------------------------------
/usr/local/hpc5/psi4conda/lib/python2.7/site-packages/v2rdm_casscf/v2rdm_casscf.so loaded.

  Memory set to  60.000 GiB by Python script.
gradient() will perform analytic gradient computation.

*** tstart() called on wr21
*** at Tue Sep 20 22:40:03 2016


         ---------------------------------------------------------
                                   SCF
            by Justin Turney, Rob Parrish, and Andy Simmonett
                              RHF Reference
                       12 Threads,  60000 MiB Core
         ---------------------------------------------------------

  ==> Geometry <==

    Molecular point group: c1
    Full point group: C1

    Geometry (in Angstrom), charge = 0, multiplicity = 1:

       Center              X                  Y                   Z               Mass       
    ------------   -----------------  -----------------  -----------------  -----------------
           C         -2.660035785019     1.584622057915    -0.012167147731    12.000000000000
           H         -1.940236620372     2.258633155412     0.455185783524     1.007825032070
           H         -3.443437462667     1.379591184042     0.718673219016     1.007825032070
           H         -3.113113167677     2.109397324650    -0.852908776533     1.007825032070
           C          2.749914238589     1.583699622259     0.286831749094    12.000000000000
           H          3.722577317640     1.186390807649    -0.006689140827     1.007825032070
           H          2.688104988752     1.537462566394     1.374993670474     1.007825032070
           H          2.712785468238     2.632504187902    -0.006772409018     1.007825032070
           C         -1.979211596861     0.294576903684    -0.452622753650    12.000000000000
           H         -1.212008161568     0.524782341241    -1.194437545890     1.007825032070
           H         -2.702762584585    -0.358043632622    -0.949335190630     1.007825032070
           C          1.623388698981     0.780282135289    -0.351109588857    12.000000000000
           H          0.661774386348     1.207432150962    -0.062624052824     1.007825032070
           H          1.682516940726     0.861612582499    -1.440087887151     1.007825032070
           C         -1.362407227658    -0.455426299581     0.721893333701    12.000000000000
           H         -2.156563290144    -0.697779524520     1.434472025166     1.007825032070
           H         -0.672322639055     0.204304776474     1.256284951657     1.007825032070
           C         -0.646346517758    -1.743991711415     0.325070226833    12.000000000000
           H         -1.361992764291    -2.404176074011    -0.174462210619     1.007825032070
           H         -0.326980558436    -2.264913019068     1.232427512537     1.007825032070
           C          0.578238027578    -1.566054858801    -0.575573153841    12.000000000000
           H          0.976526564202    -2.560799193342    -0.787261520933     1.007825032070
           H          0.281176519142    -1.150187945432    -1.542236108703     1.007825032070
           C          1.686318472742    -0.696131071689     0.032623566892    12.000000000000
           H          1.662543842084    -0.788294067229     1.124126804986     1.007825032070
           H          2.662166580001    -1.077189732066    -0.281038206029     1.007825032070

  Running in c1 symmetry.

  Rotational constants: A =      0.07572  B =      0.03847  C =      0.02842 [cm^-1]
  Rotational constants: A =   2270.12451  B =   1153.38875  C =    851.98040 [MHz]
  Nuclear repulsion =  402.834305451222178

  Charge       = 0
  Multiplicity = 1
  Electrons    = 66
  Nalpha       = 33
  Nbeta        = 33

  ==> Algorithm <==

  SCF Algorithm Type is DF.
  DIIS enabled.
  MOM disabled.
  Fractional occupation disabled.
  Guess Type is SAD.
  Energy threshold   = 1.00e-10
  Density threshold  = 1.00e-10
  Integral threshold = 0.00e+00

  ==> Primary Basis <==

  Basis Set: AUG-CC-PVTZ
    Number of shells: 274
    Number of basis function: 782
    Number of Cartesian functions: 890
    Spherical Harmonics?: true
    Max angular momentum: 3

  ==> Pre-Iterations <==

   -------------------------------------------------------
    Irrep   Nso     Nmo     Nalpha   Nbeta   Ndocc  Nsocc
   -------------------------------------------------------
     A        782     782       0       0       0       0
   -------------------------------------------------------
    Total     782     782      33      33      33       0
   -------------------------------------------------------

  ==> Integral Setup <==

  ==> DFJK: Density-Fitted J/K Matrices <==

    J tasked:                  Yes
    K tasked:                  Yes
    wK tasked:                  No
    OpenMP threads:             12
    Integrals threads:          12
    Memory (MB):             42915
    Algorithm:                Core
    Integral Cache:           NONE
    Schwarz Cutoff:          1E-12
    Fitting Condition:       1E-12

   => Auxiliary Basis Set <=

  Basis Set: 
    Number of shells: 492
    Number of basis function: 1660
    Number of Cartesian functions: 2038
    Spherical Harmonics?: true
    Max angular momentum: 4

  Minimum eigenvalue in the overlap matrix is 1.6326216680E-06.
  Using Symmetric Orthogonalization.
  SCF Guess: Superposition of Atomic Densities via on-the-fly atomic UHF.

  ==> Iterations <==

                           Total Energy        Delta E     RMS |[F,P]|

   @DF-RHF iter   0:  -316.94646069118011   -3.16946e+02   6.98565e-03 
   @DF-RHF iter   1:  -313.29115136523302    3.65531e+00   7.31634e-04 
   @DF-RHF iter   2:  -313.50605718177536   -2.14906e-01   2.66475e-04 DIIS
   @DF-RHF iter   3:  -313.53319657021126   -2.71394e-02   9.87158e-05 DIIS
   @DF-RHF iter   4:  -313.53808398965685   -4.88742e-03   1.71582e-05 DIIS
   @DF-RHF iter   5:  -313.53826726826179   -1.83279e-04   5.03683e-06 DIIS
   @DF-RHF iter   6:  -313.53828100396942   -1.37357e-05   1.32999e-06 DIIS
   @DF-RHF iter   7:  -313.53828212243667   -1.11847e-06   2.68564e-07 DIIS
   @DF-RHF iter   8:  -313.53828217039285   -4.79562e-08   8.31927e-08 DIIS
   @DF-RHF iter   9:  -313.53828217426116   -3.86831e-09   2.25732e-08 DIIS
   @DF-RHF iter  10:  -313.53828217457550   -3.14344e-10   6.48894e-09 DIIS
   @DF-RHF iter  11:  -313.53828217460710   -3.16049e-11   1.49325e-09 DIIS
   @DF-RHF iter  12:  -313.53828217460983   -2.72848e-12   3.79599e-10 DIIS
   @DF-RHF iter  13:  -313.53828217460938    4.54747e-13   1.14473e-10 DIIS
   @DF-RHF iter  14:  -313.53828217460983   -4.54747e-13   3.49739e-11 DIIS

  ==> Post-Iterations <==

    Orbital Energies (a.u.)
    -----------------------

    Doubly Occupied:                                                      

       1A    -11.212194     2A    -11.211698     3A    -11.211195  
       4A    -11.210837     5A    -11.210007     6A    -11.209727  
       7A    -11.207593     8A    -11.207219     9A     -1.094806  
      10A     -1.057553    11A     -1.011641    12A     -0.948040  
      13A     -0.883428    14A     -0.824742    15A     -0.796034  
      16A     -0.756216    17A     -0.655838    18A     -0.618277  
      19A     -0.610409    20A     -0.593620    21A     -0.571574  
      22A     -0.568586    23A     -0.548979    24A     -0.524367  
      25A     -0.515789    26A     -0.502367    27A     -0.494457  
      28A     -0.470451    29A     -0.469191    30A     -0.461806  
      31A     -0.442374    32A     -0.438996    33A     -0.435257  

    Virtual:                                                              

      34A      0.028208    35A      0.032582    36A      0.033961  
      37A      0.034846    38A      0.047250    39A      0.049535  
      40A      0.051128    41A      0.053037    42A      0.055436  
      43A      0.068046    44A      0.069002    45A      0.072732  
      46A      0.075692    47A      0.077269    48A      0.081026  
      49A      0.085145    50A      0.095090    51A      0.099053  
      52A      0.113436    53A      0.115600    54A      0.121823  
      55A      0.128169    56A      0.128714    57A      0.134548  
      58A      0.138089    59A      0.141281    60A      0.142093  
      61A      0.144693    62A      0.149276    63A      0.150677  
      64A      0.151273    65A      0.157435    66A      0.159752  
      67A      0.161913    68A      0.170341    69A      0.173489  
      70A      0.176195    71A      0.179396    72A      0.184107  
      73A      0.186636    74A      0.188662    75A      0.191804  
      76A      0.199357    77A      0.216477    78A      0.224970  
      79A      0.227113    80A      0.234438    81A      0.236397  
      82A      0.245731    83A      0.255820    84A      0.256540  
      85A      0.260504    86A      0.272714    87A      0.277948  
      88A      0.279772    89A      0.283048    90A      0.291310  
      91A      0.297498    92A      0.301624    93A      0.303630  
      94A      0.317538    95A      0.318632    96A      0.324465  
      97A      0.327358    98A      0.332319    99A      0.334571  
     100A      0.337959   101A      0.342159   102A      0.344050  
     103A      0.352126   104A      0.352610   105A      0.360027  
     106A      0.361967   107A      0.365786   108A      0.369916  
     109A      0.373707   110A      0.374416   111A      0.377704  
     112A      0.383236   113A      0.385884   114A      0.390166  
     115A      0.396227   116A      0.397556   117A      0.399031  
     118A      0.400728   119A      0.409393   120A      0.410267  
     121A      0.415886   122A      0.416142   123A      0.420290  
     124A      0.423449   125A      0.427365   126A      0.433971  
     127A      0.440693   128A      0.445528   129A      0.449018  
     130A      0.451505   131A      0.456291   132A      0.466018  
     133A      0.467718   134A      0.469064   135A      0.474162  
     136A      0.476999   137A      0.480710   138A      0.482580  
     139A      0.486023   140A      0.495011   141A      0.497245  
     142A      0.499298   143A      0.503968   144A      0.509143  
     145A      0.510218   146A      0.518175   147A      0.519346  
     148A      0.522413   149A      0.526065   150A      0.530665  
     151A      0.536886   152A      0.538292   153A      0.544056  
     154A      0.547886   155A      0.549409   156A      0.554431  
     157A      0.558238   158A      0.560995   159A      0.565602  
     160A      0.571206   161A      0.575443   162A      0.578583  
     163A      0.586642   164A      0.594230   165A      0.599565  
     166A      0.605340   167A      0.608592   168A      0.616786  
     169A      0.618743   170A      0.624444   171A      0.625978  
     172A      0.631343   173A      0.634059   174A      0.642139  
     175A      0.643172   176A      0.653031   177A      0.657154  
     178A      0.663069   179A      0.666645   180A      0.671397  
     181A      0.675553   182A      0.678685   183A      0.683581  
     184A      0.690344   185A      0.691096   186A      0.692942  
     187A      0.706101   188A      0.714732   189A      0.716258  
     190A      0.724394   191A      0.733247   192A      0.736765  
     193A      0.744099   194A      0.746875   195A      0.754616  
     196A      0.757082   197A      0.763543   198A      0.786610  
     199A      0.791812   200A      0.792674   201A      0.802355  
     202A      0.804425   203A      0.811153   204A      0.825114  
     205A      0.837152   206A      0.838626   207A      0.840329  
     208A      0.846984   209A      0.854010   210A      0.860287  
     211A      0.868801   212A      0.874370   213A      0.884399  
     214A      0.885997   215A      0.892567   216A      0.896354  
     217A      0.904926   218A      0.905670   219A      0.911407  
     220A      0.924017   221A      0.926922   222A      0.931933  
     223A      0.933290   224A      0.934936   225A      0.939920  
     226A      0.945440   227A      0.948967   228A      0.951526  
     229A      0.952919   230A      0.963044   231A      0.964115  
     232A      0.972077   233A      0.976299   234A      0.983152  
     235A      0.987738   236A      0.992703   237A      0.998131  
     238A      1.003739   239A      1.005976   240A      1.011687  
     241A      1.018918   242A      1.023715   243A      1.031416  
     244A      1.039769   245A      1.040488   246A      1.046853  
     247A      1.050084   248A      1.054274   249A      1.059853  
     250A      1.064040   251A      1.067538   252A      1.075843  
     253A      1.085165   254A      1.089995   255A      1.096814  
     256A      1.099753   257A      1.104121   258A      1.108308  
     259A      1.116814   260A      1.124486   261A      1.126281  
     262A      1.135435   263A      1.139344   264A      1.145796  
     265A      1.154636   266A      1.156119   267A      1.165525  
     268A      1.172335   269A      1.176808   270A      1.179209  
     271A      1.186037   272A      1.188253   273A      1.189866  
     274A      1.195369   275A      1.202165   276A      1.205552  
     277A      1.211349   278A      1.212251   279A      1.222715  
     280A      1.225813   281A      1.229259   282A      1.236699  
     283A      1.242583   284A      1.246922   285A      1.250356  
     286A      1.259836   287A      1.265680   288A      1.273128  
     289A      1.277868   290A      1.280203   291A      1.283014  
     292A      1.291458   293A      1.302819   294A      1.303721  
     295A      1.313039   296A      1.323202   297A      1.328394  
     298A      1.330148   299A      1.341138   300A      1.343718  
     301A      1.350173   302A      1.352475   303A      1.364555  
     304A      1.368863   305A      1.374746   306A      1.380799  
     307A      1.389910   308A      1.395657   309A      1.403944  
     310A      1.408937   311A      1.414734   312A      1.422982  
     313A      1.428800   314A      1.432344   315A      1.446262  
     316A      1.452449   317A      1.461780   318A      1.463585  
     319A      1.469725   320A      1.480655   321A      1.488027  
     322A      1.497542   323A      1.506238   324A      1.511162  
     325A      1.515777   326A      1.523465   327A      1.527153  
     328A      1.530305   329A      1.533621   330A      1.554909  
     331A      1.564495   332A      1.573932   333A      1.589058  
     334A      1.591696   335A      1.603295   336A      1.606958  
     337A      1.612010   338A      1.614567   339A      1.618572  
     340A      1.633122   341A      1.640110   342A      1.642810  
     343A      1.646198   344A      1.662708   345A      1.666652  
     346A      1.670226   347A      1.672351   348A      1.679786  
     349A      1.685436   350A      1.691908   351A      1.698732  
     352A      1.707603   353A      1.708634   354A      1.716100  
     355A      1.719943   356A      1.723983   357A      1.732523  
     358A      1.736132   359A      1.742751   360A      1.751145  
     361A      1.757419   362A      1.760620   363A      1.773321  
     364A      1.777638   365A      1.780747   366A      1.790703  
     367A      1.798421   368A      1.801736   369A      1.805186  
     370A      1.813586   371A      1.823744   372A      1.830899  
     373A      1.836070   374A      1.839150   375A      1.841465  
     376A      1.846707   377A      1.856085   378A      1.864636  
     379A      1.866642   380A      1.873707   381A      1.877524  
     382A      1.887133   383A      1.893910   384A      1.901923  
     385A      1.908436   386A      1.917649   387A      1.918070  
     388A      1.921903   389A      1.931181   390A      1.936287  
     391A      1.945450   392A      1.950388   393A      1.958293  
     394A      1.967348   395A      1.976375   396A      1.981548  
     397A      1.984422   398A      1.991139   399A      1.996419  
     400A      2.012021   401A      2.012420   402A      2.021688  
     403A      2.023830   404A      2.031478   405A      2.042734  
     406A      2.051263   407A      2.052793   408A      2.069621  
     409A      2.072291   410A      2.080131   411A      2.087520  
     412A      2.100968   413A      2.112750   414A      2.117305  
     415A      2.122331   416A      2.133501   417A      2.138444  
     418A      2.140484   419A      2.152040   420A      2.156471  
     421A      2.172588   422A      2.176696   423A      2.178290  
     424A      2.188147   425A      2.193806   426A      2.199324  
     427A      2.220577   428A      2.223783   429A      2.230430  
     430A      2.242863   431A      2.246520   432A      2.250207  
     433A      2.265833   434A      2.274688   435A      2.285773  
     436A      2.289076   437A      2.303057   438A      2.303986  
     439A      2.308923   440A      2.325754   441A      2.337940  
     442A      2.349762   443A      2.355429   444A      2.362174  
     445A      2.369703   446A      2.379370   447A      2.383825  
     448A      2.392979   449A      2.403469   450A      2.414402  
     451A      2.424454   452A      2.431185   453A      2.442728  
     454A      2.449722   455A      2.455878   456A      2.469025  
     457A      2.486942   458A      2.498782   459A      2.504149  
     460A      2.510529   461A      2.518472   462A      2.531609  
     463A      2.540110   464A      2.548448   465A      2.549549  
     466A      2.555544   467A      2.581383   468A      2.590748  
     469A      2.625695   470A      2.632300   471A      2.647513  
     472A      2.659391   473A      2.668326   474A      2.689570  
     475A      2.704625   476A      2.714934   477A      2.726626  
     478A      2.735107   479A      2.755459   480A      2.768335  
     481A      2.778448   482A      2.803129   483A      2.816544  
     484A      2.842877   485A      2.942704   486A      2.974350  
     487A      3.019046   488A      3.044252   489A      3.067307  
     490A      3.128723   491A      3.173417   492A      3.238022  
     493A      3.318244   494A      3.319712   495A      3.335310  
     496A      3.414989   497A      3.434323   498A      3.465957  
     499A      3.485258   500A      3.495805   501A      3.503850  
     502A      3.505862   503A      3.524764   504A      3.530345  
     505A      3.545512   506A      3.556154   507A      3.573074  
     508A      3.584512   509A      3.592392   510A      3.602444  
     511A      3.611031   512A      3.618632   513A      3.630536  
     514A      3.649057   515A      3.658052   516A      3.667186  
     517A      3.675838   518A      3.686327   519A      3.698683  
     520A      3.703645   521A      3.715605   522A      3.717794  
     523A      3.730017   524A      3.739335   525A      3.743653  
     526A      3.761690   527A      3.770094   528A      3.786494  
     529A      3.789245   530A      3.794798   531A      3.801245  
     532A      3.815097   533A      3.816429   534A      3.837285  
     535A      3.841534   536A      3.855970   537A      3.856788  
     538A      3.865500   539A      3.874896   540A      3.886531  
     541A      3.889469   542A      3.891355   543A      3.912132  
     544A      3.915111   545A      3.917750   546A      3.931945  
     547A      3.934034   548A      3.939130   549A      3.942835  
     550A      3.953513   551A      3.967031   552A      3.968603  
     553A      3.982716   554A      3.990202   555A      3.993484  
     556A      4.006728   557A      4.010442   558A      4.014348  
     559A      4.027418   560A      4.031839   561A      4.041719  
     562A      4.052090   563A      4.057280   564A      4.065221  
     565A      4.072576   566A      4.077572   567A      4.087370  
     568A      4.096450   569A      4.100298   570A      4.105109  
     571A      4.125333   572A      4.128597   573A      4.135051  
     574A      4.145858   575A      4.161946   576A      4.163733  
     577A      4.168646   578A      4.182044   579A      4.192630  
     580A      4.198040   581A      4.207032   582A      4.217832  
     583A      4.227353   584A      4.237289   585A      4.246588  
     586A      4.258121   587A      4.260430   588A      4.269506  
     589A      4.283088   590A      4.287070   591A      4.295182  
     592A      4.303926   593A      4.315647   594A      4.321073  
     595A      4.332877   596A      4.338535   597A      4.341013  
     598A      4.348118   599A      4.354750   600A      4.372007  
     601A      4.376639   602A      4.386055   603A      4.402680  
     604A      4.408849   605A      4.429411   606A      4.444829  
     607A      4.454005   608A      4.475574   609A      4.486173  
     610A      4.498807   611A      4.517443   612A      4.522710  
     613A      4.530871   614A      4.534419   615A      4.564380  
     616A      4.573296   617A      4.596776   618A      4.603889  
     619A      4.618948   620A      4.640905   621A      4.652954  
     622A      4.668740   623A      4.682353   624A      4.685273  
     625A      4.687027   626A      4.700875   627A      4.711754  
     628A      4.714312   629A      4.730771   630A      4.743598  
     631A      4.752325   632A      4.762585   633A      4.766418  
     634A      4.788961   635A      4.793078   636A      4.802812  
     637A      4.823895   638A      4.824942   639A      4.843496  
     640A      4.847454   641A      4.858995   642A      4.864382  
     643A      4.878584   644A      4.880189   645A      4.892666  
     646A      4.898795   647A      4.910765   648A      4.912860  
     649A      4.924830   650A      4.936498   651A      4.950574  
     652A      4.958854   653A      4.981446   654A      4.986765  
     655A      5.003891   656A      5.025313   657A      5.034019  
     658A      5.045723   659A      5.060513   660A      5.077975  
     661A      5.088179   662A      5.099744   663A      5.106158  
     664A      5.123047   665A      5.129309   666A      5.151633  
     667A      5.153055   668A      5.177549   669A      5.180441  
     670A      5.191821   671A      5.216830   672A      5.230629  
     673A      5.242657   674A      5.246661   675A      5.258741  
     676A      5.272033   677A      5.286565   678A      5.288036  
     679A      5.294384   680A      5.296596   681A      5.319493  
     682A      5.333044   683A      5.338736   684A      5.347931  
     685A      5.361753   686A      5.372601   687A      5.386822  
     688A      5.393987   689A      5.399972   690A      5.407817  
     691A      5.415749   692A      5.433103   693A      5.440464  
     694A      5.442530   695A      5.462624   696A      5.472767  
     697A      5.477319   698A      5.495803   699A      5.504402  
     700A      5.511804   701A      5.526032   702A      5.539599  
     703A      5.554387   704A      5.568255   705A      5.576654  
     706A      5.598385   707A      5.611130   708A      5.620679  
     709A      5.628116   710A      5.639437   711A      5.658285  
     712A      5.674607   713A      5.693673   714A      5.699727  
     715A      5.712376   716A      5.721681   717A      5.726574  
     718A      5.741129   719A      5.755511   720A      5.764333  
     721A      5.772869   722A      5.782108   723A      5.790729  
     724A      5.808292   725A      5.819298   726A      5.827723  
     727A      5.849095   728A      5.881782   729A      5.890902  
     730A      5.901247   731A      5.937958   732A      5.955470  
     733A      5.977576   734A      6.011212   735A      6.044094  
     736A      6.051833   737A      6.061914   738A      6.070886  
     739A      6.097535   740A      6.128340   741A      6.155250  
     742A      6.168946   743A      6.202540   744A      6.224332  
     745A      6.235324   746A      6.239027   747A      6.245019  
     748A      6.262591   749A      6.289555   750A      6.298640  
     751A      6.320430   752A      6.342817   753A      6.354126  
     754A      6.391623   755A      6.400678   756A      6.413812  
     757A      6.453737   758A      6.486345   759A      6.599887  
     760A      6.613632   761A      6.701235   762A      6.716479  
     763A      6.742484   764A      6.783141   765A      6.837042  
     766A      6.852609   767A      6.882079   768A      6.890555  
     769A      6.969587   770A      6.992598   771A      7.049384  
     772A      7.089848   773A      7.126848   774A      7.152557  
     775A     18.077044   776A     18.233643   777A     18.373788  
     778A     18.459801   779A     18.683738   780A     19.252092  
     781A     19.620541   782A     19.948086  

    Final Occupation by Irrep:
              A 
    DOCC [    33 ]

  Energy converged.

  @DF-RHF Final Energy:  -313.53828217460983

   => Energetics <=

    Nuclear Repulsion Energy =            402.8343054512221784
    One-Electron Energy =               -1220.7946413326349102
    Two-Electron Energy =                 504.4220537068033536
    DFT Exchange-Correlation Energy =       0.0000000000000000
    Empirical Dispersion Energy =           0.0000000000000000
    PCM Polarization Energy =               0.0000000000000000
    EFP Energy =                            0.0000000000000000
    Total Energy =                       -313.5382821746093214


  Saving occupied orbitals to File 180.

*** tstop() called on wr21 at Tue Sep 20 22:41:39 2016
Module time:
	user time   =    1011.12 seconds =      16.85 minutes
	system time =      13.86 seconds =       0.23 minutes
	total time  =         96 seconds =       1.60 minutes
Total time:
	user time   =    1011.12 seconds =      16.85 minutes
	system time =      13.86 seconds =       0.23 minutes
	total time  =         96 seconds =       1.60 minutes


Properties will be evaluated at   0.000000,   0.000000,   0.000000 Bohr

Properties computed using the SCF density matrix

  Nuclear Dipole Moment: (a.u.)
     X:     0.1132      Y:     2.4381      Z:     0.2797

  Electronic Dipole Moment: (a.u.)
     X:    -0.1249      Y:    -2.4786      Z:    -0.3112

  Dipole Moment: (a.u.)
     X:    -0.0117      Y:    -0.0405      Z:    -0.0316     Total:     0.0527

  Dipole Moment: (Debye)
     X:    -0.0297      Y:    -0.1029      Z:    -0.0802     Total:     0.1338


  //>>>>>>>>>>>>>>>>>>>>>>>>>>>>>>>>>>>//
  //               DFMP2               //
  //<<<<<<<<<<<<<<<<<<<<<<<<<<<<<<<<<<<//


*** tstart() called on wr21
*** at Tue Sep 20 22:41:39 2016


*** tstop() called on wr21 at Tue Sep 20 22:41:40 2016
Module time:
	user time   =       3.43 seconds =       0.06 minutes
	system time =       0.05 seconds =       0.00 minutes
	total time  =          1 seconds =       0.02 minutes
Total time:
	user time   =    1014.73 seconds =      16.91 minutes
	system time =      13.91 seconds =       0.23 minutes
	total time  =         97 seconds =       1.62 minutes
	 --------------------------------------------------------
	                          DF-MP2                         
	      2nd-Order Density-Fitted Moller-Plesset Theory     
	              RMP2 Wavefunction,  12 Threads             
	                                                         
	        Rob Parrish, Justin Turney, Andy Simmonett,      
	           Ed Hohenstein, and C. David Sherrill          
	 --------------------------------------------------------

   => Auxiliary Basis Set <=

  Basis Set: 
    Number of shells: 476
    Number of basis function: 1676
    Number of Cartesian functions: 2078
    Spherical Harmonics?: true
    Max angular momentum: 4

	 --------------------------------------------------------
	                 NBF =   782, NAUX =  1676
	 --------------------------------------------------------
	   CLASS    FOCC     OCC    AOCC    AVIR     VIR    FVIR
	   PAIRS       8      33      25     749     749       0
	 --------------------------------------------------------

DGAS Warning! /src/lib/libfock/apps.cc:80 is not currently checking restricted

         ------------------------------------------------------------
                                     CPHF                           
                                  Rob Parrish                       
         ------------------------------------------------------------

  ==> Geometry <==

    Molecular point group: c1
    Full point group: C1

    Geometry (in Angstrom), charge = 0, multiplicity = 1:

       Center              X                  Y                   Z               Mass       
    ------------   -----------------  -----------------  -----------------  -----------------
           C         -2.660035785019     1.584622057915    -0.012167147731    12.000000000000
           H         -1.940236620372     2.258633155412     0.455185783524     1.007825032070
           H         -3.443437462667     1.379591184042     0.718673219016     1.007825032070
           H         -3.113113167677     2.109397324650    -0.852908776533     1.007825032070
           C          2.749914238589     1.583699622259     0.286831749094    12.000000000000
           H          3.722577317640     1.186390807649    -0.006689140827     1.007825032070
           H          2.688104988752     1.537462566394     1.374993670474     1.007825032070
           H          2.712785468238     2.632504187902    -0.006772409018     1.007825032070
           C         -1.979211596861     0.294576903684    -0.452622753650    12.000000000000
           H         -1.212008161568     0.524782341241    -1.194437545890     1.007825032070
           H         -2.702762584585    -0.358043632622    -0.949335190630     1.007825032070
           C          1.623388698981     0.780282135289    -0.351109588857    12.000000000000
           H          0.661774386348     1.207432150962    -0.062624052824     1.007825032070
           H          1.682516940726     0.861612582499    -1.440087887151     1.007825032070
           C         -1.362407227658    -0.455426299581     0.721893333701    12.000000000000
           H         -2.156563290144    -0.697779524520     1.434472025166     1.007825032070
           H         -0.672322639055     0.204304776474     1.256284951657     1.007825032070
           C         -0.646346517758    -1.743991711415     0.325070226833    12.000000000000
           H         -1.361992764291    -2.404176074011    -0.174462210619     1.007825032070
           H         -0.326980558436    -2.264913019068     1.232427512537     1.007825032070
           C          0.578238027578    -1.566054858801    -0.575573153841    12.000000000000
           H          0.976526564202    -2.560799193342    -0.787261520933     1.007825032070
           H          0.281176519142    -1.150187945432    -1.542236108703     1.007825032070
           C          1.686318472742    -0.696131071689     0.032623566892    12.000000000000
           H          1.662543842084    -0.788294067229     1.124126804986     1.007825032070
           H          2.662166580001    -1.077189732066    -0.281038206029     1.007825032070

  Nuclear repulsion =  402.834305451222178
  Reference energy  = -313.538282174609833

  ==> Basis Set <==

  Basis Set: AUG-CC-PVTZ
    Number of shells: 274
    Number of basis function: 782
    Number of Cartesian functions: 890
    Spherical Harmonics?: true
    Max angular momentum: 3

  ==> CGRSolver (by Rob Parrish) <==

   Number of roots    =         1
   Preconditioning    =    JACOBI
   Convergence cutoff =     1E-06
   Maximum iterations =       100

  ==> CPHFRHamiltonian (by Rob Parrish) <== 

  ==> DFJK: Density-Fitted J/K Matrices <==

    J tasked:                  Yes
    K tasked:                  Yes
    wK tasked:                  No
    OpenMP threads:             12
    Integrals threads:          12
    Memory (MB):             42915
    Algorithm:                Core
    Integral Cache:           NONE
    Schwarz Cutoff:          1E-12
    Fitting Condition:       1E-12

   => Auxiliary Basis Set <=

  Basis Set: 
    Number of shells: 492
    Number of basis function: 1660
    Number of Cartesian functions: 2038
    Spherical Harmonics?: true
    Max angular momentum: 4

  ==> CPHF Iterations <==

  => Iterations <=

             Iter  Converged  Remaining    Residual
  CGR           1          0          1   9.144E-02
  CGR           2          0          1   1.355E-02
  CGR           3          0          1   4.263E-03
  CGR           4          0          1   8.910E-04
  CGR           5          0          1   2.084E-04
  CGR           6          0          1   4.920E-05
  CGR           7          0          1   1.336E-05
  CGR           8          0          1   3.474E-06
  CGR           9          1          0   8.804E-07

    CGRSolver converged.

  ==> DFCorrGrad: Density-Fitted Correlated Gradients <==

    OpenMP threads:             12
    Integrals threads:          12
    Memory (MB):             42915
    Schwarz Cutoff:          0E+00
    Fitting Condition:       1E-12

   => Auxiliary Basis Set <=

  Basis Set: 
    Number of shells: 492
    Number of basis function: 1660
    Number of Cartesian functions: 2038
    Spherical Harmonics?: true
    Max angular momentum: 4

	-----------------------------------------------------------
	 ==================> DF-MP2 Energies <==================== 
	-----------------------------------------------------------
	 Reference Energy          =    -313.5382821746098330 [Eh]
	 Singles Energy            =      -0.0000000000000001 [Eh]
	 Same-Spin Energy          =      -0.3170674462368170 [Eh]
	 Opposite-Spin Energy      =      -1.1264650895723958 [Eh]
	 Correlation Energy        =      -1.4435325358092128 [Eh]
	 Total Energy              =    -314.9818147104190302 [Eh]
	-----------------------------------------------------------
	 ================> DF-SCS-MP2 Energies <================== 
	-----------------------------------------------------------
	 SCS Same-Spin Scale       =       0.3333333333333333 [-]
	 SCS Opposite-Spin Scale   =       1.2000000000000000 [-]
	 SCS Same-Spin Energy      =      -0.1056891487456057 [Eh]
	 SCS Opposite-Spin Energy  =      -1.3517581074868750 [Eh]
	 SCS Correlation Energy    =      -1.4574472562324807 [Eh]
	 SCS Total Energy          =    -314.9957294308422888 [Eh]
	-----------------------------------------------------------


  -Total Gradient:
     Atom            X                  Y                   Z
    ------   -----------------  -----------------  -----------------
       1       -0.000000063581    -0.000000127432     0.000000256062
       2       -0.000000118454    -0.000000164472    -0.000000049853
       3        0.000000215197     0.000000014320    -0.000000131612
       4        0.000000073344    -0.000000098517     0.000000178468
       5       -0.000000354893    -0.000000198407    -0.000000146573
       6        0.000000430453    -0.000000182917    -0.000000164337
       7        0.000000022532     0.000000008618     0.000000513202
       8       -0.000000067191     0.000000359939    -0.000000095629
       9        0.000000627704    -0.000000543846    -0.000000177369
      10       -0.000000145425     0.000000077068     0.000000186734
      11        0.000000126963     0.000000088706     0.000000195404
      12        0.000000531688    -0.000000370760     0.000000277391
      13       -0.000000466442     0.000000350540     0.000000070197
      14        0.000000059126     0.000000107045    -0.000000560187
      15       -0.000000817972     0.000000773242    -0.000000061332
      16        0.000000079178    -0.000000198624     0.000000053276
      17       -0.000000009077     0.000000349530     0.000000021125
      18       -0.000000421731     0.000000444588    -0.000000426079
      19       -0.000000421591    -0.000000477630    -0.000000430632
      20        0.000000340050    -0.000000480961     0.000000675056
      21        0.000000389250    -0.000000079787     0.000001033597
      22        0.000000088507    -0.000000763235     0.000000032973
      23       -0.000000404045     0.000000689069    -0.000001086379
      24       -0.000000324200     0.000000723885    -0.000000580824
      25       -0.000000093756    -0.000000193333     0.000000774658
      26        0.000000724364    -0.000000106632    -0.000000357335


			-----------------------------------------
			 OPTKING 2.0: for geometry optimizations 
			  - R.A. King,  Bethel University        
			-----------------------------------------

	Internal coordinates to be generated automatically.
	Detected frag 1 with atoms:  1 2 3 4 5 6 7 8 9 10 11 12 13 14 15 16 17 18 19 20
	 21 22 23 24 25 26
	---Fragment 1 Bond Connectivity---
	 1 : 2 3 4 9
	 2 : 1
	 3 : 1
	 4 : 1
	 5 : 6 7 8 12
	 6 : 5
	 7 : 5
	 8 : 5
	 9 : 1 10 11 15
	 10 : 9
	 11 : 9
	 12 : 5 13 14 24
	 13 : 12
	 14 : 12
	 15 : 9 16 17 18
	 16 : 15
	 17 : 15
	 18 : 15 19 20 21
	 19 : 18
	 20 : 18
	 21 : 18 22 23 24
	 22 : 21
	 23 : 21
	 24 : 12 21 25 26
	 25 : 24
	 26 : 24

	---Fragment 1 Geometry and Gradient---
	 C          -5.0267391374        2.9945017136       -0.0229925770
	 H          -3.6665158455        4.2681980984        0.8601764704
	 H          -6.5071537602        2.6070495132        1.3580955630
	 H          -5.8829313076        3.9861832490       -1.6117640040
	 C           5.1965847999        2.9927585628        0.5420334520
	 H           7.0346516388        2.2419537130       -0.0126406442
	 H           5.0797822452        2.9053831900        2.5983614716
	 H           5.1264215922        4.9747119588       -0.0127979983
	 C          -3.7401678771        0.5566696730       -0.8553330459
	 H          -2.2903634962        0.9916949043       -2.2571598446
	 H          -5.1074810871       -0.6766044093       -1.7939835186
	 C           3.0677600483        1.4745195421       -0.6635009656
	 H           1.2505723520        2.2817160894       -0.1183423092
	 H           3.1794962319        1.6282118136       -2.7213717140
	 C          -2.5745765417       -0.8606309799        1.3641806979
	 H          -4.0753140066       -1.3186122025        2.7107592728
	 H          -1.2705056608        0.3860800752        2.3740345035
	 C          -1.2214179055       -3.2956667126        0.6142937027
	 H          -2.5737933195       -4.5432343551       -0.3296857986
	 H          -0.6179037062       -4.2800653208        2.3289504773
	 C           1.0927115117       -2.9594147922       -1.0876756302
	 H           1.8453677678       -4.8392091567       -1.4877086695
	 H           0.5313466162       -2.1735402182       -2.9144038777
	 C           3.1866800863       -1.3154970781        0.0616496069
	 H           3.1417525455       -1.4896598992        2.1242918001
	 H           5.0307657563       -2.0355935868       -0.5310852423
	            -0.0000000636       -0.0000001274        0.0000002561
	            -0.0000001185       -0.0000001645       -0.0000000499
	             0.0000002152        0.0000000143       -0.0000001316
	             0.0000000733       -0.0000000985        0.0000001785
	            -0.0000003549       -0.0000001984       -0.0000001466
	             0.0000004305       -0.0000001829       -0.0000001643
	             0.0000000225        0.0000000086        0.0000005132
	            -0.0000000672        0.0000003599       -0.0000000956
	             0.0000006277       -0.0000005438       -0.0000001774
	            -0.0000001454        0.0000000771        0.0000001867
	             0.0000001270        0.0000000887        0.0000001954
	             0.0000005317       -0.0000003708        0.0000002774
	            -0.0000004664        0.0000003505        0.0000000702
	             0.0000000591        0.0000001070       -0.0000005602
	            -0.0000008180        0.0000007732       -0.0000000613
	             0.0000000792       -0.0000001986        0.0000000533
	            -0.0000000091        0.0000003495        0.0000000211
	            -0.0000004217        0.0000004446       -0.0000004261
	            -0.0000004216       -0.0000004776       -0.0000004306
	             0.0000003401       -0.0000004810        0.0000006751
	             0.0000003893       -0.0000000798        0.0000010336
	             0.0000000885       -0.0000007632        0.0000000330
	            -0.0000004040        0.0000006891       -0.0000010864
	            -0.0000003242        0.0000007239       -0.0000005808
	            -0.0000000938       -0.0000001933        0.0000007747
	             0.0000007244       -0.0000001066       -0.0000003573

	Previous optimization step data not found.  Starting new optimization.

	---Fragment 1 Intrafragment Coordinates---
	 - Coordinate -           - BOHR/RAD -       - ANG/DEG -
	 R(1,2)           =         2.062158	       1.091247
	 R(1,3)           =         2.061347	       1.090818
	 R(1,4)           =         2.059294	       1.089731
	 R(1,9)           =         2.879424	       1.523725
	 R(5,6)           =         2.061519	       1.090909
	 R(5,7)           =         2.061495	       1.090896
	 R(5,8)           =         2.059345	       1.089758
	 R(5,12)          =         2.879281	       1.523650
	 R(9,10)          =         2.063080	       1.091735
	 R(9,11)          =         2.066779	       1.093692
	 R(9,15)          =         2.879859	       1.523956
	 R(12,13)         =         2.061780	       1.091047
	 R(12,14)         =         2.066625	       1.093611
	 R(12,24)         =         2.885165	       1.526764
	 R(15,16)         =         2.067664	       1.094161
	 R(15,17)         =         2.067533	       1.094092
	 R(15,18)         =         2.884921	       1.526634
	 R(18,19)         =         2.067956	       1.094315
	 R(18,20)         =         2.067200	       1.093915
	 R(18,21)         =         2.892224	       1.530499
	 R(21,22)         =         2.064012	       1.092228
	 R(21,23)         =         2.066317	       1.093448
	 R(21,24)         =         2.899676	       1.534442
	 R(24,25)         =         2.070470	       1.095645
	 R(24,26)         =         2.066525	       1.093558
	 B(1,9,10)        =         1.909097	     109.383216
	 B(1,9,11)        =         1.918653	     109.930743
	 B(1,9,15)        =         1.954899	     112.007478
	 B(2,1,3)         =         1.878501	     107.630199
	 B(2,1,4)         =         1.883074	     107.892165
	 B(2,1,9)         =         1.930506	     110.609853
	 B(3,1,4)         =         1.884755	     107.988518
	 B(3,1,9)         =         1.934170	     110.819794
	 B(4,1,9)         =         1.950307	     111.744345
	 B(5,12,13)       =         1.911873	     109.542231
	 B(5,12,14)       =         1.915300	     109.738627
	 B(5,12,24)       =         1.954331	     111.974904
	 B(6,5,7)         =         1.879126	     107.666006
	 B(6,5,8)         =         1.884307	     107.962828
	 B(6,5,12)        =         1.933201	     110.764242
	 B(7,5,8)         =         1.883474	     107.915094
	 B(7,5,12)        =         1.932002	     110.695581
	 B(8,5,12)        =         1.949253	     111.683958
	 B(9,15,16)       =         1.893538	     108.491725
	 B(9,15,17)       =         1.912362	     109.570245
	 B(9,15,18)       =         1.987672	     113.885220
	 B(10,9,11)       =         1.856818	     106.387849
	 B(10,9,15)       =         1.920934	     110.061433
	 B(11,9,15)       =         1.900875	     108.912102
	 B(12,24,21)      =         2.002974	     114.761944
	 B(12,24,25)      =         1.907986	     109.319558
	 B(12,24,26)      =         1.877226	     107.557140
	 B(13,12,14)      =         1.856496	     106.369389
	 B(13,12,24)      =         1.926729	     110.393452
	 B(14,12,24)      =         1.896484	     108.660543
	 B(15,18,19)      =         1.897709	     108.730722
	 B(15,18,20)      =         1.899981	     108.860888
	 B(15,18,21)      =         2.015426	     115.475421
	 B(16,15,17)      =         1.847580	     105.858546
	 B(16,15,18)      =         1.899447	     108.830313
	 B(17,15,18)      =         1.917795	     109.881570
	 B(18,21,22)      =         1.875424	     107.453861
	 B(18,21,23)      =         1.925248	     110.308603
	 B(18,21,24)      =         1.993760	     114.234042
	 B(19,18,20)      =         1.856957	     106.395796
	 B(19,18,21)      =         1.901564	     108.951620
	 B(20,18,21)      =         1.885859	     108.051762
	 B(21,24,25)      =         1.908696	     109.360222
	 B(21,24,26)      =         1.910459	     109.461237
	 B(22,21,23)      =         1.848459	     105.908890
	 B(22,21,24)      =         1.906908	     109.257808
	 B(23,21,24)      =         1.908131	     109.327826
	 B(25,24,26)      =         1.850213	     106.009374
	 D(1,9,15,16)     =         1.041607	      59.679682
	 D(1,9,15,17)     =        -0.967817	     -55.451822
	 D(1,9,15,18)     =        -3.123564	    -178.967048
	 D(2,1,9,10)      =        -1.075584	     -61.626397
	 D(2,1,9,11)      =        -3.108357	    -178.095722
	 D(2,1,9,15)      =         1.059032	      60.678053
	 D(3,1,9,10)      =         3.125643	     179.086138
	 D(3,1,9,11)      =         1.092870	      62.616813
	 D(3,1,9,15)      =        -1.022927	     -58.609413
	 D(4,1,9,10)      =         1.022710	      58.596965
	 D(4,1,9,11)      =        -1.010063	     -57.872360
	 D(4,1,9,15)      =        -3.125860	    -179.098586
	 D(5,12,24,21)    =         3.140982	     179.964994
	 D(5,12,24,25)    =         0.989539	      56.696401
	 D(5,12,24,26)    =        -1.011898	     -57.977461
	 D(6,5,12,13)     =        -3.119835	    -178.753351
	 D(6,5,12,14)     =        -1.087770	     -62.324613
	 D(6,5,12,24)     =         1.019785	      58.429370
	 D(7,5,12,13)     =         1.080269	      61.894827
	 D(7,5,12,14)     =         3.112333	     178.323566
	 D(7,5,12,24)     =        -1.063297	     -60.922451
	 D(8,5,12,13)     =        -1.018846	     -58.375579
	 D(8,5,12,14)     =         1.013219	      58.053159
	 D(8,5,12,24)     =         3.120773	     178.807142
	 D(9,15,18,19)    =        -1.024848	     -58.719449
	 D(9,15,18,20)    =        -3.041026	    -174.237960
	 D(9,15,18,21)    =         1.118074	      64.060927
	 D(10,9,15,16)    =        -3.113725	    -178.403301
	 D(10,9,15,17)    =         1.160036	      66.465195
	 D(10,9,15,18)    =        -0.995711	     -57.050031
	 D(11,9,15,16)    =        -1.084411	     -62.132194
	 D(11,9,15,17)    =        -3.093835	    -177.263697
	 D(11,9,15,18)    =         1.033603	      59.221077
	 D(12,24,21,18)   =        -1.637785	     -93.838181
	 D(12,24,21,22)   =         2.544432	     145.785197
	 D(12,24,21,23)   =         0.528882	      30.302729
	 D(13,12,24,21)   =         1.005864	      57.631786
	 D(13,12,24,25)   =        -1.145578	     -65.636807
	 D(13,12,24,26)   =         3.136170	     179.689332
	 D(14,12,24,21)   =        -1.023772	     -58.657824
	 D(14,12,24,25)   =         3.107970	     178.073583
	 D(14,12,24,26)   =         1.106534	      63.399721
	 D(15,18,21,22)   =        -3.128492	    -179.249390
	 D(15,18,21,23)   =        -1.121226	     -64.241541
	 D(15,18,21,24)   =         1.036253	      59.372923
	 D(16,15,18,19)   =         1.089879	      62.445447
	 D(16,15,18,20)   =        -0.926300	     -53.073065
	 D(16,15,18,21)   =        -3.050385	    -174.774177
	 D(17,15,18,19)   =         3.105542	     177.934422
	 D(17,15,18,20)   =         1.089363	      62.415911
	 D(17,15,18,21)   =        -1.034722	     -59.285201
	 D(18,21,24,25)   =         0.513278	      29.408649
	 D(18,21,24,26)   =         2.533223	     145.142996
	 D(19,18,21,22)   =        -0.987618	     -56.586328
	 D(19,18,21,23)   =         1.019648	      58.421521
	 D(19,18,21,24)   =        -3.106058	    -177.964015
	 D(20,18,21,22)   =         1.023041	      58.615950
	 D(20,18,21,23)   =         3.030307	     173.623799
	 D(20,18,21,24)   =        -1.095399	     -62.761737
	 D(22,21,24,25)   =        -1.587691	     -90.967972
	 D(22,21,24,26)   =         0.432255	      24.766375
	 D(23,21,24,25)   =         2.679945	     153.549560
	 D(23,21,24,26)   =        -1.583295	     -90.716094
	 R(9,12)          =         6.872200	       3.636612
	 R(12,15)         =         6.434313	       3.404892

	Current energy   :      -314.9818147104

	Generating empirical Hessian (Schlegel '84) for each fragment.
	Taking RFO optimization step.
	Going to follow RFO solution 1.
	Using RFO vector 1.
	Norm of target step-size    0.00008
	Projected energy change by RFO approximation:        -0.0000000003

	Back-transformation to cartesian coordinates...
	Successfully converged to displaced geometry.

	--- Internal Coordinate Step in ANG or DEG, aJ/ANG or AJ/DEG ---
	 ---------------------------------------------------------------------------
	   Coordinate                Previous        Force       Change         New 
	   ----------                --------       ------       ------       ------
	    1 R(1,2)          =      1.091247     0.000002     0.000000     1.091248
	    2 R(1,3)          =      1.090818     0.000002     0.000000     1.090818
	    3 R(1,4)          =      1.089731     0.000002     0.000000     1.089732
	    4 R(1,9)          =      1.523725     0.000002     0.000001     1.523726
	    5 R(5,6)          =      1.090909    -0.000004    -0.000001     1.090908
	    6 R(5,7)          =      1.090896    -0.000004    -0.000001     1.090895
	    7 R(5,8)          =      1.089758    -0.000003    -0.000001     1.089758
	    8 R(5,12)         =      1.523650    -0.000000    -0.000000     1.523650
	    9 R(9,10)         =      1.091735     0.000002     0.000000     1.091735
	   10 R(9,11)         =      1.093692     0.000002     0.000000     1.093693
	   11 R(9,15)         =      1.523956     0.000007     0.000002     1.523957
	   12 R(12,13)        =      1.091047    -0.000005    -0.000001     1.091046
	   13 R(12,14)        =      1.093611    -0.000005    -0.000001     1.093610
	   14 R(12,24)        =      1.526764     0.000001     0.000000     1.526764
	   15 R(15,16)        =      1.094161    -0.000000    -0.000000     1.094161
	   16 R(15,17)        =      1.094092    -0.000002    -0.000000     1.094091
	   17 R(15,18)        =      1.526634    -0.000002    -0.000001     1.526634
	   18 R(18,19)        =      1.094315    -0.000006    -0.000001     1.094314
	   19 R(18,20)        =      1.093915    -0.000007    -0.000001     1.093914
	   20 R(18,21)        =      1.530499    -0.000002    -0.000001     1.530498
	   21 R(21,22)        =      1.092228    -0.000006    -0.000001     1.092227
	   22 R(21,23)        =      1.093448    -0.000011    -0.000002     1.093446
	   23 R(21,24)        =      1.534442    -0.000002    -0.000001     1.534442
	   24 R(24,25)        =      1.095645    -0.000007    -0.000001     1.095644
	   25 R(24,26)        =      1.093558    -0.000006    -0.000001     1.093557
	   26 B(1,9,10)       =    109.383216    -0.000000    -0.000032   109.383184
	   27 B(1,9,11)       =    109.930743    -0.000000    -0.000003   109.930740
	   28 B(1,9,15)       =    112.007478     0.000000     0.000165   112.007643
	   29 B(2,1,3)        =    107.630199    -0.000000     0.000007   107.630207
	   30 B(2,1,4)        =    107.892165    -0.000000    -0.000011   107.892154
	   31 B(2,1,9)        =    110.609853     0.000000     0.000022   110.609875
	   32 B(3,1,4)        =    107.988518    -0.000000    -0.000017   107.988501
	   33 B(3,1,9)        =    110.819794     0.000000     0.000010   110.819804
	   34 B(4,1,9)        =    111.744345    -0.000000    -0.000013   111.744332
	   35 B(5,12,13)      =    109.542231     0.000000     0.000010   109.542242
	   36 B(5,12,14)      =    109.738627    -0.000000     0.000030   109.738657
	   37 B(5,12,24)      =    111.974904     0.000000     0.000052   111.974957
	   38 B(6,5,7)        =    107.666006     0.000000    -0.000002   107.666004
	   39 B(6,5,8)        =    107.962828    -0.000000    -0.000005   107.962823
	   40 B(6,5,12)       =    110.764242     0.000000     0.000017   110.764259
	   41 B(7,5,8)        =    107.915094     0.000000     0.000004   107.915098
	   42 B(7,5,12)       =    110.695581    -0.000000    -0.000043   110.695538
	   43 B(8,5,12)       =    111.683958     0.000000     0.000029   111.683987
	   44 B(9,15,16)      =    108.491725    -0.000000    -0.000097   108.491627
	   45 B(9,15,17)      =    109.570245     0.000000     0.000069   109.570314
	   46 B(9,15,18)      =    113.885220     0.000000     0.000162   113.885383
	   47 B(10,9,11)      =    106.387849     0.000000    -0.000084   106.387766
	   48 B(10,9,15)      =    110.061433    -0.000000    -0.000079   110.061354
	   49 B(11,9,15)      =    108.912102    -0.000000     0.000020   108.912122
	   50 B(12,24,21)     =    114.761944    -0.000000    -0.000076   114.761868
	   51 B(12,24,25)     =    109.319558    -0.000000    -0.000063   109.319495
	   52 B(12,24,26)     =    107.557140     0.000000     0.000117   107.557257
	   53 B(13,12,14)     =    106.369389     0.000000     0.000015   106.369404
	   54 B(13,12,24)     =    110.393452    -0.000000    -0.000092   110.393360
	   55 B(14,12,24)     =    108.660543    -0.000000    -0.000017   108.660526
	   56 B(15,18,19)     =    108.730722    -0.000000     0.000008   108.730731
	   57 B(15,18,20)     =    108.860888    -0.000000    -0.000066   108.860822
	   58 B(15,18,21)     =    115.475421     0.000000    -0.000033   115.475387
	   59 B(16,15,17)     =    105.858546     0.000000    -0.000041   105.858505
	   60 B(16,15,18)     =    108.830313     0.000000     0.000093   108.830406
	   61 B(17,15,18)     =    109.881570    -0.000000    -0.000199   109.881371
	   62 B(18,21,22)     =    107.453861     0.000000     0.000146   107.454007
	   63 B(18,21,23)     =    110.308603     0.000000     0.000055   110.308659
	   64 B(18,21,24)     =    114.234042    -0.000000    -0.000134   114.233907
	   65 B(19,18,20)     =    106.395796     0.000000    -0.000002   106.395794
	   66 B(19,18,21)     =    108.951620    -0.000000     0.000088   108.951708
	   67 B(20,18,21)     =    108.051762     0.000000     0.000006   108.051768
	   68 B(21,24,25)     =    109.360222     0.000000     0.000064   109.360286
	   69 B(21,24,26)     =    109.461237    -0.000000    -0.000005   109.461232
	   70 B(22,21,23)     =    105.908890    -0.000000    -0.000087   105.908802
	   71 B(22,21,24)     =    109.257808    -0.000000    -0.000044   109.257764
	   72 B(23,21,24)     =    109.327826     0.000000     0.000066   109.327892
	   73 B(25,24,26)     =    106.009374    -0.000000    -0.000033   106.009341
	   74 D(1,9,15,16)    =     59.679682    -0.000000     0.001000    59.680682
	   75 D(1,9,15,17)    =    -55.451822    -0.000000     0.001065   -55.450757
	   76 D(1,9,15,18)    =   -178.967048     0.000000     0.001156  -178.965892
	   77 D(2,1,9,10)     =    -61.626397    -0.000000    -0.000098   -61.626495
	   78 D(2,1,9,11)     =   -178.095722     0.000000     0.000023  -178.095699
	   79 D(2,1,9,15)     =     60.678053    -0.000000    -0.000110    60.677942
	   80 D(3,1,9,10)     =    179.086138    -0.000000    -0.000129   179.086009
	   81 D(3,1,9,11)     =     62.616813     0.000000    -0.000007    62.616806
	   82 D(3,1,9,15)     =    -58.609413    -0.000000    -0.000141   -58.609554
	   83 D(4,1,9,10)     =     58.596965    -0.000000    -0.000106    58.596859
	   84 D(4,1,9,11)     =    -57.872360     0.000000     0.000016   -57.872344
	   85 D(4,1,9,15)     =   -179.098586    -0.000000    -0.000118  -179.098704
	   86 D(5,12,24,21)   =    179.964994     0.000000     0.000417   179.965410
	   87 D(5,12,24,25)   =     56.696401    -0.000000     0.000437    56.696838
	   88 D(5,12,24,26)   =    -57.977461    -0.000000     0.000446   -57.977015
	   89 D(6,5,12,13)    =   -178.753351    -0.000000    -0.000288  -178.753639
	   90 D(6,5,12,14)    =    -62.324613    -0.000000    -0.000247   -62.324859
	   91 D(6,5,12,24)    =     58.429370     0.000000    -0.000213    58.429157
	   92 D(7,5,12,13)    =     61.894827    -0.000000    -0.000268    61.894559
	   93 D(7,5,12,14)    =    178.323566     0.000000    -0.000227   178.323339
	   94 D(7,5,12,24)    =    -60.922451     0.000000    -0.000194   -60.922645
	   95 D(8,5,12,13)    =    -58.375579    -0.000000    -0.000263   -58.375843
	   96 D(8,5,12,14)    =     58.053159     0.000000    -0.000222    58.052937
	   97 D(8,5,12,24)    =    178.807142     0.000000    -0.000189   178.806953
	   98 D(9,15,18,19)   =    -58.719449    -0.000000     0.000545   -58.718904
	   99 D(9,15,18,20)   =   -174.237960     0.000000     0.000578  -174.237382
	  100 D(9,15,18,21)   =     64.060927     0.000000     0.000644    64.061571
	  101 D(10,9,15,16)   =   -178.403301     0.000000     0.001016  -178.402286
	  102 D(10,9,15,17)   =     66.465195     0.000000     0.001081    66.466276
	  103 D(10,9,15,18)   =    -57.050031     0.000000     0.001172   -57.048859
	  104 D(11,9,15,16)   =    -62.132194    -0.000000     0.000882   -62.131312
	  105 D(11,9,15,17)   =   -177.263697    -0.000000     0.000947  -177.262750
	  106 D(11,9,15,18)   =     59.221077     0.000000     0.001039    59.222115
	  107 D(12,24,21,18)  =    -93.838181    -0.000000    -0.000144   -93.838325
	  108 D(12,24,21,22)  =    145.785197    -0.000000    -0.000209   145.784988
	  109 D(12,24,21,23)  =     30.302729     0.000000    -0.000117    30.302612
	  110 D(13,12,24,21)  =     57.631786     0.000000     0.000433    57.632219
	  111 D(13,12,24,25)  =    -65.636807    -0.000000     0.000453   -65.636354
	  112 D(13,12,24,26)  =    179.689332    -0.000000     0.000462   179.689794
	  113 D(14,12,24,21)  =    -58.657824     0.000000     0.000476   -58.657349
	  114 D(14,12,24,25)  =    178.073583     0.000000     0.000496   178.074079
	  115 D(14,12,24,26)  =     63.399721     0.000000     0.000506    63.400226
	  116 D(15,18,21,22)  =   -179.249390    -0.000000    -0.000491  -179.249882
	  117 D(15,18,21,23)  =    -64.241541    -0.000000    -0.000485   -64.242026
	  118 D(15,18,21,24)  =     59.372923     0.000000    -0.000454    59.372469
	  119 D(16,15,18,19)  =     62.445447    -0.000000     0.000596    62.446043
	  120 D(16,15,18,20)  =    -53.073065     0.000000     0.000629   -53.072435
	  121 D(16,15,18,21)  =   -174.774177     0.000000     0.000696  -174.773482
	  122 D(17,15,18,19)  =    177.934422    -0.000000     0.000490   177.934913
	  123 D(17,15,18,20)  =     62.415911    -0.000000     0.000524    62.416435
	  124 D(17,15,18,21)  =    -59.285201    -0.000000     0.000590   -59.284612
	  125 D(18,21,24,25)  =     29.408649    -0.000000    -0.000232    29.408417
	  126 D(18,21,24,26)  =    145.142996    -0.000000    -0.000239   145.142757
	  127 D(19,18,21,22)  =    -56.586328    -0.000000    -0.000434   -56.586763
	  128 D(19,18,21,23)  =     58.421521    -0.000000    -0.000429    58.421093
	  129 D(19,18,21,24)  =   -177.964015     0.000000    -0.000397  -177.964412
	  130 D(20,18,21,22)  =     58.615950    -0.000000    -0.000387    58.615562
	  131 D(20,18,21,23)  =    173.623799    -0.000000    -0.000381   173.623418
	  132 D(20,18,21,24)  =    -62.761737     0.000000    -0.000350   -62.762087
	  133 D(22,21,24,25)  =    -90.967972    -0.000000    -0.000298   -90.968270
	  134 D(22,21,24,26)  =     24.766375    -0.000000    -0.000305    24.766070
	  135 D(23,21,24,25)  =    153.549560     0.000000    -0.000205   153.549354
	  136 D(23,21,24,26)  =    -90.716094     0.000000    -0.000212   -90.716306
	  137 R(9,12)         =      3.636612     0.000001     0.000000     3.636612
	  138 R(12,15)        =      3.404892    -0.000004    -0.000007     3.404884
	 ---------------------------------------------------------------------------

  ==> Convergence Check <==

  Measures of convergence in internal coordinates in au.
  Criteria marked as inactive (o), active & met (*), and active & unmet ( ).
  --------------------------------------------------------------------------------------------- ~
   Step     Total Energy     Delta E     MAX Force     RMS Force      MAX Disp      RMS Disp    ~
  --------------------------------------------------------------------------------------------- ~
    Convergence Criteria             o    2.00e-06 *    1.00e-06 *    6.00e-06 *    4.00e-06 *  ~
  --------------------------------------------------------------------------------------------- ~
      1    -314.98181471   -3.15e+02 o    1.32e-06 *    2.60e-07 *    2.05e-05      6.42e-06    ~
  ---------------------------------------------------------------------------------------------

	Writing optimization data to binary file.
	Structure for next step:
	Cartesian Geometry (in Angstrom)
	    C    -2.6600180457   1.5846308666  -0.0121655168
	    H    -1.9402025087   2.2586351877   0.4551726874
	    H    -3.4434132481   1.3796169216   0.7186871464
	    H    -3.1130993356   2.1094067672  -0.8529050294
	    C     2.7499035759   1.5837055798   0.2868320075
	    H     3.7225676167   1.1863973753  -0.0066836788
	    H     2.6880911707   1.5374739772   1.3749932018
	    H     2.7127738323   2.6325080308  -0.0067775144
	    C    -1.9792188306   0.2945720223  -0.4526214342
	    H    -1.2120234533   0.5247612263  -1.1944500554
	    H    -2.7027865674  -0.3580414108  -0.9493195684
	    C     1.6233812535   0.7802823652  -0.3511075615
	    H     0.6617659268   1.2074286985  -0.0626231852
	    H     1.6825090472   0.8616097982  -1.4400852329
	    C    -1.3624047839  -0.4554343589   0.7218896138
	    H    -2.1565563415  -0.6977868585   1.4344735215
	    H    -0.6723157557   0.2042943496   1.2562777338
	    C    -0.6463448782  -1.7439983663   0.3250624403
	    H    -1.3619898268  -2.4041790004  -0.1744742257
	    H    -0.3269831288  -2.2649229333   1.2324176782
	    C     0.5782426752  -1.5660578554  -0.5755747811
	    H     0.9765377059  -2.5607987366  -0.7872614461
	    H     0.2811857735  -1.1501938706  -1.5422381209
	    C     1.6863146913  -0.6961297641   0.0326293487
	    H     1.6625315301  -0.7882891713   1.1241314543
	    H     2.6621655741  -1.0771861735  -0.2810223321
			--------------------------
			 OPTKING Finished Execution 
			--------------------------

    Structure for next step:
    Molecular point group: c1
    Full point group: C1

    Geometry (in Angstrom), charge = 0, multiplicity = 1:

    C           -2.660017790154     1.584631472168    -0.012165313084
    H           -1.940202253181     2.258635793322     0.455172891118
    H           -3.443412992567     1.379617527230     0.718687350122
    H           -3.113099080097     2.109407372807    -0.852904825669
    C            2.749903831391     1.583706185384     0.286832211216
    H            3.722567872233     1.186397980904    -0.006683475070
    H            2.688091426183     1.537474582795     1.374993405547
    H            2.712774087793     2.632508636368    -0.006777310615
    C           -1.979218575095     0.294572627936    -0.452621230462
    H           -1.212023197771     0.524761831903    -1.194449851615
    H           -2.702786311861    -0.358040805169    -0.949319364672
    C            1.623381509014     0.780282970771    -0.351107357700
    H            0.661766182262     1.207429304128    -0.062622981437
    H            1.682509302696     0.861610403773    -1.440085029107
    C           -1.362404528446    -0.455433753271     0.721889817540
    H           -2.156556086032    -0.697786252840     1.434473725219
    H           -0.672315500249     0.204294955221     1.256277937592
    C           -0.646344622697    -1.743997760727     0.325062644100
    H           -1.361989571294    -2.404178394749    -0.174474021993
    H           -0.326982873297    -2.264922327655     1.232417881953
    C            0.578242930672    -1.566057249824    -0.575574577305
    H            0.976537961380    -2.560798131036    -0.787261242353
    H            0.281186028973    -1.150193264976    -1.542237917165
    C            1.686314946844    -0.696129158446     0.032629552419
    H            1.662531785631    -0.788288565682     1.124131658092
    H            2.662165829557    -1.077185567878    -0.281022128389

gradient() will perform analytic gradient computation.

*** tstart() called on wr21
*** at Tue Sep 20 22:47:13 2016


         ---------------------------------------------------------
                                   SCF
            by Justin Turney, Rob Parrish, and Andy Simmonett
                              RHF Reference
                       12 Threads,  60000 MiB Core
         ---------------------------------------------------------

  ==> Geometry <==

    Molecular point group: c1
    Full point group: C1

    Geometry (in Angstrom), charge = 0, multiplicity = 1:

       Center              X                  Y                   Z               Mass       
    ------------   -----------------  -----------------  -----------------  -----------------
           C         -2.660017790154     1.584631472168    -0.012165313084    12.000000000000
           H         -1.940202253181     2.258635793322     0.455172891118     1.007825032070
           H         -3.443412992567     1.379617527230     0.718687350122     1.007825032070
           H         -3.113099080097     2.109407372807    -0.852904825669     1.007825032070
           C          2.749903831391     1.583706185384     0.286832211216    12.000000000000
           H          3.722567872233     1.186397980904    -0.006683475070     1.007825032070
           H          2.688091426183     1.537474582795     1.374993405547     1.007825032070
           H          2.712774087793     2.632508636368    -0.006777310615     1.007825032070
           C         -1.979218575095     0.294572627936    -0.452621230462    12.000000000000
           H         -1.212023197771     0.524761831903    -1.194449851615     1.007825032070
           H         -2.702786311861    -0.358040805169    -0.949319364672     1.007825032070
           C          1.623381509014     0.780282970771    -0.351107357700    12.000000000000
           H          0.661766182262     1.207429304128    -0.062622981437     1.007825032070
           H          1.682509302696     0.861610403773    -1.440085029107     1.007825032070
           C         -1.362404528446    -0.455433753271     0.721889817540    12.000000000000
           H         -2.156556086032    -0.697786252840     1.434473725219     1.007825032070
           H         -0.672315500249     0.204294955221     1.256277937592     1.007825032070
           C         -0.646344622697    -1.743997760727     0.325062644100    12.000000000000
           H         -1.361989571294    -2.404178394749    -0.174474021993     1.007825032070
           H         -0.326982873297    -2.264922327655     1.232417881953     1.007825032070
           C          0.578242930672    -1.566057249824    -0.575574577305    12.000000000000
           H          0.976537961380    -2.560798131036    -0.787261242353     1.007825032070
           H          0.281186028973    -1.150193264976    -1.542237917165     1.007825032070
           C          1.686314946844    -0.696129158446     0.032629552419    12.000000000000
           H          1.662531785631    -0.788288565682     1.124131658092     1.007825032070
           H          2.662165829557    -1.077185567878    -0.281022128389     1.007825032070

  Running in c1 symmetry.

  Rotational constants: A =      0.07572  B =      0.03847  C =      0.02842 [cm^-1]
  Rotational constants: A =   2270.11398  B =   1153.39575  C =    851.98228 [MHz]
  Nuclear repulsion =  402.834482480725967

  Charge       = 0
  Multiplicity = 1
  Electrons    = 66
  Nalpha       = 33
  Nbeta        = 33

  ==> Algorithm <==

  SCF Algorithm Type is DF.
  DIIS enabled.
  MOM disabled.
  Fractional occupation disabled.
  Guess Type is READ.
  Energy threshold   = 1.00e-10
  Density threshold  = 1.00e-10
  Integral threshold = 0.00e+00

  ==> Primary Basis <==

  Basis Set: AUG-CC-PVTZ
    Number of shells: 274
    Number of basis function: 782
    Number of Cartesian functions: 890
    Spherical Harmonics?: true
    Max angular momentum: 3

  ==> Pre-Iterations <==

   -------------------------------------------------------
    Irrep   Nso     Nmo     Nalpha   Nbeta   Ndocc  Nsocc
   -------------------------------------------------------
     A        782     782       0       0       0       0
   -------------------------------------------------------
    Total     782     782      33      33      33       0
   -------------------------------------------------------

  ==> Integral Setup <==

  ==> DFJK: Density-Fitted J/K Matrices <==

    J tasked:                  Yes
    K tasked:                  Yes
    wK tasked:                  No
    OpenMP threads:             12
    Integrals threads:          12
    Memory (MB):             42915
    Algorithm:                Core
    Integral Cache:           NONE
    Schwarz Cutoff:          1E-12
    Fitting Condition:       1E-12

   => Auxiliary Basis Set <=

  Basis Set: 
    Number of shells: 492
    Number of basis function: 1660
    Number of Cartesian functions: 2038
    Spherical Harmonics?: true
    Max angular momentum: 4

  Minimum eigenvalue in the overlap matrix is 1.6326028150E-06.
  Using Symmetric Orthogonalization.
  SCF Guess: Reading in previously saved MOs, projecting if necessary.

  Using orbitals from previous SCF, no projection.
  Recomputing DOCC and SOCC from number of alpha and beta electrons from previous calculation.
              A 
    DOCC [    33 ]

  ==> Iterations <==

                           Total Energy        Delta E     RMS |[F,P]|

   @DF-RHF iter   0:  -313.53828596238958   -3.13538e+02   4.72375e-08 
   @DF-RHF iter   1:  -313.53828222936221    3.73303e-06   1.03836e-08 
   @DF-RHF iter   2:  -313.53828222941928   -5.70708e-11   4.31802e-09 DIIS
   @DF-RHF iter   3:  -313.53828222942860   -9.32232e-12   1.73378e-09 DIIS
   @DF-RHF iter   4:  -313.53828222943247   -3.86535e-12   1.90707e-10 DIIS
   @DF-RHF iter   5:  -313.53828222943099    1.47793e-12   6.38890e-11 DIIS

  ==> Post-Iterations <==

    Orbital Energies (a.u.)
    -----------------------

    Doubly Occupied:                                                      

       1A    -11.212194     2A    -11.211699     3A    -11.211195  
       4A    -11.210836     5A    -11.210007     6A    -11.209727  
       7A    -11.207593     8A    -11.207218     9A     -1.094807  
      10A     -1.057553    11A     -1.011641    12A     -0.948040  
      13A     -0.883428    14A     -0.824743    15A     -0.796034  
      16A     -0.756216    17A     -0.655838    18A     -0.618277  
      19A     -0.610408    20A     -0.593620    21A     -0.571574  
      22A     -0.568587    23A     -0.548979    24A     -0.524367  
      25A     -0.515789    26A     -0.502367    27A     -0.494457  
      28A     -0.470451    29A     -0.469191    30A     -0.461806  
      31A     -0.442374    32A     -0.438996    33A     -0.435257  

    Virtual:                                                              

      34A      0.028208    35A      0.032582    36A      0.033961  
      37A      0.034846    38A      0.047250    39A      0.049535  
      40A      0.051128    41A      0.053037    42A      0.055436  
      43A      0.068046    44A      0.069002    45A      0.072732  
      46A      0.075692    47A      0.077269    48A      0.081026  
      49A      0.085145    50A      0.095090    51A      0.099054  
      52A      0.113435    53A      0.115600    54A      0.121823  
      55A      0.128169    56A      0.128715    57A      0.134548  
      58A      0.138089    59A      0.141280    60A      0.142093  
      61A      0.144693    62A      0.149276    63A      0.150677  
      64A      0.151273    65A      0.157435    66A      0.159751  
      67A      0.161913    68A      0.170341    69A      0.173490  
      70A      0.176195    71A      0.179396    72A      0.184107  
      73A      0.186636    74A      0.188662    75A      0.191804  
      76A      0.199357    77A      0.216477    78A      0.224970  
      79A      0.227112    80A      0.234437    81A      0.236397  
      82A      0.245731    83A      0.255821    84A      0.256540  
      85A      0.260503    86A      0.272714    87A      0.277948  
      88A      0.279772    89A      0.283049    90A      0.291310  
      91A      0.297498    92A      0.301624    93A      0.303630  
      94A      0.317538    95A      0.318632    96A      0.324466  
      97A      0.327358    98A      0.332320    99A      0.334570  
     100A      0.337958   101A      0.342159   102A      0.344051  
     103A      0.352126   104A      0.352610   105A      0.360028  
     106A      0.361967   107A      0.365786   108A      0.369916  
     109A      0.373707   110A      0.374416   111A      0.377704  
     112A      0.383236   113A      0.385884   114A      0.390166  
     115A      0.396227   116A      0.397556   117A      0.399031  
     118A      0.400729   119A      0.409394   120A      0.410267  
     121A      0.415886   122A      0.416142   123A      0.420290  
     124A      0.423448   125A      0.427365   126A      0.433971  
     127A      0.440693   128A      0.445528   129A      0.449018  
     130A      0.451505   131A      0.456292   132A      0.466018  
     133A      0.467718   134A      0.469064   135A      0.474162  
     136A      0.477000   137A      0.480710   138A      0.482580  
     139A      0.486023   140A      0.495011   141A      0.497245  
     142A      0.499297   143A      0.503968   144A      0.509143  
     145A      0.510219   146A      0.518175   147A      0.519347  
     148A      0.522413   149A      0.526065   150A      0.530665  
     151A      0.536887   152A      0.538292   153A      0.544056  
     154A      0.547886   155A      0.549409   156A      0.554432  
     157A      0.558238   158A      0.560994   159A      0.565602  
     160A      0.571206   161A      0.575442   162A      0.578584  
     163A      0.586642   164A      0.594232   165A      0.599564  
     166A      0.605340   167A      0.608592   168A      0.616786  
     169A      0.618742   170A      0.624444   171A      0.625978  
     172A      0.631344   173A      0.634059   174A      0.642140  
     175A      0.643172   176A      0.653032   177A      0.657153  
     178A      0.663070   179A      0.666645   180A      0.671396  
     181A      0.675554   182A      0.678685   183A      0.683582  
     184A      0.690344   185A      0.691097   186A      0.692942  
     187A      0.706100   188A      0.714733   189A      0.716258  
     190A      0.724394   191A      0.733247   192A      0.736765  
     193A      0.744099   194A      0.746875   195A      0.754615  
     196A      0.757084   197A      0.763543   198A      0.786610  
     199A      0.791811   200A      0.792675   201A      0.802357  
     202A      0.804425   203A      0.811153   204A      0.825114  
     205A      0.837152   206A      0.838627   207A      0.840330  
     208A      0.846983   209A      0.854010   210A      0.860286  
     211A      0.868801   212A      0.874370   213A      0.884400  
     214A      0.885997   215A      0.892567   216A      0.896353  
     217A      0.904926   218A      0.905669   219A      0.911407  
     220A      0.924017   221A      0.926921   222A      0.931933  
     223A      0.933291   224A      0.934936   225A      0.939920  
     226A      0.945440   227A      0.948967   228A      0.951526  
     229A      0.952919   230A      0.963046   231A      0.964115  
     232A      0.972078   233A      0.976299   234A      0.983153  
     235A      0.987739   236A      0.992702   237A      0.998132  
     238A      1.003739   239A      1.005976   240A      1.011687  
     241A      1.018918   242A      1.023716   243A      1.031416  
     244A      1.039770   245A      1.040487   246A      1.046853  
     247A      1.050085   248A      1.054274   249A      1.059855  
     250A      1.064040   251A      1.067539   252A      1.075843  
     253A      1.085165   254A      1.089996   255A      1.096814  
     256A      1.099753   257A      1.104122   258A      1.108308  
     259A      1.116814   260A      1.124487   261A      1.126281  
     262A      1.135436   263A      1.139344   264A      1.145797  
     265A      1.154635   266A      1.156119   267A      1.165525  
     268A      1.172336   269A      1.176809   270A      1.179210  
     271A      1.186037   272A      1.188253   273A      1.189865  
     274A      1.195369   275A      1.202165   276A      1.205552  
     277A      1.211349   278A      1.212251   279A      1.222716  
     280A      1.225813   281A      1.229260   282A      1.236700  
     283A      1.242584   284A      1.246923   285A      1.250357  
     286A      1.259837   287A      1.265680   288A      1.273127  
     289A      1.277868   290A      1.280203   291A      1.283014  
[...]
	   10 R(9,11)         =      1.093692    -0.000006    -0.000000     1.093692
	   11 R(9,15)         =      1.523958    -0.000003    -0.000000     1.523957
	   12 R(12,13)        =      1.091047    -0.000012     0.000000     1.091047
	   13 R(12,14)        =      1.093611    -0.000013    -0.000000     1.093611
	   14 R(12,24)        =      1.526764    -0.000003     0.000000     1.526764
	   15 R(15,16)        =      1.094160    -0.000003     0.000000     1.094160
	   16 R(15,17)        =      1.094091    -0.000007     0.000000     1.094091
	   17 R(15,18)        =      1.526633     0.000003     0.000001     1.526633
	   18 R(18,19)        =      1.094313    -0.000002     0.000000     1.094314
	   19 R(18,20)        =      1.093913    -0.000002     0.000000     1.093914
	   20 R(18,21)        =      1.530498     0.000002     0.000000     1.530499
	   21 R(21,22)        =      1.092227    -0.000003    -0.000000     1.092227
	   22 R(21,23)        =      1.093446    -0.000009    -0.000000     1.093446
	   23 R(21,24)        =      1.534442    -0.000000     0.000000     1.534442
	   24 R(24,25)        =      1.095645    -0.000007     0.000000     1.095645
	   25 R(24,26)        =      1.093557    -0.000005     0.000000     1.093557
	   26 B(1,9,10)       =    109.383236    -0.000000    -0.000000   109.383236
	   27 B(1,9,11)       =    109.930753     0.000000    -0.000006   109.930747
	   28 B(1,9,15)       =    112.007693    -0.000000    -0.000046   112.007647
	   29 B(2,1,3)        =    107.630202     0.000000     0.000001   107.630203
	   30 B(2,1,4)        =    107.892169     0.000000     0.000000   107.892169
	   31 B(2,1,9)        =    110.609915    -0.000000    -0.000017   110.609898
	   32 B(3,1,4)        =    107.988480     0.000000     0.000012   107.988492
	   33 B(3,1,9)        =    110.819803    -0.000000    -0.000000   110.819803
	   34 B(4,1,9)        =    111.744305     0.000000     0.000004   111.744309
	   35 B(5,12,13)      =    109.542197     0.000000     0.000025   109.542221
	   36 B(5,12,14)      =    109.738673    -0.000000    -0.000028   109.738645
	   37 B(5,12,24)      =    111.974995     0.000000     0.000009   111.975004
	   38 B(6,5,7)        =    107.666003     0.000000     0.000006   107.666009
	   39 B(6,5,8)        =    107.962820     0.000000     0.000001   107.962821
	   40 B(6,5,12)       =    110.764297    -0.000000    -0.000018   110.764280
	   41 B(7,5,8)        =    107.915081     0.000000     0.000009   107.915090
	   42 B(7,5,12)       =    110.695527    -0.000000     0.000014   110.695541
	   43 B(8,5,12)       =    111.683980    -0.000000    -0.000011   111.683969
	   44 B(9,15,16)      =    108.491582     0.000000     0.000038   108.491620
	   45 B(9,15,17)      =    109.570336    -0.000000    -0.000055   109.570280
	   46 B(9,15,18)      =    113.885352    -0.000000    -0.000010   113.885342
	   47 B(10,9,11)      =    106.387719     0.000000     0.000028   106.387747
	   48 B(10,9,15)      =    110.061362     0.000000     0.000029   110.061391
	   49 B(11,9,15)      =    108.912038    -0.000000    -0.000000   108.912038
	   50 B(12,24,21)     =    114.761872    -0.000000     0.000012   114.761884
	   51 B(12,24,25)     =    109.319475     0.000000     0.000008   109.319482
	   52 B(12,24,26)     =    107.557268     0.000000    -0.000029   107.557239
	   53 B(13,12,14)     =    106.369383     0.000000    -0.000006   106.369377
	   54 B(13,12,24)     =    110.393327    -0.000000     0.000029   110.393356
	   55 B(14,12,24)     =    108.660568    -0.000000    -0.000030   108.660537
	   56 B(15,18,19)     =    108.730809    -0.000000     0.000007   108.730815
	   57 B(15,18,20)     =    108.860841     0.000000    -0.000020   108.860822
	   58 B(15,18,21)     =    115.475224     0.000000     0.000034   115.475258
	   59 B(16,15,17)     =    105.858454    -0.000000     0.000009   105.858463
	   60 B(16,15,18)     =    108.830543    -0.000000    -0.000033   108.830510
	   61 B(17,15,18)     =    109.881339     0.000000     0.000052   109.881391
	   62 B(18,21,22)     =    107.454057     0.000000    -0.000037   107.454020
	   63 B(18,21,23)     =    110.308521     0.000000     0.000060   110.308580
	   64 B(18,21,24)     =    114.233826    -0.000000     0.000039   114.233865
	   65 B(19,18,20)     =    106.395817     0.000000    -0.000002   106.395816
	   66 B(19,18,21)     =    108.951738     0.000000     0.000005   108.951743
	   67 B(20,18,21)     =    108.051794    -0.000000    -0.000028   108.051766
	   68 B(21,24,25)     =    109.360247     0.000000     0.000023   109.360269
	   69 B(21,24,26)     =    109.461301     0.000000    -0.000024   109.461277
	   70 B(22,21,23)     =    105.908818     0.000000    -0.000034   105.908784
	   71 B(22,21,24)     =    109.257820    -0.000000    -0.000023   109.257797
	   72 B(23,21,24)     =    109.327998    -0.000000    -0.000011   109.327986
	   73 B(25,24,26)     =    106.009316    -0.000000     0.000010   106.009326
	   74 D(1,9,15,16)    =     59.680468     0.000000    -0.000264    59.680204
	   75 D(1,9,15,17)    =    -55.450896     0.000000    -0.000266   -55.451162
	   76 D(1,9,15,18)    =   -178.965984    -0.000000    -0.000284  -178.966268
	   77 D(2,1,9,10)     =    -61.626343     0.000000     0.000025   -61.626318
	   78 D(2,1,9,11)     =   -178.095528    -0.000000    -0.000005  -178.095534
	   79 D(2,1,9,15)     =     60.678176     0.000000     0.000030    60.678206
	   80 D(3,1,9,10)     =    179.086143     0.000000     0.000034   179.086177
	   81 D(3,1,9,11)     =     62.616958    -0.000000     0.000004    62.616961
	   82 D(3,1,9,15)     =    -58.609338     0.000000     0.000039   -58.609299
	   83 D(4,1,9,10)     =     58.597039    -0.000000     0.000017    58.597055
	   84 D(4,1,9,11)     =    -57.872147    -0.000000    -0.000014   -57.872160
	   85 D(4,1,9,15)     =   -179.098443    -0.000000     0.000022  -179.098421
	   86 D(5,12,24,21)   =    179.964699     0.000000     0.000269   179.964968
	   87 D(5,12,24,25)   =     56.696192     0.000000     0.000224    56.696416
	   88 D(5,12,24,26)   =    -57.977627     0.000000     0.000224   -57.977403
	   89 D(6,5,12,13)    =   -178.753716    -0.000000     0.000139  -178.753577
	   90 D(6,5,12,14)    =    -62.324978     0.000000     0.000130   -62.324848
	   91 D(6,5,12,24)    =     58.429127     0.000000     0.000078    58.429206
	   92 D(7,5,12,13)    =     61.894466    -0.000000     0.000134    61.894600
	   93 D(7,5,12,14)    =    178.323203     0.000000     0.000125   178.323328
	   94 D(7,5,12,24)    =    -60.922691     0.000000     0.000073   -60.922618
	   95 D(8,5,12,13)    =    -58.375902    -0.000000     0.000121   -58.375781
	   96 D(8,5,12,14)    =     58.052836     0.000000     0.000112    58.052948
	   97 D(8,5,12,24)    =    178.806941     0.000000     0.000060   178.807002
	   98 D(9,15,18,19)   =    -58.719317    -0.000000    -0.000014   -58.719330
	   99 D(9,15,18,20)   =   -174.237875     0.000000    -0.000005  -174.237880
	  100 D(9,15,18,21)   =     64.061143     0.000000     0.000023    64.061166
	  101 D(10,9,15,16)   =   -178.402392    -0.000000    -0.000275  -178.402667
	  102 D(10,9,15,17)   =     66.466244    -0.000000    -0.000277    66.465967
	  103 D(10,9,15,18)   =    -57.048843    -0.000000    -0.000296   -57.049139
	  104 D(11,9,15,16)   =    -62.131517     0.000000    -0.000226   -62.131743
	  105 D(11,9,15,17)   =   -177.262881    -0.000000    -0.000228  -177.263109
	  106 D(11,9,15,18)   =     59.222031    -0.000000    -0.000246    59.221785
	  107 D(12,24,21,18)  =    -93.838974     0.000000     0.000115   -93.838859
	  108 D(12,24,21,22)  =    145.784288     0.000000     0.000154   145.784442
	  109 D(12,24,21,23)  =     30.301804     0.000000     0.000214    30.302018
	  110 D(13,12,24,21)  =     57.631562    -0.000000     0.000210    57.631773
	  111 D(13,12,24,25)  =    -65.636945    -0.000000     0.000166   -65.636779
	  112 D(13,12,24,26)  =    179.689236    -0.000000     0.000166   179.689402
	  113 D(14,12,24,21)  =    -58.657985     0.000000     0.000219   -58.657767
	  114 D(14,12,24,25)  =    178.073507     0.000000     0.000174   178.073681
	  115 D(14,12,24,26)  =     63.399689     0.000000     0.000174    63.399862
	  116 D(15,18,21,22)  =   -179.249734     0.000000    -0.000111  -179.249845
	  117 D(15,18,21,23)  =    -64.241904     0.000000    -0.000141   -64.242045
	  118 D(15,18,21,24)  =     59.372561     0.000000    -0.000080    59.372482
	  119 D(16,15,18,19)  =     62.445651    -0.000000     0.000005    62.445656
	  120 D(16,15,18,20)  =    -53.072908     0.000000     0.000014   -53.072894
	  121 D(16,15,18,21)  =   -174.773889     0.000000     0.000041  -174.773848
	  122 D(17,15,18,19)  =    177.934519     0.000000     0.000026   177.934545
	  123 D(17,15,18,20)  =     62.415960     0.000000     0.000035    62.415995
	  124 D(17,15,18,21)  =    -59.285021     0.000000     0.000062   -59.284959
	  125 D(18,21,24,25)  =     29.407713     0.000000     0.000152    29.407865
	  126 D(18,21,24,26)  =    145.142039     0.000000     0.000163   145.142203
	  127 D(19,18,21,22)  =    -56.586605     0.000000    -0.000073   -56.586679
	  128 D(19,18,21,23)  =     58.421225     0.000000    -0.000104    58.421121
	  129 D(19,18,21,24)  =   -177.964310     0.000000    -0.000042  -177.964352
	  130 D(20,18,21,22)  =     58.615777    -0.000000    -0.000087    58.615690
	  131 D(20,18,21,23)  =    173.623607     0.000000    -0.000118   173.623489
	  132 D(20,18,21,24)  =    -62.761928    -0.000000    -0.000056   -62.761984
	  133 D(22,21,24,25)  =    -90.969025    -0.000000     0.000190   -90.968834
	  134 D(22,21,24,26)  =     24.765302     0.000000     0.000202    24.765503
	  135 D(23,21,24,25)  =    153.548491    -0.000000     0.000251   153.548742
	  136 D(23,21,24,26)  =    -90.717182     0.000000     0.000262   -90.716920
	  137 R(9,12)         =      3.636607    -0.000000    -0.000001     3.636606
	  138 R(12,15)        =      3.404890    -0.000000     0.000000     3.404890
	 ---------------------------------------------------------------------------

  ==> Convergence Check <==

  Measures of convergence in internal coordinates in au.
  Criteria marked as inactive (o), active & met (*), and active & unmet ( ).
  ---------------------------------------------------------------------------------------------
   Step     Total Energy     Delta E     MAX Force     RMS Force      MAX Disp      RMS Disp   
  ---------------------------------------------------------------------------------------------
    Convergence Criteria             o    2.00e-06 *    1.00e-06 *    6.00e-06 *    4.00e-06 *
  ---------------------------------------------------------------------------------------------
     40    -314.98181471   -7.58e-10 o    1.57e-06 *    3.11e-07 *    5.17e-06 *    1.88e-06 *  ~
  ---------------------------------------------------------------------------------------------


  **** Optimization is complete! (in 40 steps) ****

  ==> Optimization Summary <==

  Measures of convergence in internal coordinates in au.
  --------------------------------------------------------------------------------------------------------------- ~
   Step         Total Energy             Delta E       MAX Force       RMS Force        MAX Disp        RMS Disp  ~
  --------------------------------------------------------------------------------------------------------------- ~
      1    -314.981814710419   -314.981814710419      0.00000132      0.00000026      0.00002046      0.00000642  ~
      2    -314.981814703839      0.000000006580      0.00000168      0.00000043      0.00012791      0.00003268  ~
      3    -314.981814706040     -0.000000002201      0.00000964      0.00000195      0.00013897      0.00003807  ~
      4    -314.981814705188      0.000000000852      0.00000096      0.00000021      0.00002777      0.00001080  ~
      5    -314.981814703082      0.000000002106      0.00000070      0.00000016      0.00001722      0.00000726  ~
      6    -314.981814706490     -0.000000003408      0.00000057      0.00000014      0.00001830      0.00000666  ~
      7    -314.981814706449      0.000000000041      0.00000088      0.00000017      0.00002091      0.00000572  ~
      8    -314.981814705363      0.000000001086      0.00000111      0.00000028      0.00004743      0.00001343  ~
      9    -314.981814708077     -0.000000002714      0.00000264      0.00000054      0.00005899      0.00001404  ~
     10    -314.981814709020     -0.000000000943      0.00000130      0.00000028      0.00002544      0.00000733  ~
     11    -314.981814704112      0.000000004908      0.00000180      0.00000037      0.00002461      0.00000870  ~
     12    -314.981814707810     -0.000000003698      0.00000289      0.00000062      0.00015347      0.00003003  ~
     13    -314.981814706382      0.000000001429      0.00000583      0.00000154      0.00014906      0.00002808  ~
     14    -314.981814704575      0.000000001807      0.00000070      0.00000018      0.00004822      0.00000713  ~
     15    -314.981814705878     -0.000000001303      0.00000084      0.00000023      0.00003865      0.00000578  ~
     16    -314.981814708565     -0.000000002687      0.00000086      0.00000019      0.00003490      0.00000845  ~
     17    -314.981814703992      0.000000004573      0.00000259      0.00000054      0.00002659      0.00000776  ~
     18    -314.981814707143     -0.000000003150      0.00000187      0.00000041      0.00000891      0.00000334  ~
     19    -314.981814706626      0.000000000516      0.00000075      0.00000015      0.00001517      0.00000346  ~
     20    -314.981814706478      0.000000000148      0.00000229      0.00000043      0.00005667      0.00001038  ~
     21    -314.981814711284     -0.000000004806      0.00000325      0.00000065      0.00005376      0.00000977  ~
     22    -314.981814702126      0.000000009158      0.00000350      0.00000075      0.00002736      0.00000580  ~
     23    -314.981814710171     -0.000000008045      0.00000399      0.00000085      0.00001370      0.00000398  ~
     24    -314.981814704648      0.000000005523      0.00000219      0.00000047      0.00006140      0.00002133  ~
     25    -314.981814708559     -0.000000003911      0.00000366      0.00000073      0.00005184      0.00001815  ~
     26    -314.981814705639      0.000000002920      0.00000124      0.00000025      0.00005382      0.00001401  ~
     27    -314.981814705942     -0.000000000303      0.00000353      0.00000069      0.00004592      0.00001492  ~
     28    -314.981814703958      0.000000001984      0.00000197      0.00000043      0.00001026      0.00000262  ~
     29    -314.981814708744     -0.000000004787      0.00000268      0.00000051      0.00001513      0.00000423  ~
     30    -314.981814707947      0.000000000797      0.00000289      0.00000061      0.00001065      0.00000346  ~
     31    -314.981814703035      0.000000004913      0.00000235      0.00000050      0.00002319      0.00000695  ~
     32    -314.981814700669      0.000000002365      0.00000477      0.00000089      0.00000814      0.00000302  ~
     33    -314.981814706720     -0.000000006051      0.00000282      0.00000044      0.00001037      0.00000289  ~
     34    -314.981814705826      0.000000000894      0.00000197      0.00000033      0.00001152      0.00000312  ~
     35    -314.981814700427      0.000000005399      0.00000161      0.00000029      0.00001073      0.00000334  ~
     36    -314.981814706558     -0.000000006131      0.00000218      0.00000050      0.00000615      0.00000226  ~
     37    -314.981814706874     -0.000000000316      0.00000165      0.00000033      0.00000820      0.00000262  ~
     38    -314.981814706448      0.000000000425      0.00000247      0.00000051      0.00000904      0.00000256  ~
     39    -314.981814705815      0.000000000633      0.00000166      0.00000040      0.00000979      0.00000299  ~
     40    -314.981814706573     -0.000000000758      0.00000157      0.00000031      0.00000517      0.00000188  ~
  --------------------------------------------------------------------------------------------------------------- ~

	Writing optimization data to binary file.
	Final energy is   -314.9818147065733
	Final (previous) structure:
	Cartesian Geometry (in Angstrom)
	    C    -2.6600112614   1.5846322176  -0.0121616051
	    H    -1.9401966951   2.2586369497   0.4551775387
	    H    -3.4434073377   1.3796176098   0.7186904154
	    H    -3.1130923928   2.1094078946  -0.8529014296
	    C     2.7498956785   1.5837090266   0.2868345152
	    H     3.7225647843   1.1864001013  -0.0066633926
	    H     2.6880659325   1.5374834521   1.3749949469
	    H     2.7127698431   2.6325098657  -0.0067811315
	    C    -1.9792116803   0.2945740822  -0.4526176395
	    H    -1.2120138892   0.5247631150  -1.1944436249
	    H    -2.7027779977  -0.3580380381  -0.9493192416
	    C     1.6233836199   0.7802819040  -0.3511182857
	    H     0.6617630578   1.2074296422  -0.0626494249
	    H     1.6825269458   0.8616050383  -1.4400965695
	    C    -1.3624025666  -0.4554368460   0.7218936966
	    H    -2.1565567193  -0.6977868615   1.4344750238
	    H    -0.6723132189   0.2042879894   1.2562848655
	    C    -0.6463452631  -1.7440004424   0.3250649383
	    H    -1.3619907288  -2.4041814967  -0.1744687557
	    H    -0.3269794160  -2.2649239769   1.2324184932
	    C     0.5782385040  -1.5660566865  -0.5755769538
	    H     0.9765336598  -2.5607963746  -0.7872689463
	    H     0.2811747194  -1.1501900292  -1.5422373978
	    C     1.6863112039  -0.6961286183   0.0326265665
	    H     1.6625227602  -0.7882820053   1.1241296114
	    H     2.6621629514  -1.0771895006  -0.2810181562
	Saving final (previous) structure.
			--------------------------
			 OPTKING Finished Execution 
			--------------------------

    Final optimized geometry and variables:
    Molecular point group: c1
    Full point group: C1

    Geometry (in Angstrom), charge = 0, multiplicity = 1:

    C           -2.660011261360     1.584632217559    -0.012161605073
    H           -1.940196695054     2.258636949671     0.455177538681
    H           -3.443407337660     1.379617609838     0.718690415426
    H           -3.113092392827     2.109407894634    -0.852901429637
    C            2.749895678536     1.583709026559     0.286834515179
    H            3.722564784269     1.186400101303    -0.006663392614
    H            2.688065932473     1.537483452098     1.374994946925
    H            2.712769843098     2.632509865711    -0.006781131493
    C           -1.979211680340     0.294574082246    -0.452617639502
    H           -1.212013889215     0.524763114954    -1.194443624948
    H           -2.702777997674    -0.358038038132    -0.949319241613
    C            1.623383619943     0.780281904020    -0.351118285709
    H            0.661763057826     1.207429642194    -0.062649424883
    H            1.682526945845     0.861605038304    -1.440096569488
    C           -1.362402566626    -0.455436846037     0.721893696551
    H           -2.156556719264    -0.697786861531     1.434475023783
    H           -0.672313218895     0.204287989395     1.256284865507
    C           -0.646345263139    -1.744000442415     0.325064938343
    H           -1.361990728763    -2.404181496688    -0.174468755657
    H           -0.326979416001    -2.264923976888     1.232418493222
    C            0.578238503994    -1.566056686473    -0.575576953764
    H            0.976533659838    -2.560796374554    -0.787268946255
    H            0.281174719425    -1.150190029220    -1.542237397808
    C            1.686311203941    -0.696128618274     0.032626566471
    H            1.662522760184    -0.788282005276     1.124129611383
    H            2.662162951414    -1.077189500594    -0.281018156166

	Cleaning optimization helper files.

*** Psi4 exiting successfully. Buy a developer a beer!
