    -----------------------------------------------------------------------
          Psi4: An Open-Source Ab Initio Electronic Structure Package
                              Psi4 1.0.0 Driver

                          Git: Rev {master} 6a9a71b dirty

    J. M. Turney, A. C. Simmonett, R. M. Parrish, E. G. Hohenstein,
    F. A. Evangelista, J. T. Fermann, B. J. Mintz, L. A. Burns, J. J. Wilke,
    M. L. Abrams, N. J. Russ, M. L. Leininger, C. L. Janssen, E. T. Seidl,
    W. D. Allen, H. F. Schaefer, R. A. King, E. F. Valeev, C. D. Sherrill,
    and T. D. Crawford, WIREs Comput. Mol. Sci. 2, 556-565 (2012)
    (doi: 10.1002/wcms.93)

                         Additional Contributions by
    A. E. DePrince, U. Bozkaya, A. Yu. Sokolov, D. G. A. Smith, R. Di Remigio,
    R. M. Richard, J. F. Gonthier, H. R. McAlexander, M. Saitow, and
    B. P. Pritchard
    -----------------------------------------------------------------------


    Psi4 started on: Tue Sep 20 19:17:03 2016

    Process ID:  41889
    PSI4DATADIR: /usr/local/hpc5/psi4conda/share/psi4
    Memory level set to 256.000 MB

  ==> Input File <==

--------------------------------------------------------------------------
memory 30 Gb

molecule molecule_73_psi {
0 1
symmetry c1
    C            3.037626262235    -0.856052597779    -0.365211776064
    H            4.081222501838    -1.008424311051    -0.632327996794
    H            2.441929078335    -1.015194874794    -1.261018524802
    H            2.762427060986    -1.620707494228     0.359659284238
    C           -3.037634643243     0.856057518234    -0.365152815418
    H           -2.762433726946     1.620692061423     0.359738805804
    H           -4.081233755417     1.008431714411    -0.632256169499
    H           -2.441945601011     1.015229675673    -1.260959530383
    C            2.819905848561     0.533726891887     0.206109712733
    H            3.093784083448     1.278124363692    -0.543729748746
    H            3.491751194755     0.683507257279     1.051988494392
    C           -2.819901866882    -0.533737914307     0.206125329862
    H           -3.491737221775    -0.683546559416     1.052006825254
    H           -3.093784734343    -1.278114202637    -0.543733265643
    C            1.390828965409     0.801554401312     0.654879360708
    H            1.347906531487     1.802397554300     1.084531658467
    H            1.134533385415     0.110527535275     1.461277370184
    C            0.361465982810     0.671605927315    -0.471012068250
    H            0.863078051272     0.820410870192    -1.429938159519
    H           -0.377728280612     1.466325916256    -0.385650022972
    C           -0.361471547298    -0.671583526478    -0.471031407433
    H           -0.863097432007    -0.820352701179    -1.429955499730
    H            0.377722504190    -1.466307769554    -0.385709347558
    C           -1.390818310753    -0.801571211448     0.654870107774
    H           -1.347884972984    -1.802426456966     1.084492800638
    H           -1.134516892332    -0.110566491154     1.461284802256
}

set globals {
  reference rhf
  g_convergence gau_verytight
  basis aug-cc-pvtz
  freeze_core true
  scf_type df
  mp_type df
}
optimize('mp2')
--------------------------------------------------------------------------
/usr/local/hpc5/psi4conda/lib/python2.7/site-packages/v2rdm_casscf/v2rdm_casscf.so loaded.

  Memory set to  30.000 GiB by Python script.
gradient() will perform analytic gradient computation.

*** tstart() called on wr34
*** at Tue Sep 20 19:17:04 2016


         ---------------------------------------------------------
                                   SCF
            by Justin Turney, Rob Parrish, and Andy Simmonett
                              RHF Reference
                       12 Threads,  30000 MiB Core
         ---------------------------------------------------------

  ==> Geometry <==

    Molecular point group: c1
    Full point group: C1

    Geometry (in Angstrom), charge = 0, multiplicity = 1:

       Center              X                  Y                   Z               Mass       
    ------------   -----------------  -----------------  -----------------  -----------------
           C          3.037626262235    -0.856052597779    -0.365211776064    12.000000000000
           H          4.081222501838    -1.008424311051    -0.632327996794     1.007825032070
           H          2.441929078335    -1.015194874794    -1.261018524802     1.007825032070
           H          2.762427060986    -1.620707494228     0.359659284238     1.007825032070
           C         -3.037634643243     0.856057518234    -0.365152815418    12.000000000000
           H         -2.762433726946     1.620692061423     0.359738805804     1.007825032070
           H         -4.081233755417     1.008431714411    -0.632256169499     1.007825032070
           H         -2.441945601011     1.015229675673    -1.260959530383     1.007825032070
           C          2.819905848561     0.533726891887     0.206109712733    12.000000000000
           H          3.093784083448     1.278124363692    -0.543729748746     1.007825032070
           H          3.491751194755     0.683507257279     1.051988494392     1.007825032070
           C         -2.819901866882    -0.533737914307     0.206125329862    12.000000000000
           H         -3.491737221775    -0.683546559416     1.052006825254     1.007825032070
           H         -3.093784734343    -1.278114202637    -0.543733265643     1.007825032070
           C          1.390828965409     0.801554401312     0.654879360708    12.000000000000
           H          1.347906531487     1.802397554300     1.084531658467     1.007825032070
           H          1.134533385415     0.110527535275     1.461277370184     1.007825032070
           C          0.361465982810     0.671605927315    -0.471012068250    12.000000000000
           H          0.863078051272     0.820410870192    -1.429938159519     1.007825032070
           H         -0.377728280612     1.466325916256    -0.385650022972     1.007825032070
           C         -0.361471547298    -0.671583526478    -0.471031407433    12.000000000000
           H         -0.863097432007    -0.820352701179    -1.429955499730     1.007825032070
           H          0.377722504190    -1.466307769554    -0.385709347558     1.007825032070
           C         -1.390818310753    -0.801571211448     0.654870107774    12.000000000000
           H         -1.347884972984    -1.802426456966     1.084492800638     1.007825032070
           H         -1.134516892332    -0.110566491154     1.461284802256     1.007825032070

  Running in c1 symmetry.

  Rotational constants: A =      0.14709  B =      0.02751  C =      0.02588 [cm^-1]
  Rotational constants: A =   4409.50076  B =    824.71984  C =    775.91140 [MHz]
  Nuclear repulsion =  402.039041781805565

  Charge       = 0
  Multiplicity = 1
  Electrons    = 66
  Nalpha       = 33
  Nbeta        = 33

  ==> Algorithm <==

  SCF Algorithm Type is DF.
  DIIS enabled.
  MOM disabled.
  Fractional occupation disabled.
  Guess Type is SAD.
  Energy threshold   = 1.00e-10
  Density threshold  = 1.00e-10
  Integral threshold = 0.00e+00

  ==> Primary Basis <==

  Basis Set: AUG-CC-PVTZ
    Number of shells: 274
    Number of basis function: 782
    Number of Cartesian functions: 890
    Spherical Harmonics?: true
    Max angular momentum: 3

  ==> Pre-Iterations <==

   -------------------------------------------------------
    Irrep   Nso     Nmo     Nalpha   Nbeta   Ndocc  Nsocc
   -------------------------------------------------------
     A        782     782       0       0       0       0
   -------------------------------------------------------
    Total     782     782      33      33      33       0
   -------------------------------------------------------

  ==> Integral Setup <==

  ==> DFJK: Density-Fitted J/K Matrices <==

    J tasked:                  Yes
    K tasked:                  Yes
    wK tasked:                  No
    OpenMP threads:             12
    Integrals threads:          12
    Memory (MB):             21457
    Algorithm:                Core
    Integral Cache:           NONE
    Schwarz Cutoff:          1E-12
    Fitting Condition:       1E-12

   => Auxiliary Basis Set <=

  Basis Set: 
    Number of shells: 492
    Number of basis function: 1660
    Number of Cartesian functions: 2038
    Spherical Harmonics?: true
    Max angular momentum: 4

  Minimum eigenvalue in the overlap matrix is 1.5152160705E-06.
  Using Symmetric Orthogonalization.
  SCF Guess: Superposition of Atomic Densities via on-the-fly atomic UHF.

  ==> Iterations <==

                           Total Energy        Delta E     RMS |[F,P]|

   @DF-RHF iter   0:  -317.08350167900227   -3.17084e+02   7.07324e-03 
   @DF-RHF iter   1:  -313.29313158991289    3.79037e+00   7.11825e-04 
   @DF-RHF iter   2:  -313.50018678491512   -2.07055e-01   2.62364e-04 DIIS
   @DF-RHF iter   3:  -313.52660516064617   -2.64184e-02   1.02957e-04 DIIS
   @DF-RHF iter   4:  -313.53168280727408   -5.07765e-03   1.54702e-05 DIIS
   @DF-RHF iter   5:  -313.53184983813327   -1.67031e-04   4.00232e-06 DIIS
   @DF-RHF iter   6:  -313.53185997570353   -1.01376e-05   1.29065e-06 DIIS
   @DF-RHF iter   7:  -313.53186081517657   -8.39473e-07   2.75715e-07 DIIS
   @DF-RHF iter   8:  -313.53186086848706   -5.33105e-08   6.76977e-08 DIIS
   @DF-RHF iter   9:  -313.53186087180615   -3.31909e-09   1.88552e-08 DIIS
   @DF-RHF iter  10:  -313.53186087208252   -2.76373e-10   4.82923e-09 DIIS
   @DF-RHF iter  11:  -313.53186087209787   -1.53477e-11   1.37346e-09 DIIS
   @DF-RHF iter  12:  -313.53186087209912   -1.25056e-12   3.46524e-10 DIIS
   @DF-RHF iter  13:  -313.53186087209946   -3.41061e-13   1.02663e-10 DIIS
   @DF-RHF iter  14:  -313.53186087209934    1.13687e-13   2.95278e-11 DIIS

  ==> Post-Iterations <==

    Orbital Energies (a.u.)
    -----------------------

    Doubly Occupied:                                                      

       1A    -11.211091     2A    -11.211091     3A    -11.207978  
       4A    -11.207895     5A    -11.207306     6A    -11.206774  
       7A    -11.205326     8A    -11.205325     9A     -1.097044  
      10A     -1.061803    11A     -1.005263    12A     -0.946920  
      13A     -0.896476    14A     -0.826438    15A     -0.785806  
      16A     -0.756150    17A     -0.646910    18A     -0.632653  
      19A     -0.603873    20A     -0.602509    21A     -0.590826  
      22A     -0.545080    23A     -0.538996    24A     -0.536705  
      25A     -0.524741    26A     -0.500422    27A     -0.496485  
      28A     -0.467734    29A     -0.466589    30A     -0.461579  
      31A     -0.442975    32A     -0.439487    33A     -0.429052  

    Virtual:                                                              

      34A      0.030209    35A      0.034249    36A      0.034347  
      37A      0.034624    38A      0.045270    39A      0.048843  
      40A      0.048903    41A      0.053498    42A      0.055778  
      43A      0.066600    44A      0.069701    45A      0.070756  
      46A      0.073775    47A      0.077395    48A      0.087081  
      49A      0.089681    50A      0.096298    51A      0.101801  
      52A      0.115860    53A      0.116402    54A      0.122867  
      55A      0.124169    56A      0.127782    57A      0.132191  
      58A      0.133856    59A      0.134300    60A      0.139016  
      61A      0.142098    62A      0.143680    63A      0.149203  
      64A      0.152411    65A      0.155845    66A      0.160668  
      67A      0.165249    68A      0.170563    69A      0.172242  
      70A      0.174926    71A      0.175036    72A      0.186960  
      73A      0.188782    74A      0.190335    75A      0.193578  
      76A      0.195468    77A      0.214665    78A      0.220720  
      79A      0.230456    80A      0.235111    81A      0.235128  
      82A      0.245890    83A      0.251028    84A      0.258449  
      85A      0.264348    86A      0.283752    87A      0.286917  
      88A      0.289223    89A      0.294138    90A      0.298165  
      91A      0.302585    92A      0.304663    93A      0.311235  
      94A      0.312422    95A      0.318313    96A      0.319702  
      97A      0.321520    98A      0.323074    99A      0.331559  
     100A      0.338408   101A      0.339792   102A      0.340186  
     103A      0.348213   104A      0.353446   105A      0.354871  
     106A      0.360422   107A      0.362959   108A      0.363260  
     109A      0.372047   110A      0.372393   111A      0.377243  
     112A      0.378342   113A      0.381070   114A      0.382350  
     115A      0.382701   116A      0.385169   117A      0.400994  
     118A      0.409162   119A      0.414987   120A      0.419553  
     121A      0.420198   122A      0.425114   123A      0.429381  
     124A      0.435487   125A      0.435697   126A      0.439466  
     127A      0.444587   128A      0.445982   129A      0.450865  
     130A      0.452854   131A      0.454679   132A      0.465989  
     133A      0.466031   134A      0.475952   135A      0.477154  
     136A      0.482571   137A      0.485322   138A      0.486238  
     139A      0.490932   140A      0.494051   141A      0.495155  
     142A      0.498710   143A      0.501077   144A      0.503812  
     145A      0.510547   146A      0.516243   147A      0.516457  
     148A      0.527413   149A      0.533073   150A      0.538497  
     151A      0.540525   152A      0.546850   153A      0.552744  
     154A      0.553650   155A      0.555559   156A      0.558964  
     157A      0.562539   158A      0.566987   159A      0.571296  
     160A      0.577425   161A      0.581432   162A      0.586264  
     163A      0.591845   164A      0.599308   165A      0.606274  
     166A      0.606573   167A      0.609115   168A      0.616347  
     169A      0.618644   170A      0.621388   171A      0.622073  
     172A      0.623274   173A      0.634099   174A      0.636281  
     175A      0.648103   176A      0.657753   177A      0.658862  
     178A      0.662293   179A      0.662987   180A      0.669839  
     181A      0.671956   182A      0.682139   183A      0.682685  
     184A      0.685841   185A      0.690326   186A      0.692719  
     187A      0.699154   188A      0.704264   189A      0.720395  
     190A      0.723278   191A      0.729485   192A      0.739633  
     193A      0.741794   194A      0.746236   195A      0.760760  
     196A      0.762138   197A      0.768512   198A      0.771261  
     199A      0.776090   200A      0.786964   201A      0.787294  
     202A      0.805926   203A      0.811769   204A      0.822166  
     205A      0.835667   206A      0.841331   207A      0.846387  
     208A      0.851379   209A      0.860563   210A      0.864615  
     211A      0.866406   212A      0.867721   213A      0.885294  
     214A      0.886726   215A      0.892884   216A      0.893092  
     217A      0.901748   218A      0.905969   219A      0.906910  
     220A      0.923470   221A      0.923689   222A      0.926134  
     223A      0.926810   224A      0.937404   225A      0.940457  
     226A      0.947182   227A      0.950439   228A      0.956882  
     229A      0.958283   230A      0.968806   231A      0.977068  
     232A      0.979008   233A      0.982398   234A      0.990282  
     235A      0.992296   236A      1.004248   237A      1.004818  
     238A      1.008858   239A      1.010342   240A      1.015023  
     241A      1.015990   242A      1.026474   243A      1.036584  
     244A      1.037370   245A      1.042009   246A      1.042429  
     247A      1.051284   248A      1.053895   249A      1.058313  
     250A      1.062441   251A      1.065298   252A      1.075525  
     253A      1.087469   254A      1.095681   255A      1.097006  
     256A      1.104510   257A      1.109587   258A      1.110805  
     259A      1.120178   260A      1.131740   261A      1.141561  
     262A      1.142795   263A      1.146865   264A      1.153227  
     265A      1.153588   266A      1.156194   267A      1.158839  
     268A      1.159422   269A      1.161652   270A      1.171461  
     271A      1.179846   272A      1.180967   273A      1.197880  
     274A      1.201430   275A      1.206334   276A      1.213057  
     277A      1.215935   278A      1.221293   279A      1.228350  
     280A      1.230722   281A      1.234935   282A      1.238441  
     283A      1.245172   284A      1.252266   285A      1.254687  
     286A      1.257997   287A      1.269815   288A      1.273360  
     289A      1.275302   290A      1.284779   291A      1.292987  
     292A      1.294042   293A      1.296212   294A      1.301064  
     295A      1.307835   296A      1.310989   297A      1.326286  
     298A      1.337762   299A      1.339393   300A      1.343142  
     301A      1.350676   302A      1.351547   303A      1.356814  
     304A      1.360555   305A      1.367794   306A      1.381803  
     307A      1.387277   308A      1.406663   309A      1.410571  
     310A      1.412901   311A      1.415439   312A      1.423666  
     313A      1.430086   314A      1.437997   315A      1.442086  
     316A      1.449852   317A      1.466883   318A      1.470715  
     319A      1.487188   320A      1.493303   321A      1.495744  
     322A      1.498362   323A      1.499800   324A      1.523754  
     325A      1.532109   326A      1.534520   327A      1.542375  
     328A      1.548656   329A      1.552485   330A      1.563462  
     331A      1.566981   332A      1.579301   333A      1.582433  
     334A      1.594702   335A      1.600650   336A      1.610259  
     337A      1.620614   338A      1.620854   339A      1.622639  
     340A      1.639614   341A      1.641968   342A      1.647814  
     343A      1.652661   344A      1.658024   345A      1.659854  
     346A      1.669542   347A      1.677230   348A      1.683869  
     349A      1.686782   350A      1.694420   351A      1.700384  
     352A      1.714444   353A      1.717658   354A      1.719777  
     355A      1.735402   356A      1.741919   357A      1.742386  
     358A      1.743675   359A      1.758875   360A      1.759581  
     361A      1.764334   362A      1.769483   363A      1.772978  
     364A      1.777053   365A      1.783796   366A      1.792791  
     367A      1.793170   368A      1.803350   369A      1.814047  
     370A      1.815782   371A      1.826036   372A      1.826206  
     373A      1.833591   374A      1.839828   375A      1.851192  
     376A      1.852822   377A      1.854310   378A      1.869362  
     379A      1.871180   380A      1.875426   381A      1.875946  
     382A      1.889914   383A      1.901709   384A      1.905894  
     385A      1.908426   386A      1.916976   387A      1.921924  
     388A      1.940886   389A      1.945339   390A      1.957034  
     391A      1.957882   392A      1.964946   393A      1.973107  
     394A      1.979728   395A      1.991367   396A      1.993555  
     397A      1.997158   398A      2.000120   399A      2.006469  
     400A      2.012951   401A      2.023298   402A      2.030983  
     403A      2.041393   404A      2.046540   405A      2.046879  
     406A      2.056272   407A      2.062056   408A      2.071376  
     409A      2.075938   410A      2.076744   411A      2.094362  
     412A      2.097375   413A      2.107789   414A      2.109898  
     415A      2.111525   416A      2.125220   417A      2.130086  
     418A      2.135779   419A      2.142326   420A      2.148786  
     421A      2.166762   422A      2.169722   423A      2.175190  
     424A      2.191640   425A      2.202255   426A      2.202894  
     427A      2.220303   428A      2.222902   429A      2.239891  
     430A      2.250921   431A      2.262029   432A      2.262962  
     433A      2.272167   434A      2.282211   435A      2.288037  
     436A      2.293342   437A      2.296667   438A      2.301265  
     439A      2.309571   440A      2.319779   441A      2.331200  
     442A      2.331624   443A      2.348688   444A      2.349882  
     445A      2.356006   446A      2.364381   447A      2.372268  
     448A      2.404516   449A      2.406592   450A      2.419323  
     451A      2.423563   452A      2.430066   453A      2.439490  
     454A      2.450813   455A      2.463371   456A      2.479451  
     457A      2.479518   458A      2.496809   459A      2.500710  
     460A      2.505239   461A      2.516556   462A      2.525035  
     463A      2.530580   464A      2.556729   465A      2.572415  
     466A      2.575601   467A      2.582703   468A      2.585158  
     469A      2.612105   470A      2.613233   471A      2.630098  
     472A      2.642670   473A      2.653594   474A      2.658020  
     475A      2.668568   476A      2.691770   477A      2.715795  
     478A      2.752757   479A      2.758998   480A      2.783085  
     481A      2.801863   482A      2.808498   483A      2.817609  
     484A      2.874902   485A      2.927146   486A      2.937421  
     487A      3.009409   488A      3.009604   489A      3.112543  
     490A      3.166383   491A      3.251374   492A      3.258008  
     493A      3.280092   494A      3.385531   495A      3.386042  
     496A      3.440467   497A      3.443177   498A      3.457099  
     499A      3.480685   500A      3.482781   501A      3.496447  
     502A      3.504386   503A      3.526499   504A      3.536420  
     505A      3.537687   506A      3.564826   507A      3.573736  
     508A      3.595715   509A      3.612378   510A      3.619048  
     511A      3.619155   512A      3.645475   513A      3.649908  
     514A      3.655617   515A      3.671032   516A      3.684498  
     517A      3.685643   518A      3.698200   519A      3.702787  
     520A      3.722900   521A      3.724011   522A      3.727086  
     523A      3.739728   524A      3.747868   525A      3.758407  
     526A      3.769232   527A      3.780064   528A      3.784887  
     529A      3.792905   530A      3.795031   531A      3.802019  
     532A      3.811222   533A      3.821291   534A      3.831720  
     535A      3.837483   536A      3.844691   537A      3.861702  
     538A      3.871967   539A      3.883720   540A      3.887304  
     541A      3.890277   542A      3.906287   543A      3.909207  
     544A      3.916363   545A      3.919682   546A      3.920620  
     547A      3.937174   548A      3.950400   549A      3.963586  
     550A      3.968197   551A      3.970146   552A      3.985021  
     553A      3.985620   554A      3.989566   555A      3.997310  
     556A      4.005999   557A      4.012386   558A      4.019786  
     559A      4.032627   560A      4.036414   561A      4.038015  
     562A      4.056594   563A      4.060361   564A      4.065463  
     565A      4.074310   566A      4.077698   567A      4.090343  
     568A      4.093450   569A      4.106102   570A      4.109716  
     571A      4.113671   572A      4.135338   573A      4.142839  
     574A      4.146959   575A      4.147191   576A      4.167477  
     577A      4.172187   578A      4.186032   579A      4.187985  
     580A      4.190988   581A      4.200513   582A      4.212565  
     583A      4.225506   584A      4.231418   585A      4.239299  
     586A      4.257190   587A      4.265461   588A      4.273858  
     589A      4.274642   590A      4.283532   591A      4.290654  
     592A      4.317892   593A      4.320233   594A      4.327869  
     595A      4.335114   596A      4.359187   597A      4.364042  
     598A      4.392398   599A      4.395684   600A      4.405286  
     601A      4.413092   602A      4.416854   603A      4.441425  
     604A      4.443022   605A      4.452200   606A      4.468279  
     607A      4.472127   608A      4.475750   609A      4.482966  
     610A      4.511176   611A      4.514157   612A      4.524337  
     613A      4.538698   614A      4.542938   615A      4.572263  
     616A      4.575736   617A      4.597457   618A      4.599134  
     619A      4.623952   620A      4.630483   621A      4.634838  
     622A      4.645300   623A      4.660685   624A      4.666482  
     625A      4.691180   626A      4.707682   627A      4.710770  
     628A      4.724112   629A      4.751818   630A      4.757287  
     631A      4.759868   632A      4.765403   633A      4.772484  
     634A      4.803561   635A      4.804111   636A      4.817849  
     637A      4.817953   638A      4.846306   639A      4.861472  
     640A      4.868754   641A      4.874241   642A      4.885158  
     643A      4.886002   644A      4.919821   645A      4.923368  
     646A      4.923880   647A      4.943701   648A      4.947330  
     649A      4.951618   650A      4.969743   651A      4.972532  
     652A      4.975459   653A      4.985788   654A      5.003635  
     655A      5.006205   656A      5.019095   657A      5.043717  
     658A      5.055241   659A      5.085365   660A      5.091369  
     661A      5.098231   662A      5.100479   663A      5.113188  
     664A      5.135347   665A      5.136731   666A      5.168451  
     667A      5.172895   668A      5.176572   669A      5.181563  
     670A      5.188975   671A      5.218698   672A      5.221281  
     673A      5.221455   674A      5.259644   675A      5.261638  
     676A      5.262655   677A      5.274019   678A      5.279919  
     679A      5.303305   680A      5.307279   681A      5.309748  
     682A      5.334130   683A      5.350456   684A      5.358148  
     685A      5.376655   686A      5.379447   687A      5.390648  
     688A      5.404836   689A      5.423573   690A      5.424657  
     691A      5.429482   692A      5.432153   693A      5.447879  
     694A      5.453228   695A      5.458035   696A      5.475576  
     697A      5.490798   698A      5.495074   699A      5.514741  
     700A      5.528274   701A      5.540449   702A      5.551058  
     703A      5.553463   704A      5.580202   705A      5.585948  
     706A      5.599276   707A      5.613694   708A      5.637173  
     709A      5.646211   710A      5.653018   711A      5.663531  
     712A      5.677995   713A      5.683810   714A      5.701286  
     715A      5.705256   716A      5.730736   717A      5.731009  
     718A      5.735439   719A      5.744203   720A      5.748804  
     721A      5.770521   722A      5.779636   723A      5.798531  
     724A      5.798708   725A      5.821874   726A      5.859536  
     727A      5.863040   728A      5.871664   729A      5.895889  
     730A      5.924144   731A      5.944934   732A      5.998176  
     733A      6.017756   734A      6.031564   735A      6.031604  
     736A      6.071704   737A      6.082629   738A      6.099919  
     739A      6.108497   740A      6.163337   741A      6.168681  
     742A      6.195561   743A      6.212133   744A      6.217219  
     745A      6.239354   746A      6.248272   747A      6.282699  
     748A      6.284218   749A      6.304271   750A      6.320286  
     751A      6.353938   752A      6.361308   753A      6.362599  
     754A      6.407908   755A      6.413942   756A      6.439996  
     757A      6.502728   758A      6.513808   759A      6.601299  
     760A      6.667396   761A      6.701390   762A      6.703020  
     763A      6.793142   764A      6.806835   765A      6.815271  
     766A      6.819659   767A      6.952111   768A      6.962574  
     769A      6.987642   770A      6.991360   771A      7.065481  
     772A      7.080349   773A      7.148229   774A      7.181406  
     775A     18.098391   776A     18.156535   777A     18.589415  
     778A     18.769675   779A     19.333261   780A     19.629394  
     781A     19.960059   782A     20.041904  

    Final Occupation by Irrep:
              A 
    DOCC [    33 ]

  Energy converged.

  @DF-RHF Final Energy:  -313.53186087209934

   => Energetics <=

    Nuclear Repulsion Energy =            402.0390417818055653
    One-Electron Energy =               -1219.2112025918636391
    Two-Electron Energy =                 503.6402999379588437
    DFT Exchange-Correlation Energy =       0.0000000000000000
    Empirical Dispersion Energy =           0.0000000000000000
    PCM Polarization Energy =               0.0000000000000000
    EFP Energy =                            0.0000000000000000
    Total Energy =                       -313.5318608720992870


  Saving occupied orbitals to File 180.

*** tstop() called on wr34 at Tue Sep 20 19:18:35 2016
Module time:
	user time   =     953.24 seconds =      15.89 minutes
	system time =      13.08 seconds =       0.22 minutes
	total time  =         91 seconds =       1.52 minutes
Total time:
	user time   =     953.24 seconds =      15.89 minutes
	system time =      13.08 seconds =       0.22 minutes
	total time  =         91 seconds =       1.52 minutes


Properties will be evaluated at   0.000000,   0.000000,   0.000000 Bohr

Properties computed using the SCF density matrix

  Nuclear Dipole Moment: (a.u.)
     X:    -0.0000      Y:     0.0000      Z:    -0.5534

  Electronic Dipole Moment: (a.u.)
     X:     0.0000      Y:    -0.0000      Z:     0.5701

  Dipole Moment: (a.u.)
     X:     0.0000      Y:    -0.0000      Z:     0.0167     Total:     0.0167

  Dipole Moment: (Debye)
     X:     0.0000      Y:    -0.0000      Z:     0.0425     Total:     0.0425


  //>>>>>>>>>>>>>>>>>>>>>>>>>>>>>>>>>>>//
  //               DFMP2               //
  //<<<<<<<<<<<<<<<<<<<<<<<<<<<<<<<<<<<//


*** tstart() called on wr34
*** at Tue Sep 20 19:18:35 2016


*** tstop() called on wr34 at Tue Sep 20 19:18:36 2016
Module time:
	user time   =       5.05 seconds =       0.08 minutes
	system time =       0.24 seconds =       0.00 minutes
	total time  =          1 seconds =       0.02 minutes
Total time:
	user time   =     959.53 seconds =      15.99 minutes
	system time =      13.37 seconds =       0.22 minutes
	total time  =         92 seconds =       1.53 minutes
	 --------------------------------------------------------
	                          DF-MP2                         
	      2nd-Order Density-Fitted Moller-Plesset Theory     
	              RMP2 Wavefunction,  12 Threads             
	                                                         
	        Rob Parrish, Justin Turney, Andy Simmonett,      
	           Ed Hohenstein, and C. David Sherrill          
	 --------------------------------------------------------

   => Auxiliary Basis Set <=

  Basis Set: 
    Number of shells: 476
    Number of basis function: 1676
    Number of Cartesian functions: 2078
    Spherical Harmonics?: true
    Max angular momentum: 4

	 --------------------------------------------------------
	                 NBF =   782, NAUX =  1676
	 --------------------------------------------------------
	   CLASS    FOCC     OCC    AOCC    AVIR     VIR    FVIR
	   PAIRS       8      33      25     749     749       0
	 --------------------------------------------------------

DGAS Warning! /src/lib/libfock/apps.cc:80 is not currently checking restricted

         ------------------------------------------------------------
                                     CPHF                           
                                  Rob Parrish                       
         ------------------------------------------------------------

  ==> Geometry <==

    Molecular point group: c1
    Full point group: C1

    Geometry (in Angstrom), charge = 0, multiplicity = 1:

       Center              X                  Y                   Z               Mass       
    ------------   -----------------  -----------------  -----------------  -----------------
           C          3.037626262235    -0.856052597779    -0.365211776064    12.000000000000
           H          4.081222501838    -1.008424311051    -0.632327996794     1.007825032070
           H          2.441929078335    -1.015194874794    -1.261018524802     1.007825032070
           H          2.762427060986    -1.620707494228     0.359659284238     1.007825032070
           C         -3.037634643243     0.856057518234    -0.365152815418    12.000000000000
           H         -2.762433726946     1.620692061423     0.359738805804     1.007825032070
           H         -4.081233755417     1.008431714411    -0.632256169499     1.007825032070
           H         -2.441945601011     1.015229675673    -1.260959530383     1.007825032070
           C          2.819905848561     0.533726891887     0.206109712733    12.000000000000
           H          3.093784083448     1.278124363692    -0.543729748746     1.007825032070
           H          3.491751194755     0.683507257279     1.051988494392     1.007825032070
           C         -2.819901866882    -0.533737914307     0.206125329862    12.000000000000
           H         -3.491737221775    -0.683546559416     1.052006825254     1.007825032070
           H         -3.093784734343    -1.278114202637    -0.543733265643     1.007825032070
           C          1.390828965409     0.801554401312     0.654879360708    12.000000000000
           H          1.347906531487     1.802397554300     1.084531658467     1.007825032070
           H          1.134533385415     0.110527535275     1.461277370184     1.007825032070
           C          0.361465982810     0.671605927315    -0.471012068250    12.000000000000
           H          0.863078051272     0.820410870192    -1.429938159519     1.007825032070
           H         -0.377728280612     1.466325916256    -0.385650022972     1.007825032070
           C         -0.361471547298    -0.671583526478    -0.471031407433    12.000000000000
           H         -0.863097432007    -0.820352701179    -1.429955499730     1.007825032070
           H          0.377722504190    -1.466307769554    -0.385709347558     1.007825032070
           C         -1.390818310753    -0.801571211448     0.654870107774    12.000000000000
           H         -1.347884972984    -1.802426456966     1.084492800638     1.007825032070
           H         -1.134516892332    -0.110566491154     1.461284802256     1.007825032070

  Nuclear repulsion =  402.039041781805565
  Reference energy  = -313.531860872099344

  ==> Basis Set <==

  Basis Set: AUG-CC-PVTZ
    Number of shells: 274
    Number of basis function: 782
    Number of Cartesian functions: 890
    Spherical Harmonics?: true
    Max angular momentum: 3

  ==> CGRSolver (by Rob Parrish) <==

   Number of roots    =         1
   Preconditioning    =    JACOBI
   Convergence cutoff =     1E-06
   Maximum iterations =       100

  ==> CPHFRHamiltonian (by Rob Parrish) <== 

  ==> DFJK: Density-Fitted J/K Matrices <==

    J tasked:                  Yes
    K tasked:                  Yes
    wK tasked:                  No
    OpenMP threads:             12
    Integrals threads:          12
    Memory (MB):             21457
    Algorithm:                Core
    Integral Cache:           NONE
    Schwarz Cutoff:          1E-12
    Fitting Condition:       1E-12

   => Auxiliary Basis Set <=

  Basis Set: 
    Number of shells: 492
    Number of basis function: 1660
    Number of Cartesian functions: 2038
    Spherical Harmonics?: true
    Max angular momentum: 4

  ==> CPHF Iterations <==

  => Iterations <=

             Iter  Converged  Remaining    Residual
  CGR           1          0          1   9.363E-02
  CGR           2          0          1   1.317E-02
  CGR           3          0          1   3.431E-03
  CGR           4          0          1   8.473E-04
  CGR           5          0          1   2.137E-04
  CGR           6          0          1   4.273E-05
  CGR           7          0          1   1.275E-05
  CGR           8          0          1   3.198E-06
  CGR           9          1          0   7.206E-07

    CGRSolver converged.

  ==> DFCorrGrad: Density-Fitted Correlated Gradients <==

    OpenMP threads:             12
    Integrals threads:          12
    Memory (MB):             21457
    Schwarz Cutoff:          0E+00
    Fitting Condition:       1E-12

   => Auxiliary Basis Set <=

  Basis Set: 
    Number of shells: 492
    Number of basis function: 1660
    Number of Cartesian functions: 2038
    Spherical Harmonics?: true
    Max angular momentum: 4

	-----------------------------------------------------------
	 ==================> DF-MP2 Energies <==================== 
	-----------------------------------------------------------
	 Reference Energy          =    -313.5318608720993439 [Eh]
	 Singles Energy            =      -0.0000000000000000 [Eh]
	 Same-Spin Energy          =      -0.3176746701794896 [Eh]
	 Opposite-Spin Energy      =      -1.1269095723481122 [Eh]
	 Correlation Energy        =      -1.4445842425276019 [Eh]
	 Total Energy              =    -314.9764451146269266 [Eh]
	-----------------------------------------------------------
	 ================> DF-SCS-MP2 Energies <================== 
	-----------------------------------------------------------
	 SCS Same-Spin Scale       =       0.3333333333333333 [-]
	 SCS Opposite-Spin Scale   =       1.2000000000000000 [-]
	 SCS Same-Spin Energy      =      -0.1058915567264965 [Eh]
	 SCS Opposite-Spin Energy  =      -1.3522914868177345 [Eh]
	 SCS Correlation Energy    =      -1.4581830435442309 [Eh]
	 SCS Total Energy          =    -314.9900439156435823 [Eh]
	-----------------------------------------------------------


  -Total Gradient:
     Atom            X                  Y                   Z
    ------   -----------------  -----------------  -----------------
       1       -0.000688659620     0.001448054169     0.000511713323
       2       -0.001258360223     0.000331638485     0.000388324662
       3        0.000760571107     0.000479810652     0.001350587971
       4        0.000290875046     0.001236455339    -0.000909256823
       5        0.000688620842    -0.001448128046     0.000511717706
       6       -0.000290828233    -0.001236295021    -0.000909197590
       7        0.001258240484    -0.000331676322     0.000388275675
       8       -0.000760402261    -0.000479770367     0.001350391612
       9       -0.001635823038    -0.001350996570    -0.000188860401
      10       -0.000658235167    -0.001029918863     0.000849168722
      11       -0.000994009095    -0.000365519793    -0.000945695848
      12        0.001635936184     0.001351266900    -0.000188852159
      13        0.000993812855     0.000365536779    -0.000945459172
      14        0.000658167510     0.001029654084     0.000848943339
      15        0.000763850602    -0.000650481478    -0.001730383923
      16       -0.000076346330    -0.001107878955    -0.000711330031
      17        0.000375114525     0.000558697961    -0.001379719513
      18        0.000046399908    -0.001231598376     0.001318955503
      19       -0.000587351376    -0.000682460719     0.001163829150
      20        0.000933806949    -0.001026896498     0.000282691480
      21       -0.000045977069     0.001231719863     0.001319015402
      22        0.000587362147     0.000682433775     0.001163720329
      23       -0.000933603179     0.001026942381     0.000282752785
      24       -0.000764424199     0.000650234720    -0.001730634017
      25        0.000076226615     0.001107540695    -0.000711239162
      26       -0.000374964982    -0.000558364796    -0.001379459019


			-----------------------------------------
			 OPTKING 2.0: for geometry optimizations 
			  - R.A. King,  Bethel University        
			-----------------------------------------

	Internal coordinates to be generated automatically.
	Detected frag 1 with atoms:  1 2 3 4 5 6 7 8 9 10 11 12 13 14 15 16 17 18 19 20
	 21 22 23 24 25 26
	---Fragment 1 Bond Connectivity---
	 1 : 2 3 4 9
	 2 : 1
	 3 : 1
	 4 : 1
	 5 : 6 7 8 12
	 6 : 5
	 7 : 5
	 8 : 5
	 9 : 1 10 11 15
	 10 : 9
	 11 : 9
	 12 : 5 13 14 24
	 13 : 12
	 14 : 12
	 15 : 9 16 17 18
	 16 : 15
	 17 : 15
	 18 : 15 19 20 21
	 19 : 18
	 20 : 18
	 21 : 18 22 23 24
	 22 : 21
	 23 : 21
	 24 : 12 21 25 26
	 25 : 24
	 26 : 24

	---Fragment 1 Geometry and Gradient---
	 C           5.7402817297       -1.6177049651       -0.6901502373
	 H           7.7123928158       -1.9056457736       -1.1949267401
	 H           4.6145771940       -1.9184402849       -2.3829796604
	 H           5.2202306073       -3.0626933056        0.6796575484
	 C          -5.7402975675        1.6177142635       -0.6900388178
	 H          -5.2202432042        3.0626641418        0.6798078223
	 H          -7.7124140820        1.9056597640       -1.1947910062
	 H          -4.6146084173        1.9185060490       -2.3828681771
	 C           5.3288497743        1.0085976554        0.3894909104
	 H           5.8464046320        2.4153050111       -1.0275003154
	 H           6.5984534823        1.2916415261        1.9879701493
	 C          -5.3288422500       -1.0086184848        0.3895204225
	 H          -6.5984270772       -1.2917157964        1.9880047897
	 H          -5.8464058620       -2.4152858095       -1.0275069614
	 C           2.6282858423        1.5147182991        1.2375426418
	 H           2.5471741972        3.4060377602        2.0494678169
	 H           2.1439573870        0.2088667718        2.7614140338
	 C           0.6830717139        1.2691512718       -0.8900838143
	 H           1.6309811482        1.5503518611       -2.7021915085
	 H          -0.7138030030        2.7709544033       -0.7287729266
	 C          -0.6830822292       -1.2691089404       -0.8901203600
	 H          -1.6310177725       -1.5502419376       -2.7022242767
	 H           0.7137920871       -2.7709201110       -0.7288850338
	 C          -2.6282657079       -1.5147500656        1.2375251563
	 H          -2.5471334576       -3.4060923783        2.0493943863
	 H          -2.1439262196       -0.2089403878        2.7614280784
	            -0.0006886596        0.0014480542        0.0005117133
	            -0.0012583602        0.0003316385        0.0003883247
	             0.0007605711        0.0004798107        0.0013505880
	             0.0002908750        0.0012364553       -0.0009092568
	             0.0006886208       -0.0014481280        0.0005117177
	            -0.0002908282       -0.0012362950       -0.0009091976
	             0.0012582405       -0.0003316763        0.0003882757
	            -0.0007604023       -0.0004797704        0.0013503916
	            -0.0016358230       -0.0013509966       -0.0001888604
	            -0.0006582352       -0.0010299189        0.0008491687
	            -0.0009940091       -0.0003655198       -0.0009456958
	             0.0016359362        0.0013512669       -0.0001888522
	             0.0009938129        0.0003655368       -0.0009454592
	             0.0006581675        0.0010296541        0.0008489433
	             0.0007638506       -0.0006504815       -0.0017303839
	            -0.0000763463       -0.0011078790       -0.0007113300
	             0.0003751145        0.0005586980       -0.0013797195
	             0.0000463999       -0.0012315984        0.0013189555
	            -0.0005873514       -0.0006824607        0.0011638291
	             0.0009338069       -0.0010268965        0.0002826915
	            -0.0000459771        0.0012317199        0.0013190154
	             0.0005873621        0.0006824338        0.0011637203
	            -0.0009336032        0.0010269424        0.0002827528
	            -0.0007644242        0.0006502347       -0.0017306340
	             0.0000762266        0.0011075407       -0.0007112392
	            -0.0003749650       -0.0005583648       -0.0013794590

	Previous optimization step data not found.  Starting new optimization.

	---Fragment 1 Intrafragment Coordinates---
	 - Coordinate -           - BOHR/RAD -       - ANG/DEG -
	 R(1,2)           =         2.055950	       1.087962
	 R(1,3)           =         2.055073	       1.087498
	 R(1,4)           =         2.057867	       1.088976
	 R(1,9)           =         2.869210	       1.518321
	 R(5,6)           =         2.057867	       1.088976
	 R(5,7)           =         2.055950	       1.087962
	 R(5,8)           =         2.055073	       1.087498
	 R(5,12)          =         2.869210	       1.518321
	 R(9,10)          =         2.062657	       1.091511
	 R(9,11)          =         2.060860	       1.090560
	 R(9,15)          =         2.875482	       1.521639
	 R(12,13)         =         2.060860	       1.090560
	 R(12,14)         =         2.062656	       1.091511
	 R(12,24)         =         2.875482	       1.521639
	 R(15,16)         =         2.059828	       1.090014
	 R(15,17)         =         2.064463	       1.092467
	 R(15,18)         =         2.893260	       1.531047
	 R(18,19)         =         2.064301	       1.092381
	 R(18,20)         =         2.057351	       1.088703
	 R(18,21)         =         2.882558	       1.525384
	 R(21,22)         =         2.064301	       1.092381
	 R(21,23)         =         2.057351	       1.088703
	 R(21,24)         =         2.893260	       1.531047
	 R(24,25)         =         2.059828	       1.090014
	 R(24,26)         =         2.064462	       1.092466
	 B(1,9,10)        =         1.906859	     109.254972
	 B(1,9,11)        =         1.906291	     109.222428
	 B(1,9,15)        =         1.989701	     114.001456
	 B(2,1,3)         =         1.878314	     107.619472
	 B(2,1,4)         =         1.883356	     107.908361
	 B(2,1,9)         =         1.937060	     110.985341
	 B(3,1,4)         =         1.882971	     107.886280
	 B(3,1,9)         =         1.944815	     111.429716
	 B(4,1,9)         =         1.934803	     110.856039
	 B(5,12,13)       =         1.906291	     109.222446
	 B(5,12,14)       =         1.906859	     109.254959
	 B(5,12,24)       =         1.989700	     114.001395
	 B(6,5,7)         =         1.883356	     107.908362
	 B(6,5,8)         =         1.882971	     107.886285
	 B(6,5,12)        =         1.934803	     110.856034
	 B(7,5,8)         =         1.878314	     107.619465
	 B(7,5,12)        =         1.937060	     110.985359
	 B(8,5,12)        =         1.944815	     111.429704
	 B(9,15,16)       =         1.891092	     108.351573
	 B(9,15,17)       =         1.903600	     109.068253
	 B(9,15,18)       =         1.981886	     113.553717
	 B(10,9,11)       =         1.859383	     106.534810
	 B(10,9,15)       =         1.894648	     108.555347
	 B(11,9,15)       =         1.902497	     109.005042
	 B(12,24,21)      =         1.981884	     113.553610
	 B(12,24,25)      =         1.891092	     108.351610
	 B(12,24,26)      =         1.903600	     109.068239
	 B(13,12,14)      =         1.859383	     106.534813
	 B(13,12,24)      =         1.902498	     109.005104
	 B(14,12,24)      =         1.894648	     108.555341
	 B(15,18,19)      =         1.902068	     108.980440
	 B(15,18,20)      =         1.914390	     109.686449
	 B(15,18,21)      =         1.975110	     113.165477
	 B(16,15,17)      =         1.855214	     106.295935
	 B(16,15,18)      =         1.919118	     109.957344
	 B(17,15,18)      =         1.908578	     109.353476
	 B(18,21,22)      =         1.915127	     109.728705
	 B(18,21,23)      =         1.897576	     108.723079
	 B(18,21,24)      =         1.975109	     113.165410
	 B(19,18,20)      =         1.855807	     106.329887
	 B(19,18,21)      =         1.915128	     109.728735
	 B(20,18,21)      =         1.897574	     108.722982
	 B(21,24,25)      =         1.919119	     109.957396
	 B(21,24,26)      =         1.908579	     109.353515
	 B(22,21,23)      =         1.855806	     106.329863
	 B(22,21,24)      =         1.902068	     108.980453
	 B(23,21,24)      =         1.914390	     109.686463
	 B(25,24,26)      =         1.855214	     106.295935
	 D(1,9,15,16)     =         3.100953	     177.671507
	 D(1,9,15,17)     =         1.088477	      62.365124
	 D(1,9,15,18)     =        -1.044681	     -59.855802
	 D(2,1,9,10)      =         1.058667	      60.657159
	 D(2,1,9,11)      =        -0.968906	     -55.514247
	 D(2,1,9,15)      =        -3.101576	    -177.707232
	 D(3,1,9,10)      =        -1.034370	     -59.265054
	 D(3,1,9,11)      =        -3.061944	    -175.436460
	 D(3,1,9,15)      =         1.088572	      62.370556
	 D(4,1,9,10)      =        -3.131778	    -179.437655
	 D(4,1,9,11)      =         1.123834	      64.390939
	 D(4,1,9,15)      =        -1.008836	     -57.802046
	 D(5,12,24,21)    =        -1.044680	     -59.855781
	 D(5,12,24,25)    =         3.100953	     177.671506
	 D(5,12,24,26)    =         1.088477	      62.365112
	 D(6,5,12,13)     =         1.123831	      64.390781
	 D(6,5,12,14)     =        -3.131781	    -179.437806
	 D(6,5,12,24)     =        -1.008840	     -57.802256
	 D(7,5,12,13)     =        -0.968909	     -55.514416
	 D(7,5,12,14)     =         1.058664	      60.656997
	 D(7,5,12,24)     =        -3.101580	    -177.707453
	 D(8,5,12,13)     =        -3.061947	    -175.436623
	 D(8,5,12,14)     =        -1.034373	     -59.265210
	 D(8,5,12,24)     =         1.088568	      62.370340
	 D(9,15,18,19)    =        -0.406673	     -23.300641
	 D(9,15,18,20)    =        -2.431788	    -139.331172
	 D(9,15,18,21)    =         1.729167	      99.073975
	 D(10,9,15,16)    =        -1.052553	     -60.306867
	 D(10,9,15,17)    =        -3.065029	    -175.613250
	 D(10,9,15,18)    =         1.084998	      62.165824
	 D(11,9,15,16)    =         0.966199	      55.359136
	 D(11,9,15,17)    =        -1.046277	     -59.947246
	 D(11,9,15,18)    =         3.103751	     177.831827
	 D(12,24,21,18)   =         1.729176	      99.074466
	 D(12,24,21,22)   =        -0.406663	     -23.300074
	 D(12,24,21,23)   =        -2.431778	    -139.330592
	 D(13,12,24,21)   =         3.103751	     177.831820
	 D(13,12,24,25)   =         0.966199	      55.359107
	 D(13,12,24,26)   =        -1.046278	     -59.947287
	 D(14,12,24,21)   =         1.084998	      62.165783
	 D(14,12,24,25)   =        -1.052554	     -60.306930
	 D(14,12,24,26)   =        -3.065031	    -175.613324
	 D(15,18,21,22)   =        -2.867198	    -164.278350
	 D(15,18,21,23)   =        -0.844212	     -48.369768
	 D(15,18,21,24)   =         1.287443	      73.765045
	 D(16,15,18,19)   =         1.715316	      98.280341
	 D(16,15,18,20)   =        -0.309799	     -17.750190
	 D(16,15,18,21)   =        -2.432030	    -139.345044
	 D(17,15,18,19)   =        -2.537070	    -145.363389
	 D(17,15,18,20)   =         1.721001	      98.606080
	 D(17,15,18,21)   =        -0.401230	     -22.988774
	 D(18,21,24,25)   =        -2.432021	    -139.344540
	 D(18,21,24,26)   =        -0.401220	     -22.988218
	 D(19,18,21,22)   =        -0.738653	     -42.321693
	 D(19,18,21,23)   =         1.284333	      73.586889
	 D(19,18,21,24)   =        -2.867197	    -164.278298
	 D(20,18,21,22)   =         1.284333	      73.586880
	 D(20,18,21,23)   =        -2.975866	    -170.504538
	 D(20,18,21,24)   =        -0.844211	     -48.369725
	 D(22,21,24,25)   =         1.715326	      98.280919
	 D(22,21,24,26)   =        -2.537059	    -145.362759
	 D(23,21,24,25)   =        -0.309789	     -17.749598
	 D(23,21,24,26)   =         1.721012	      98.606724
	 R(1,21)          =         6.435924	       3.405744
	 R(5,18)          =         6.435929	       3.405747

	Current energy   :      -314.9764451146

	Generating empirical Hessian (Schlegel '84) for each fragment.
	Taking RFO optimization step.
	Going to follow RFO solution 1.
	Using RFO vector 1.
	Norm of target step-size    0.21795
	Projected energy change by RFO approximation:        -0.0008777993

	Back-transformation to cartesian coordinates...
	Successfully converged to displaced geometry.

	--- Internal Coordinate Step in ANG or DEG, aJ/ANG or AJ/DEG ---
	 ---------------------------------------------------------------------------
	   Coordinate                Previous        Force       Change         New 
	   ----------                --------       ------       ------       ------
	    1 R(1,2)          =      1.087962     0.011113     0.002033     1.089995
	    2 R(1,3)          =      1.087498     0.013176     0.002407     1.089904
	    3 R(1,4)          =      1.088976     0.012745     0.002339     1.091316
	    4 R(1,9)          =      1.518321     0.030136     0.006586     1.524906
	    5 R(5,6)          =      1.088976     0.012743     0.002339     1.091315
	    6 R(5,7)          =      1.087962     0.011112     0.002033     1.089995
	    7 R(5,8)          =      1.087498     0.013175     0.002406     1.089904
	    8 R(5,12)         =      1.518321     0.030135     0.006585     1.524906
	    9 R(9,10)         =      1.091511     0.011954     0.002213     1.093723
	   10 R(9,11)         =      1.090560     0.011502     0.002122     1.092682
	   11 R(9,15)         =      1.521639     0.028545     0.007411     1.529050
	   12 R(12,13)        =      1.090560     0.011499     0.002122     1.092682
	   13 R(12,14)        =      1.091511     0.011951     0.002212     1.093723
	   14 R(12,24)        =      1.521639     0.028545     0.007411     1.529050
	   15 R(15,16)        =      1.090014     0.010666     0.001964     1.091978
	   16 R(15,17)        =      1.092467     0.012027     0.002233     1.094700
	   17 R(15,18)        =      1.531047     0.028861     0.007333     1.538380
	   18 R(18,19)        =      1.092381     0.011405     0.002117     1.094498
	   19 R(18,20)        =      1.088703     0.011217     0.002057     1.090760
	   20 R(18,21)        =      1.525384     0.028472     0.007358     1.532743
	   21 R(21,22)        =      1.092381     0.011404     0.002117     1.094498
	   22 R(21,23)        =      1.088703     0.011216     0.002057     1.090760
	   23 R(21,24)        =      1.531047     0.028857     0.007332     1.538379
	   24 R(24,25)        =      1.090014     0.010663     0.001964     1.091978
	   25 R(24,26)        =      1.092466     0.012023     0.002232     1.094699
	   26 B(1,9,10)       =    109.254972     0.000022     0.043639   109.298611
	   27 B(1,9,11)       =    109.222428     0.000029    -0.079910   109.142518
	   28 B(1,9,15)       =    114.001456    -0.000087     0.193780   114.195236
	   29 B(2,1,3)        =    107.619472    -0.000017    -0.134952   107.484520
	   30 B(2,1,4)        =    107.908361    -0.000015    -0.129111   107.779251
	   31 B(2,1,9)        =    110.985341     0.000008     0.061214   111.046555
	   32 B(3,1,4)        =    107.886280    -0.000018    -0.055490   107.830790
	   33 B(3,1,9)        =    111.429716     0.000024     0.143068   111.572785
	   34 B(4,1,9)        =    110.856039     0.000016     0.096994   110.953033
	   35 B(5,12,13)      =    109.222446     0.000029    -0.079862   109.142584
	   36 B(5,12,14)      =    109.254959     0.000022     0.043624   109.298584
	   37 B(5,12,24)      =    114.001395    -0.000087     0.193699   114.195095
	   38 B(6,5,7)        =    107.908362    -0.000015    -0.129118   107.779245
	   39 B(6,5,8)        =    107.886285    -0.000018    -0.055485   107.830800
	   40 B(6,5,12)       =    110.856034     0.000016     0.096982   110.953016
	   41 B(7,5,8)        =    107.619465    -0.000017    -0.134959   107.484506
	   42 B(7,5,12)       =    110.985359     0.000008     0.061246   111.046605
	   43 B(8,5,12)       =    111.429704     0.000024     0.143058   111.572762
	   44 B(9,15,16)      =    108.351573     0.000031    -0.132549   108.219024
	   45 B(9,15,17)      =    109.068253     0.000007     0.049025   109.117278
	   46 B(9,15,18)      =    113.553717    -0.000067     0.212246   113.765963
	   47 B(10,9,11)      =    106.534810    -0.000025    -0.179793   106.355016
	   48 B(10,9,15)      =    108.555347     0.000035     0.069984   108.625331
	   49 B(11,9,15)      =    109.005042     0.000030    -0.073426   108.931616
	   50 B(12,24,21)     =    113.553610    -0.000067     0.212105   113.765716
	   51 B(12,24,25)     =    108.351610     0.000031    -0.132498   108.219112
	   52 B(12,24,26)     =    109.068239     0.000007     0.049047   109.117285
	   53 B(13,12,14)     =    106.534813    -0.000025    -0.179792   106.355021
	   54 B(13,12,24)     =    109.005104     0.000030    -0.073373   108.931731
	   55 B(14,12,24)     =    108.555341     0.000035     0.069982   108.625323
	   56 B(15,18,19)     =    108.980440     0.000001    -0.040896   108.939544
	   57 B(15,18,20)     =    109.686449     0.000013    -0.015295   109.671154
	   58 B(15,18,21)     =    113.165477    -0.000019     0.257257   113.422735
	   59 B(16,15,17)     =    106.295935    -0.000023    -0.240188   106.055747
	   60 B(16,15,18)     =    109.957344     0.000028    -0.079629   109.877715
	   61 B(17,15,18)     =    109.353476     0.000027     0.157700   109.511176
	   62 B(18,21,22)     =    109.728705     0.000005     0.113737   109.842442
	   63 B(18,21,23)     =    108.723079     0.000019    -0.072866   108.650213
	   64 B(18,21,24)     =    113.165410    -0.000019     0.257176   113.422586
	   65 B(19,18,20)     =    106.329887    -0.000019    -0.276602   106.053285
	   66 B(19,18,21)     =    109.728735     0.000005     0.113724   109.842460
	   67 B(20,18,21)     =    108.722982     0.000019    -0.072968   108.650014
	   68 B(21,24,25)     =    109.957396     0.000028    -0.079639   109.877757
	   69 B(21,24,26)     =    109.353515     0.000027     0.157791   109.511306
	   70 B(22,21,23)     =    106.329863    -0.000019    -0.276611   106.053251
	   71 B(22,21,24)     =    108.980453     0.000001    -0.040906   108.939546
	   72 B(23,21,24)     =    109.686463     0.000013    -0.015302   109.671161
	   73 B(25,24,26)     =    106.295935    -0.000023    -0.240192   106.055743
	   74 D(1,9,15,16)    =    177.671507    -0.000001    -1.281173   176.390334
	   75 D(1,9,15,17)    =     62.365124     0.000001    -0.951799    61.413326
	   76 D(1,9,15,18)    =    -59.855802     0.000002    -1.337615   -61.193417
	   77 D(2,1,9,10)     =     60.657159    -0.000000    -0.312264    60.344895
	   78 D(2,1,9,11)     =    -55.514247     0.000000    -0.076627   -55.590875
	   79 D(2,1,9,15)     =   -177.707232     0.000000    -0.055938  -177.763170
	   80 D(3,1,9,10)     =    -59.265054     0.000000    -0.278527   -59.543581
	   81 D(3,1,9,11)     =   -175.436460     0.000000    -0.042890  -175.479350
	   82 D(3,1,9,15)     =     62.370556     0.000000    -0.022201    62.348354
	   83 D(4,1,9,10)     =   -179.437655    -0.000001    -0.370067  -179.807721
	   84 D(4,1,9,11)     =     64.390939    -0.000001    -0.134430    64.256509
	   85 D(4,1,9,15)     =    -57.802046    -0.000001    -0.113741   -57.915786
	   86 D(5,12,24,21)   =    -59.855781     0.000002    -1.337727   -61.193508
	   87 D(5,12,24,25)   =    177.671506    -0.000001    -1.281215   176.390291
	   88 D(5,12,24,26)   =     62.365112     0.000001    -0.951875    61.413237
	   89 D(6,5,12,13)    =     64.390781    -0.000001    -0.134396    64.256385
	   90 D(6,5,12,14)    =   -179.437806    -0.000001    -0.370013  -179.807819
	   91 D(6,5,12,24)    =    -57.802256    -0.000001    -0.113756   -57.916012
	   92 D(7,5,12,13)    =    -55.514416     0.000000    -0.076597   -55.591014
	   93 D(7,5,12,14)    =     60.656997    -0.000000    -0.312214    60.344783
	   94 D(7,5,12,24)    =   -177.707453     0.000000    -0.055958  -177.763411
	   95 D(8,5,12,13)    =   -175.436623     0.000000    -0.042866  -175.479490
	   96 D(8,5,12,14)    =    -59.265210     0.000000    -0.278483   -59.543693
	   97 D(8,5,12,24)    =     62.370340     0.000000    -0.022227    62.348114
	   98 D(9,15,18,19)   =    -23.300641    -0.000007    -2.311809   -25.612450
	   99 D(9,15,18,20)   =   -139.331172    -0.000004    -1.948809  -141.279980
	  100 D(9,15,18,21)   =     99.073975    -0.000009    -2.020115    97.053859
	  101 D(10,9,15,16)   =    -60.306867    -0.000002    -1.041754   -61.348621
	  102 D(10,9,15,17)   =   -175.613250    -0.000000    -0.712380  -176.325629
	  103 D(10,9,15,18)   =     62.165824     0.000001    -1.098196    61.067628
	  104 D(11,9,15,16)   =     55.359136    -0.000001    -1.256523    54.102613
	  105 D(11,9,15,17)   =    -59.947246     0.000001    -0.927149   -60.874396
	  106 D(11,9,15,18)   =    177.831827     0.000002    -1.312965   176.518862
	  107 D(12,24,21,18)  =     99.074466    -0.000009    -2.019416    97.055050
	  108 D(12,24,21,22)  =    -23.300074    -0.000007    -2.311062   -25.611136
	  109 D(12,24,21,23)  =   -139.330592    -0.000004    -1.948039  -141.278631
	  110 D(13,12,24,21)  =    177.831820     0.000002    -1.313125   176.518696
	  111 D(13,12,24,25)  =     55.359107    -0.000001    -1.256612    54.102495
	  112 D(13,12,24,26)  =    -59.947287     0.000001    -0.927273   -60.874560
	  113 D(14,12,24,21)  =     62.165783     0.000001    -1.098385    61.067399
	  114 D(14,12,24,25)  =    -60.306930    -0.000002    -1.041872   -61.348802
	  115 D(14,12,24,26)  =   -175.613324    -0.000000    -0.712532  -176.325856
	  116 D(15,18,21,22)  =   -164.278350     0.000001    -1.845285  -166.123635
	  117 D(15,18,21,23)  =    -48.369768    -0.000001    -2.154711   -50.524479
	  118 D(15,18,21,24)  =     73.765045     0.000002    -2.054394    71.710651
	  119 D(16,15,18,19)  =     98.280341    -0.000004    -2.394622    95.885719
	  120 D(16,15,18,20)  =    -17.750190    -0.000001    -2.031621   -19.781812
	  121 D(16,15,18,21)  =   -139.345044    -0.000005    -2.102928  -141.447972
	  122 D(17,15,18,19)  =   -145.363389    -0.000003    -2.639093  -148.002482
	  123 D(17,15,18,20)  =     98.606080     0.000000    -2.276092    96.329988
	  124 D(17,15,18,21)  =    -22.988774    -0.000004    -2.347399   -25.336172
	  125 D(18,21,24,25)  =   -139.344540    -0.000005    -2.102268  -141.446809
	  126 D(18,21,24,26)  =    -22.988218    -0.000004    -2.346697   -25.334915
	  127 D(19,18,21,22)  =    -42.321693    -0.000001    -1.636114   -43.957807
	  128 D(19,18,21,23)  =     73.586889    -0.000003    -1.945540    71.641349
	  129 D(19,18,21,24)  =   -164.278298     0.000001    -1.845223  -166.123520
	  130 D(20,18,21,22)  =     73.586880    -0.000003    -1.945592    71.641288
	  131 D(20,18,21,23)  =   -170.504538    -0.000005    -2.255018  -172.759556
	  132 D(20,18,21,24)  =    -48.369725    -0.000001    -2.154701   -50.524426
	  133 D(22,21,24,25)  =     98.280919    -0.000004    -2.393914    95.887005
	  134 D(22,21,24,26)  =   -145.362759    -0.000003    -2.638342  -148.001101
	  135 D(23,21,24,25)  =    -17.749598    -0.000001    -2.030891   -19.780490
	  136 D(23,21,24,26)  =     98.606724     0.000000    -2.275320    96.331404
	  137 R(1,21)         =      3.405744     0.007975     0.004661     3.410405
	  138 R(5,18)         =      3.405747     0.007974     0.004665     3.410412
	 ---------------------------------------------------------------------------

  ==> Convergence Check <==

  Measures of convergence in internal coordinates in au.
  Criteria marked as inactive (o), active & met (*), and active & unmet ( ).
  --------------------------------------------------------------------------------------------- ~
   Step     Total Energy     Delta E     MAX Force     RMS Force      MAX Disp      RMS Disp    ~
  --------------------------------------------------------------------------------------------- ~
    Convergence Criteria             o    2.00e-06 *    1.00e-06 *    6.00e-06 *    4.00e-06 *  ~
  --------------------------------------------------------------------------------------------- ~
      1    -314.97644511   -3.15e+02 o    3.66e-03      9.90e-04      4.61e-02      1.86e-02    ~
  ---------------------------------------------------------------------------------------------

	Writing optimization data to binary file.
	Structure for next step:
	Cartesian Geometry (in Angstrom)
	    C     3.0446629620  -0.8723606727  -0.2870421163
	    H     4.0950141265  -1.0357667094  -0.5281844025
	    H     2.4652312103  -1.0879638562  -1.1846307907
	    H     2.7610752006  -1.5988908090   0.4763070419
	    C    -3.0446763648   0.8723545121  -0.2869909286
	    H    -2.7610931573   1.5988658103   0.4763772219
	    H    -4.0950304465   1.0357553420  -0.5281229636
	    H    -2.4652522930   1.0879899924  -1.1845762349
	    C     2.8104795356   0.5526648854   0.2026508391
	    H     3.0996895927   1.2568550638  -0.5826546517
	    H     3.4680004482   0.7521922073   1.0522446927
	    C    -2.8104726818  -0.5526820323   0.2026599859
	    H    -3.4679838120  -0.7522419635   1.0522528930
	    H    -3.0996802147  -1.2568525858  -0.5826631507
	    C     1.3668735011   0.8449398976   0.6132257114
	    H     1.3229617608   1.8630763261   1.0055098590
	    H     1.0904993835   0.1881152714   1.4442289667
	    C     0.3516159188   0.6809649344  -0.5308801199
	    H     0.8644238914   0.8343007889  -1.4855751723
	    H    -0.4047996863   1.4641198466  -0.4656001745
	    C    -0.3516212426  -0.6809298112  -0.5309031692
	    H    -0.8644457121  -0.8342243038  -1.4855955011
	    H     0.4047925090  -1.4640898906  -0.4656691606
	    C    -1.3668589567  -0.8449490312   0.6132121205
	    H    -1.3229282435  -1.8630945593   1.0054686643
	    H    -1.0904847642  -0.1881430773   1.4442287598
			--------------------------
			 OPTKING Finished Execution 
			--------------------------

    Structure for next step:
    Molecular point group: c1
    Full point group: C1

    Geometry (in Angstrom), charge = 0, multiplicity = 1:

    C            3.044662771266    -0.872360980259    -0.281875994263
    H            4.095013935786    -1.035767016898    -0.523018280441
    H            2.465231019590    -1.087964163712    -1.179464668695
    H            2.761075009847    -1.598891116565     0.481473163942
    C           -3.044676555598     0.872354204544    -0.281824806560
    H           -2.761093348071     1.598865502759     0.481543343960
    H           -4.095030637261     1.035755034472    -0.522956841536
    H           -2.465252483780     1.087989684887    -1.179410112803
    C            2.810479344883     0.552664577876     0.207816961104
    H            3.099689401926     1.256854756267    -0.577488529642
    H            3.468000257471     0.752191899782     1.057410814720
    C           -2.810472872575    -0.552682339812     0.207826107981
    H           -3.467984002765    -0.752242271020     1.057419015077
    H           -3.099680405445    -1.256852893303    -0.577497028667
    C            1.366873310382     0.844939590046     0.618391833438
    H            1.322961570037     1.863076018590     1.010675981084
    H            1.090499192728     0.188114963854     1.449395088721
    C            0.351615728026     0.680964626908    -0.525713997888
    H            0.864423700609     0.834300481389    -1.480409050280
    H           -0.404799877083     1.464119539097    -0.460434052402
    C           -0.351621433381    -0.680930118712    -0.525737047120
    H           -0.864445902846    -0.834224611301    -1.480429379033
    H            0.404792318280    -1.464090198158    -0.460503038581
    C           -1.366859147433    -0.844949338749     0.618378242530
    H           -1.322928434215    -1.863094866794     1.010634786386
    H           -1.090484954914    -0.188143384788     1.449394881821

gradient() will perform analytic gradient computation.

*** tstart() called on wr34
*** at Tue Sep 20 19:23:22 2016


         ---------------------------------------------------------
                                   SCF
            by Justin Turney, Rob Parrish, and Andy Simmonett
                              RHF Reference
                       12 Threads,  30000 MiB Core
         ---------------------------------------------------------

  ==> Geometry <==

    Molecular point group: c1
    Full point group: C1

    Geometry (in Angstrom), charge = 0, multiplicity = 1:

       Center              X                  Y                   Z               Mass       
    ------------   -----------------  -----------------  -----------------  -----------------
           C          3.044662771266    -0.872360980259    -0.281875994263    12.000000000000
           H          4.095013935786    -1.035767016898    -0.523018280441     1.007825032070
           H          2.465231019590    -1.087964163712    -1.179464668695     1.007825032070
           H          2.761075009847    -1.598891116565     0.481473163942     1.007825032070
           C         -3.044676555598     0.872354204544    -0.281824806560    12.000000000000
           H         -2.761093348071     1.598865502759     0.481543343960     1.007825032070
           H         -4.095030637261     1.035755034472    -0.522956841536     1.007825032070
           H         -2.465252483780     1.087989684887    -1.179410112803     1.007825032070
           C          2.810479344883     0.552664577876     0.207816961104    12.000000000000
           H          3.099689401926     1.256854756267    -0.577488529642     1.007825032070
           H          3.468000257471     0.752191899782     1.057410814720     1.007825032070
           C         -2.810472872575    -0.552682339812     0.207826107981    12.000000000000
           H         -3.467984002765    -0.752242271020     1.057419015077     1.007825032070
           H         -3.099680405445    -1.256852893303    -0.577497028667     1.007825032070
           C          1.366873310382     0.844939590046     0.618391833438    12.000000000000
           H          1.322961570037     1.863076018590     1.010675981084     1.007825032070
           H          1.090499192728     0.188114963854     1.449395088721     1.007825032070
           C          0.351615728026     0.680964626908    -0.525713997888    12.000000000000
           H          0.864423700609     0.834300481389    -1.480409050280     1.007825032070
           H         -0.404799877083     1.464119539097    -0.460434052402     1.007825032070
           C         -0.351621433381    -0.680930118712    -0.525737047120    12.000000000000
           H         -0.864445902846    -0.834224611301    -1.480429379033     1.007825032070
           H          0.404792318280    -1.464090198158    -0.460503038581     1.007825032070
           C         -1.366859147433    -0.844949338749     0.618378242530    12.000000000000
           H         -1.322928434215    -1.863094866794     1.010634786386     1.007825032070
           H         -1.090484954914    -0.188143384788     1.449394881821     1.007825032070

  Running in c1 symmetry.

  Rotational constants: A =      0.14372  B =      0.02767  C =      0.02580 [cm^-1]
  Rotational constants: A =   4308.47980  B =    829.43820  C =    773.55498 [MHz]
  Nuclear repulsion =  400.722532161379206

  Charge       = 0
  Multiplicity = 1
  Electrons    = 66
  Nalpha       = 33
  Nbeta        = 33

  ==> Algorithm <==

  SCF Algorithm Type is DF.
  DIIS enabled.
  MOM disabled.
  Fractional occupation disabled.
  Guess Type is READ.
  Energy threshold   = 1.00e-10
  Density threshold  = 1.00e-10
  Integral threshold = 0.00e+00

  ==> Primary Basis <==

  Basis Set: AUG-CC-PVTZ
    Number of shells: 274
    Number of basis function: 782
    Number of Cartesian functions: 890
    Spherical Harmonics?: true
    Max angular momentum: 3

  ==> Pre-Iterations <==

   -------------------------------------------------------
    Irrep   Nso     Nmo     Nalpha   Nbeta   Ndocc  Nsocc
   -------------------------------------------------------
     A        782     782       0       0       0       0
   -------------------------------------------------------
    Total     782     782      33      33      33       0
   -------------------------------------------------------

  ==> Integral Setup <==

  ==> DFJK: Density-Fitted J/K Matrices <==

    J tasked:                  Yes
    K tasked:                  Yes
    wK tasked:                  No
    OpenMP threads:             12
    Integrals threads:          12
    Memory (MB):             21457
    Algorithm:                Core
    Integral Cache:           NONE
    Schwarz Cutoff:          1E-12
    Fitting Condition:       1E-12

   => Auxiliary Basis Set <=

  Basis Set: 
    Number of shells: 492
    Number of basis function: 1660
    Number of Cartesian functions: 2038
    Spherical Harmonics?: true
    Max angular momentum: 4

  Minimum eigenvalue in the overlap matrix is 1.5408366399E-06.
  Using Symmetric Orthogonalization.
  SCF Guess: Reading in previously saved MOs, projecting if necessary.

  Using orbitals from previous SCF, no projection.
  Recomputing DOCC and SOCC from number of alpha and beta electrons from previous calculation.
              A 
    DOCC [    33 ]

  ==> Iterations <==

                           Total Energy        Delta E     RMS |[F,P]|

   @DF-RHF iter   0:  -313.44148486162004   -3.13441e+02   1.97007e-04 
   @DF-RHF iter   1:  -313.53086788215109   -8.93830e-02   4.64656e-05 
   @DF-RHF iter   2:  -313.53185937404800   -9.91492e-04   2.15510e-05 DIIS
   @DF-RHF iter   3:  -313.53203036386611   -1.70990e-04   6.57670e-06 DIIS
   @DF-RHF iter   4:  -313.53205989500344   -2.95311e-05   7.66846e-07 DIIS
   @DF-RHF iter   5:  -313.53206032589190   -4.30888e-07   2.53506e-07 DIIS
   @DF-RHF iter   6:  -313.53206036059061   -3.46987e-08   6.76292e-08 DIIS
   @DF-RHF iter   7:  -313.53206036346393   -2.87332e-09   1.41328e-08 DIIS
   @DF-RHF iter   8:  -313.53206036360092   -1.36993e-10   3.33057e-09 DIIS
   @DF-RHF iter   9:  -313.53206036360990   -8.98126e-12   8.28878e-10 DIIS
   @DF-RHF iter  10:  -313.53206036361058   -6.82121e-13   2.29013e-10 DIIS
   @DF-RHF iter  11:  -313.53206036361081   -2.27374e-13   5.95571e-11 DIIS

  ==> Post-Iterations <==

    Orbital Energies (a.u.)
    -----------------------

    Doubly Occupied:                                                      

       1A    -11.213038     2A    -11.213038     3A    -11.210066  
       4A    -11.209979     5A    -11.209427     6A    -11.208917  
       7A    -11.206851     8A    -11.206851     9A     -1.092997  
      10A     -1.058252    11A     -1.002932    12A     -0.945868  
      13A     -0.895390    14A     -0.825613    15A     -0.786071  
      16A     -0.754991    17A     -0.645055    18A     -0.629967  
      19A     -0.601611    20A     -0.600159    21A     -0.589298  
      22A     -0.542548    23A     -0.537711    24A     -0.536792  
      25A     -0.525628    26A     -0.498652    27A     -0.496492  
      28A     -0.467403    29A     -0.466522    30A     -0.461661  
      31A     -0.442581    32A     -0.439321    33A     -0.428048  

    Virtual:                                                              

      34A      0.030149    35A      0.034251    36A      0.034488  
      37A      0.034651    38A      0.045030    39A      0.048711  
      40A      0.048918    41A      0.053541    42A      0.055737  
      43A      0.066334    44A      0.070015    45A      0.070800  
      46A      0.074042    47A      0.077500    48A      0.086362  
      49A      0.090670    50A      0.095474    51A      0.102168  
      52A      0.116087    53A      0.116915    54A      0.122972  
      55A      0.124636    56A      0.127608    57A      0.130890  
      58A      0.133825    59A      0.133846    60A      0.137893  
      61A      0.142058    62A      0.143498    63A      0.148542  
      64A      0.153317    65A      0.155642    66A      0.158645  
      67A      0.164955    68A      0.171454    69A      0.172453  
      70A      0.174016    71A      0.175780    72A      0.186939  
      73A      0.188093    74A      0.188221    75A      0.194615  
      76A      0.196087    77A      0.214211    78A      0.221942  
      79A      0.230498    80A      0.235529    81A      0.236139  
      82A      0.246818    83A      0.250447    84A      0.255620  
      85A      0.259981    86A      0.282018    87A      0.287024  
      88A      0.288051    89A      0.294308    90A      0.296059  
      91A      0.301385    92A      0.304147    93A      0.311793  
      94A      0.312879    95A      0.317241    96A      0.319916  
      97A      0.323285    98A      0.323848    99A      0.331668  
     100A      0.338405   101A      0.339935   102A      0.340044  
     103A      0.347759   104A      0.353500   105A      0.355360  
     106A      0.361128   107A      0.362103   108A      0.364810  
     109A      0.371041   110A      0.372429   111A      0.375940  
     112A      0.376795   113A      0.380866   114A      0.381825  
     115A      0.384223   116A      0.386268   117A      0.400719  
     118A      0.409002   119A      0.411308   120A      0.418174  
     121A      0.420699   122A      0.423317   123A      0.431271  
     124A      0.432901   125A      0.436645   126A      0.437070  
     127A      0.441929   128A      0.446172   129A      0.450263  
     130A      0.451215   131A      0.453950   132A      0.466226  
     133A      0.466387   134A      0.473397   135A      0.474777  
     136A      0.480366   137A      0.482679   138A      0.487409  
     139A      0.490232   140A      0.492756   141A      0.494042  
     142A      0.497434   143A      0.500716   144A      0.503169  
     145A      0.511314   146A      0.514607   147A      0.515810  
     148A      0.524665   149A      0.532412   150A      0.538260  
     151A      0.540372   152A      0.542610   153A      0.552001  
     154A      0.552581   155A      0.553796   156A      0.558104  
     157A      0.562228   158A      0.566443   159A      0.571000  
     160A      0.576597   161A      0.580578   162A      0.585968  
     163A      0.589902   164A      0.592224   165A      0.604407  
     166A      0.607828   167A      0.610878   168A      0.615363  
     169A      0.616544   170A      0.620807   171A      0.623266  
     172A      0.626172   173A      0.632564   174A      0.634238  
     175A      0.650391   176A      0.657713   177A      0.658499  
     178A      0.660889   179A      0.662344   180A      0.666646  
     181A      0.672327   182A      0.675386   183A      0.681423  
     184A      0.688190   185A      0.689078   186A      0.696798  
     187A      0.697222   188A      0.703025   189A      0.717024  
     190A      0.719021   191A      0.726202   192A      0.735523  
     193A      0.742663   194A      0.753200   195A      0.759009  
     196A      0.761275   197A      0.764097   198A      0.769886  
     199A      0.776359   200A      0.788005   201A      0.790852  
     202A      0.805213   203A      0.812529   204A      0.826556  
     205A      0.834653   206A      0.839826   207A      0.848350  
     208A      0.848559   209A      0.858668   210A      0.864877  
     211A      0.865554   212A      0.868371   213A      0.876099  
     214A      0.885823   215A      0.888939   216A      0.890830  
     217A      0.899222   218A      0.904074   219A      0.907621  
     220A      0.919347   221A      0.923309   222A      0.925780  
     223A      0.929093   224A      0.932826   225A      0.940946  
     226A      0.947385   227A      0.949857   228A      0.956953  
     229A      0.964334   230A      0.968000   231A      0.974403  
     232A      0.977869   233A      0.981371   234A      0.986647  
     235A      0.989087   236A      0.999404   237A      1.003693  
     238A      1.006784   239A      1.008784   240A      1.009453  
     241A      1.014138   242A      1.024730   243A      1.036304  
     244A      1.036564   245A      1.040352   246A      1.043952  
     247A      1.047668   248A      1.056372   249A      1.056490  
     250A      1.064973   251A      1.065318   252A      1.076810  
     253A      1.084469   254A      1.092276   255A      1.095874  
     256A      1.100653   257A      1.106574   258A      1.112635  
     259A      1.116792   260A      1.131675   261A      1.137818  
     262A      1.138280   263A      1.150047   264A      1.150450  
     265A      1.151329   266A      1.153122   267A      1.154860  
[...]
	 Skipping Hessian update for step 6.
	Steps to be used in Hessian update: 11 5
	Taking RFO optimization step.
	Going to follow RFO solution 1.
	Using RFO vector 1.
	Norm of target step-size    0.00002
	Projected energy change by RFO approximation:        -0.0000000000

	Back-transformation to cartesian coordinates...
	Successfully converged to displaced geometry.

	--- Internal Coordinate Step in ANG or DEG, aJ/ANG or AJ/DEG ---
	 ---------------------------------------------------------------------------
	   Coordinate                Previous        Force       Change         New 
	   ----------                --------       ------       ------       ------
	    1 R(1,2)          =      1.089972    -0.000001    -0.000000     1.089972
	    2 R(1,3)          =      1.089851    -0.000001    -0.000000     1.089851
	    3 R(1,4)          =      1.091223    -0.000001    -0.000000     1.091223
	    4 R(1,9)          =      1.524559    -0.000000    -0.000000     1.524559
	    5 R(5,6)          =      1.091223    -0.000002    -0.000000     1.091223
	    6 R(5,7)          =      1.089973    -0.000002    -0.000000     1.089972
	    7 R(5,8)          =      1.089851    -0.000002    -0.000000     1.089851
	    8 R(5,12)         =      1.524559    -0.000000    -0.000000     1.524559
	    9 R(9,10)         =      1.093573    -0.000000    -0.000000     1.093573
	   10 R(9,11)         =      1.092607     0.000000    -0.000000     1.092607
	   11 R(9,15)         =      1.528583     0.000001     0.000000     1.528584
	   12 R(12,13)        =      1.092607    -0.000002    -0.000000     1.092607
	   13 R(12,14)        =      1.093573    -0.000001    -0.000000     1.093573
	   14 R(12,24)        =      1.528584    -0.000000    -0.000000     1.528583
	   15 R(15,16)        =      1.092009     0.000000    -0.000000     1.092009
	   16 R(15,17)        =      1.094490    -0.000001    -0.000000     1.094490
	   17 R(15,18)        =      1.537211     0.000002     0.000001     1.537212
	   18 R(18,19)        =      1.094469    -0.000003    -0.000000     1.094468
	   19 R(18,20)        =      1.090744    -0.000002    -0.000000     1.090743
	   20 R(18,21)        =      1.532217    -0.000001    -0.000000     1.532216
	   21 R(21,22)        =      1.094469    -0.000003    -0.000001     1.094468
	   22 R(21,23)        =      1.090743    -0.000002    -0.000000     1.090743
	   23 R(21,24)        =      1.537212    -0.000002    -0.000000     1.537211
	   24 R(24,25)        =      1.092009    -0.000001    -0.000000     1.092009
	   25 R(24,26)        =      1.094490    -0.000002    -0.000000     1.094490
	   26 B(1,9,10)       =    109.248678     0.000000     0.000022   109.248700
	   27 B(1,9,11)       =    109.166170    -0.000000    -0.000046   109.166123
	   28 B(1,9,15)       =    114.181881     0.000000     0.000041   114.181922
	   29 B(2,1,3)        =    107.583654     0.000000     0.000007   107.583660
	   30 B(2,1,4)        =    107.887573     0.000000    -0.000001   107.887572
	   31 B(2,1,9)        =    110.940255     0.000000     0.000016   110.940271
	   32 B(3,1,4)        =    107.880901     0.000000    -0.000005   107.880896
	   33 B(3,1,9)        =    111.483601    -0.000000    -0.000004   111.483597
	   34 B(4,1,9)        =    110.905601    -0.000000    -0.000012   110.905589
	   35 B(5,12,13)      =    109.166123    -0.000000     0.000013   109.166137
	   36 B(5,12,14)      =    109.248696    -0.000000    -0.000010   109.248686
	   37 B(5,12,24)      =    114.181918     0.000000     0.000013   114.181931
	   38 B(6,5,7)        =    107.887572    -0.000000    -0.000005   107.887568
	   39 B(6,5,8)        =    107.880900     0.000000     0.000001   107.880901
	   40 B(6,5,12)       =    110.905587    -0.000000    -0.000007   110.905579
	   41 B(7,5,8)        =    107.583654    -0.000000     0.000001   107.583655
	   42 B(7,5,12)       =    110.940269     0.000000     0.000020   110.940289
	   43 B(8,5,12)       =    111.483604    -0.000000    -0.000010   111.483594
	   44 B(9,15,16)      =    108.132799    -0.000000    -0.000003   108.132795
	   45 B(9,15,17)      =    109.142156    -0.000000    -0.000038   109.142118
	   46 B(9,15,18)      =    113.776382     0.000000     0.000074   113.776456
	   47 B(10,9,11)      =    106.427422    -0.000000    -0.000015   106.427407
	   48 B(10,9,15)      =    108.625143    -0.000000    -0.000001   108.625142
	   49 B(11,9,15)      =    108.905566     0.000000    -0.000004   108.905562
	   50 B(12,24,21)     =    113.776455    -0.000000    -0.000037   113.776418
	   51 B(12,24,25)     =    108.132770    -0.000000     0.000018   108.132788
	   52 B(12,24,26)     =    109.142128     0.000000     0.000016   109.142143
	   53 B(13,12,14)     =    106.427402     0.000000    -0.000004   106.427398
	   54 B(13,12,24)     =    108.905556    -0.000000     0.000006   108.905562
	   55 B(14,12,24)     =    108.625160    -0.000000    -0.000019   108.625141
	   56 B(15,18,19)     =    108.873067     0.000000    -0.000004   108.873063
	   57 B(15,18,20)     =    109.631275     0.000000     0.000039   109.631314
	   58 B(15,18,21)     =    113.449032    -0.000000    -0.000018   113.449014
	   59 B(16,15,17)     =    106.167871     0.000000    -0.000012   106.167859
	   60 B(16,15,18)     =    109.815649     0.000000     0.000050   109.815699
	   61 B(17,15,18)     =    109.519200    -0.000000    -0.000075   109.519125
	   62 B(18,21,22)     =    109.772404     0.000000     0.000006   109.772410
	   63 B(18,21,23)     =    108.675506     0.000000     0.000090   108.675596
	   64 B(18,21,24)     =    113.448954    -0.000000    -0.000043   113.448911
	   65 B(19,18,20)     =    106.185728    -0.000000    -0.000046   106.185682
	   66 B(19,18,21)     =    109.772446    -0.000000    -0.000039   109.772407
	   67 B(20,18,21)     =    108.675417     0.000000     0.000066   108.675483
	   68 B(21,24,25)     =    109.815645     0.000000     0.000042   109.815687
	   69 B(21,24,26)     =    109.519216    -0.000000    -0.000053   109.519163
	   70 B(22,21,23)     =    106.185710    -0.000000    -0.000019   106.185690
	   71 B(22,21,24)     =    108.873074     0.000000    -0.000013   108.873061
	   72 B(23,21,24)     =    109.631321    -0.000000    -0.000020   109.631301
	   73 B(25,24,26)     =    106.167835     0.000000     0.000020   106.167855
	   74 D(1,9,15,16)    =    177.339235    -0.000000    -0.000095   177.339140
	   75 D(1,9,15,17)    =     62.262970    -0.000000    -0.000060    62.262911
	   76 D(1,9,15,18)    =    -60.379921     0.000000     0.000015   -60.379906
	   77 D(2,1,9,10)     =     60.796078     0.000000     0.000132    60.796210
	   78 D(2,1,9,11)     =    -55.211746     0.000000     0.000164   -55.211582
	   79 D(2,1,9,15)     =   -177.358723     0.000000     0.000175  -177.358548
	   80 D(3,1,9,10)     =    -59.086436    -0.000000     0.000115   -59.086321
	   81 D(3,1,9,11)     =   -175.094259    -0.000000     0.000147  -175.094113
	   82 D(3,1,9,15)     =     62.758763    -0.000000     0.000158    62.758921
	   83 D(4,1,9,10)     =   -179.321885     0.000000     0.000132  -179.321753
	   84 D(4,1,9,11)     =     64.670291     0.000000     0.000165    64.670456
	   85 D(4,1,9,15)     =    -57.476686     0.000000     0.000176   -57.476511
	   86 D(5,12,24,21)   =    -60.380275     0.000000     0.000154   -60.380121
	   87 D(5,12,24,25)   =    177.338858     0.000000     0.000113   177.338971
	   88 D(5,12,24,26)   =     62.262666    -0.000000     0.000071    62.262738
	   89 D(6,5,12,13)    =     64.670518     0.000000    -0.000083    64.670436
	   90 D(6,5,12,14)    =   -179.321697    -0.000000    -0.000086  -179.321783
	   91 D(6,5,12,24)    =    -57.476438    -0.000000    -0.000109   -57.476547
	   92 D(7,5,12,13)    =    -55.211516     0.000000    -0.000085   -55.211601
	   93 D(7,5,12,14)    =     60.796269    -0.000000    -0.000089    60.796180
	   94 D(7,5,12,24)    =   -177.358472    -0.000000    -0.000111  -177.358584
	   95 D(8,5,12,13)    =   -175.094042     0.000000    -0.000093  -175.094135
	   96 D(8,5,12,14)    =    -59.086257    -0.000000    -0.000097   -59.086354
	   97 D(8,5,12,24)    =     62.759002    -0.000000    -0.000119    62.758882
	   98 D(9,15,18,19)   =    -24.444339    -0.000000    -0.000210   -24.444549
	   99 D(9,15,18,20)   =   -140.211046    -0.000000    -0.000174  -140.211220
	  100 D(9,15,18,21)   =     98.101096    -0.000000    -0.000275    98.100821
	  101 D(10,9,15,16)   =    -60.473417    -0.000000    -0.000040   -60.473457
	  102 D(10,9,15,17)   =   -175.549681    -0.000000    -0.000004  -175.549686
	  103 D(10,9,15,18)   =     61.807428     0.000000     0.000070    61.807498
	  104 D(11,9,15,16)   =     55.049575    -0.000000    -0.000061    55.049514
	  105 D(11,9,15,17)   =    -60.026690    -0.000000    -0.000025   -60.026715
	  106 D(11,9,15,18)   =    177.330419     0.000000     0.000049   177.330468
	  107 D(12,24,21,18)  =     98.100751     0.000000     0.000136    98.100887
	  108 D(12,24,21,22)  =    -24.444581     0.000000     0.000166   -24.444415
	  109 D(12,24,21,23)  =   -140.211296     0.000000     0.000208  -140.211088
	  110 D(13,12,24,21)  =    177.330107     0.000000     0.000124   177.330230
	  111 D(13,12,24,25)  =     55.049240    -0.000000     0.000082    55.049322
	  112 D(13,12,24,26)  =    -60.026952    -0.000000     0.000041   -60.026911
	  113 D(14,12,24,21)  =     61.807134     0.000000     0.000136    61.807271
	  114 D(14,12,24,25)  =    -60.473733     0.000000     0.000095   -60.473638
	  115 D(14,12,24,26)  =   -175.549925    -0.000000     0.000053  -175.549871
	  116 D(15,18,21,22)  =   -165.113700     0.000000     0.000060  -165.113640
	  117 D(15,18,21,23)  =    -49.380312     0.000000     0.000090   -49.380221
	  118 D(15,18,21,24)  =     72.839875     0.000000     0.000102    72.839977
	  119 D(16,15,18,19)  =     96.903791     0.000000    -0.000127    96.903664
	  120 D(16,15,18,20)  =    -18.862916     0.000000    -0.000091   -18.863007
	  121 D(16,15,18,21)  =   -140.550774    -0.000000    -0.000192  -140.550966
	  122 D(17,15,18,19)  =   -146.879927     0.000000    -0.000156  -146.880083
	  123 D(17,15,18,20)  =     97.353365     0.000000    -0.000120    97.353246
	  124 D(17,15,18,21)  =    -24.334493    -0.000000    -0.000221   -24.334714
	  125 D(18,21,24,25)  =   -140.551109    -0.000000     0.000164  -140.550945
	  126 D(18,21,24,26)  =    -24.334863    -0.000000     0.000181   -24.334682
	  127 D(19,18,21,22)  =    -43.067199    -0.000000     0.000014   -43.067185
	  128 D(19,18,21,23)  =     72.666189     0.000000     0.000044    72.666233
	  129 D(19,18,21,24)  =   -165.113624    -0.000000     0.000056  -165.113568
	  130 D(20,18,21,22)  =     72.666184    -0.000000    -0.000026    72.666158
	  131 D(20,18,21,23)  =   -171.600428     0.000000     0.000005  -171.600423
	  132 D(20,18,21,24)  =    -49.380241    -0.000000     0.000016   -49.380225
	  133 D(22,21,24,25)  =     96.903559    -0.000000     0.000194    96.903754
	  134 D(22,21,24,26)  =   -146.880196    -0.000000     0.000212  -146.879984
	  135 D(23,21,24,25)  =    -18.863156     0.000000     0.000236   -18.862920
	  136 D(23,21,24,26)  =     97.353089     0.000000     0.000253    97.353343
	  137 R(1,21)         =      3.421537     0.000000    -0.000002     3.421535
	  138 R(5,18)         =      3.421535    -0.000000    -0.000001     3.421535
	 ---------------------------------------------------------------------------

  ==> Convergence Check <==

  Measures of convergence in internal coordinates in au.
  Criteria marked as inactive (o), active & met (*), and active & unmet ( ).
  ---------------------------------------------------------------------------------------------
   Step     Total Energy     Delta E     MAX Force     RMS Force      MAX Disp      RMS Disp   
  ---------------------------------------------------------------------------------------------
    Convergence Criteria             o    2.00e-06 *    1.00e-06 *    6.00e-06 *    4.00e-06 *
  ---------------------------------------------------------------------------------------------
     28    -314.97671375    4.10e-09 o    3.64e-07 *    9.08e-08 *    4.80e-06 *    1.64e-06 *  ~
  ---------------------------------------------------------------------------------------------


  **** Optimization is complete! (in 28 steps) ****

  ==> Optimization Summary <==

  Measures of convergence in internal coordinates in au.
  --------------------------------------------------------------------------------------------------------------- ~
   Step         Total Energy             Delta E       MAX Force       RMS Force        MAX Disp        RMS Disp  ~
  --------------------------------------------------------------------------------------------------------------- ~
      1    -314.976445114627   -314.976445114627      0.00365782      0.00099027      0.04606086      0.01855115  ~
      2    -314.976648213622     -0.000203098995      0.00093520      0.00020834      0.02533467      0.01064022  ~
      3    -314.976700963751     -0.000052750129      0.00102123      0.00019992      0.00896665      0.00229948  ~
      4    -314.976713150488     -0.000012186737      0.00007020      0.00002117      0.00900419      0.00266027  ~
      5    -314.976712808496      0.000000341992      0.00013004      0.00002882      0.00532537      0.00151835  ~
      6    -314.976713731802     -0.000000923306      0.00001076      0.00000300      0.00044977      0.00013254  ~
      7    -314.976713745016     -0.000000013214      0.00000368      0.00000081      0.00027556      0.00009942  ~
      8    -314.976713746280     -0.000000001265      0.00000314      0.00000078      0.00036609      0.00014357  ~
      9    -314.976713740175      0.000000006106      0.00000425      0.00000121      0.00073850      0.00031760  ~
     10    -314.976713722909      0.000000017266      0.00000814      0.00000253      0.00152409      0.00063614  ~
     11    -314.976713664022      0.000000058887      0.00001678      0.00000505      0.00106062      0.00042675  ~
     12    -314.976713745608     -0.000000081586      0.00000156      0.00000038      0.00004896      0.00001932  ~
     13    -314.976713746367     -0.000000000760      0.00000059      0.00000018      0.00002916      0.00000887  ~
     14    -314.976713748208     -0.000000001841      0.00000249      0.00000066      0.00004601      0.00001527  ~
     15    -314.976713745555      0.000000002653      0.00000219      0.00000053      0.00004193      0.00001462  ~
     16    -314.976713749559     -0.000000004004      0.00000084      0.00000026      0.00001966      0.00000651  ~
     17    -314.976713748388      0.000000001171      0.00000183      0.00000044      0.00002800      0.00000984  ~
     18    -314.976713744679      0.000000003709      0.00000119      0.00000032      0.00003878      0.00001129  ~
     19    -314.976713747023     -0.000000002344      0.00000133      0.00000027      0.00002082      0.00000700  ~
     20    -314.976713744923      0.000000002100      0.00000207      0.00000059      0.00006268      0.00001721  ~
     21    -314.976713744582      0.000000000342      0.00000241      0.00000060      0.00003415      0.00001203  ~
     22    -314.976713745954     -0.000000001373      0.00000216      0.00000054      0.00004507      0.00001223  ~
     23    -314.976713747351     -0.000000001397      0.00000130      0.00000018      0.00001768      0.00000508  ~
     24    -314.976713747029      0.000000000322      0.00000136      0.00000032      0.00002311      0.00000774  ~
     25    -314.976713744912      0.000000002117      0.00000049      0.00000011      0.00001605      0.00000689  ~
     26    -314.976713746189     -0.000000001277      0.00000038      0.00000008      0.00001461      0.00000518  ~
     27    -314.976713749288     -0.000000003099      0.00000065      0.00000015      0.00001738      0.00000601  ~
     28    -314.976713745186      0.000000004102      0.00000036      0.00000009      0.00000480      0.00000164  ~
  --------------------------------------------------------------------------------------------------------------- ~

	Writing optimization data to binary file.
	Final energy is   -314.9767137451863
	Final (previous) structure:
	Cartesian Geometry (in Angstrom)
	    C     3.0546177094  -0.8605512253  -0.3261870595
	    H     4.1047187429  -1.0164508568  -0.5732155623
	    H     2.4729809884  -1.0458033726  -1.2290468863
	    H     2.7700072877  -1.6089856626   0.4151705485
	    C    -3.0546255344   0.8605658923  -0.3260577025
	    H    -2.7699847796   1.6089791264   0.4153098938
	    H    -4.1047349902   1.0164767693  -0.5730436469
	    H    -2.4730209223   1.0458400442  -1.2289338241
	    C     2.8238025498   0.5488406034   0.2073092827
	    H     3.1058026428   1.2753862963  -0.5598343711
	    H     3.4875039374   0.7237663718   1.0574217272
	    C    -2.8237966736  -0.5488412554   0.2073923209
	    H    -3.4874709413  -0.7237877671   1.0575218009
	    H    -3.1058245982  -1.2753653807  -0.5597615733
	    C     1.3837604761   0.8274139656   0.6377077770
	    H     1.3404594012   1.8398909889   1.0445244582
	    H     1.1190958232   0.1565812756   1.4610212923
	    C     0.3577228470   0.6774599329  -0.4970956403
	    H     0.8648837214   0.8283468659  -1.4551578852
	    H    -0.3904799718   1.4675135388  -0.4214017957
	    C    -0.3577392500  -0.6774578463  -0.4970971312
	    H    -0.8649307710  -0.8283255582  -1.4551459904
	    H     0.3904646675  -1.4675139601  -0.4214426829
	    C    -1.3837413917  -0.8274311854   0.6377365352
	    H    -1.3404323277  -1.8399171792   1.0445298935
	    H    -1.1190466329  -0.1566182251   1.4610563825
	Saving final (previous) structure.
			--------------------------
			 OPTKING Finished Execution 
			--------------------------

    Final optimized geometry and variables:
    Molecular point group: c1
    Full point group: C1

    Geometry (in Angstrom), charge = 0, multiplicity = 1:

    C            3.054617709423    -0.860551225346    -0.326187059466
    H            4.104718742896    -1.016450856836    -0.573215562265
    H            2.472980988367    -1.045803372555    -1.229046886310
    H            2.770007287716    -1.608985662578     0.415170548501
    C           -3.054625534445     0.860565892334    -0.326057702542
    H           -2.769984779637     1.608979126429     0.415309893821
    H           -4.104734990165     1.016476769301    -0.573043646909
    H           -2.473020922279     1.045840044210    -1.228933824081
    C            2.823802549797     0.548840603384     0.207309282715
    H            3.105802642833     1.275386296331    -0.559834371071
    H            3.487503937403     0.723766371835     1.057421727209
    C           -2.823796673641    -0.548841255391     0.207392320945
    H           -3.487470941346    -0.723787767100     1.057521800904
    H           -3.105824598164    -1.275365380710    -0.559761573349
    C            1.383760476106     0.827413965603     0.637707777008
    H            1.340459401220     1.839890988911     1.044524458232
    H            1.119095823171     0.156581275616     1.461021292287
    C            0.357722847019     0.677459932924    -0.497095640251
    H            0.864883721437     0.828346865913    -1.455157885244
    H           -0.390479971757     1.467513538821    -0.421401795661
    C           -0.357739249964    -0.677457846335    -0.497097131198
    H           -0.864930771027    -0.828325558211    -1.455145990381
    H            0.390464667548    -1.467513960093    -0.421442682950
    C           -1.383741391742    -0.827431185438     0.637736535194
    H           -1.340432327670    -1.839917179156     1.044529893452
    H           -1.119046632923    -0.156618225136     1.461056382492

	Cleaning optimization helper files.

*** Psi4 exiting successfully. Buy a developer a beer!
