    -----------------------------------------------------------------------
          Psi4: An Open-Source Ab Initio Electronic Structure Package
                              Psi4 1.0.0 Driver

                          Git: Rev {master} 6a9a71b dirty

    J. M. Turney, A. C. Simmonett, R. M. Parrish, E. G. Hohenstein,
    F. A. Evangelista, J. T. Fermann, B. J. Mintz, L. A. Burns, J. J. Wilke,
    M. L. Abrams, N. J. Russ, M. L. Leininger, C. L. Janssen, E. T. Seidl,
    W. D. Allen, H. F. Schaefer, R. A. King, E. F. Valeev, C. D. Sherrill,
    and T. D. Crawford, WIREs Comput. Mol. Sci. 2, 556-565 (2012)
    (doi: 10.1002/wcms.93)

                         Additional Contributions by
    A. E. DePrince, U. Bozkaya, A. Yu. Sokolov, D. G. A. Smith, R. Di Remigio,
    R. M. Richard, J. F. Gonthier, H. R. McAlexander, M. Saitow, and
    B. P. Pritchard
    -----------------------------------------------------------------------


    Psi4 started on: Tue Sep 20 16:43:05 2016

    Process ID:  29791
    PSI4DATADIR: /usr/local/hpc5/psi4conda/share/psi4
    Memory level set to 256.000 MB

  ==> Input File <==

--------------------------------------------------------------------------
memory 30 Gb

molecule molecule_22_psi {
0 1
symmetry c1
    C            3.240027511967    -1.384499215112     0.035594001613
    H            2.702547511785    -2.148288418674    -0.523567946235
    H            3.160256597592    -1.630029386240     1.093080356292
    H            4.289747323268    -1.440768445846    -0.243464623524
    C           -2.965843064795    -1.606225151049    -0.207984694299
    H           -3.198211883165    -2.454087195334     0.432325757213
    H           -2.459468811326    -1.983266524460    -1.095003970657
    H           -3.905309636877    -1.158538541776    -0.528331802872
    C            2.658306025479    -0.010649075396    -0.240163360490
    H            2.763304510203     0.229055834981    -1.299678644636
    H            3.222501196116     0.746480500614     0.306701301051
    C           -2.101736966262    -0.584756685678     0.506374385477
    H           -2.604465364277    -0.244293416545     1.413215757414
    H           -1.169935299833    -1.047763962006     0.827127051446
    C            1.194506487304     0.087530197809     0.144973082143
    H            1.084516981169    -0.137778676380     1.209055580210
    H            0.636632195142    -0.679534363579    -0.395628836083
    C            0.604667315100     1.454668241220    -0.146189174631
    H            0.676982629341     1.645811213929    -1.219799173968
    H            1.217719178785     2.213077081046     0.345321402276
    C           -0.844483945628     1.627318278566     0.283637910821
    H           -0.910005658661     1.534655224743     1.370364334915
    H           -1.154185064276     2.644070968582     0.041835462558
    C           -1.803386536410     0.626720954931    -0.361198425759
    H           -2.749830546797     1.116095105882    -0.596016722083
    H           -1.389149568323     0.293388454144    -1.316658338154
}

set globals {
  reference rhf
  g_convergence gau_verytight
  basis aug-cc-pvtz
  freeze_core true
  scf_type df
  mp_type df
}
optimize('mp2')
--------------------------------------------------------------------------
/usr/local/hpc5/psi4conda/lib/python2.7/site-packages/v2rdm_casscf/v2rdm_casscf.so loaded.

  Memory set to  30.000 GiB by Python script.
gradient() will perform analytic gradient computation.

*** tstart() called on wr34
*** at Tue Sep 20 16:43:06 2016


         ---------------------------------------------------------
                                   SCF
            by Justin Turney, Rob Parrish, and Andy Simmonett
                              RHF Reference
                       12 Threads,  30000 MiB Core
         ---------------------------------------------------------

  ==> Geometry <==

    Molecular point group: c1
    Full point group: C1

    Geometry (in Angstrom), charge = 0, multiplicity = 1:

       Center              X                  Y                   Z               Mass       
    ------------   -----------------  -----------------  -----------------  -----------------
           C          3.240027511967    -1.384499215112     0.035594001613    12.000000000000
           H          2.702547511785    -2.148288418674    -0.523567946235     1.007825032070
           H          3.160256597592    -1.630029386240     1.093080356292     1.007825032070
           H          4.289747323268    -1.440768445846    -0.243464623524     1.007825032070
           C         -2.965843064795    -1.606225151049    -0.207984694299    12.000000000000
           H         -3.198211883165    -2.454087195334     0.432325757213     1.007825032070
           H         -2.459468811326    -1.983266524460    -1.095003970657     1.007825032070
           H         -3.905309636877    -1.158538541776    -0.528331802872     1.007825032070
           C          2.658306025479    -0.010649075396    -0.240163360490    12.000000000000
           H          2.763304510203     0.229055834981    -1.299678644636     1.007825032070
           H          3.222501196116     0.746480500614     0.306701301051     1.007825032070
           C         -2.101736966262    -0.584756685678     0.506374385477    12.000000000000
           H         -2.604465364277    -0.244293416545     1.413215757414     1.007825032070
           H         -1.169935299833    -1.047763962006     0.827127051446     1.007825032070
           C          1.194506487304     0.087530197809     0.144973082143    12.000000000000
           H          1.084516981169    -0.137778676380     1.209055580210     1.007825032070
           H          0.636632195142    -0.679534363579    -0.395628836083     1.007825032070
           C          0.604667315100     1.454668241220    -0.146189174631    12.000000000000
           H          0.676982629341     1.645811213929    -1.219799173968     1.007825032070
           H          1.217719178785     2.213077081046     0.345321402276     1.007825032070
           C         -0.844483945628     1.627318278566     0.283637910821    12.000000000000
           H         -0.910005658661     1.534655224743     1.370364334915     1.007825032070
           H         -1.154185064276     2.644070968582     0.041835462558     1.007825032070
           C         -1.803386536410     0.626720954931    -0.361198425759    12.000000000000
           H         -2.749830546797     1.116095105882    -0.596016722083     1.007825032070
           H         -1.389149568323     0.293388454144    -1.316658338154     1.007825032070

  Running in c1 symmetry.

  Rotational constants: A =      0.09172  B =      0.02957  C =      0.02376 [cm^-1]
  Rotational constants: A =   2749.74717  B =    886.38700  C =    712.34942 [MHz]
  Nuclear repulsion =  394.482357130961248

  Charge       = 0
  Multiplicity = 1
  Electrons    = 66
  Nalpha       = 33
  Nbeta        = 33

  ==> Algorithm <==

  SCF Algorithm Type is DF.
  DIIS enabled.
  MOM disabled.
  Fractional occupation disabled.
  Guess Type is SAD.
  Energy threshold   = 1.00e-10
  Density threshold  = 1.00e-10
  Integral threshold = 0.00e+00

  ==> Primary Basis <==

  Basis Set: AUG-CC-PVTZ
    Number of shells: 274
    Number of basis function: 782
    Number of Cartesian functions: 890
    Spherical Harmonics?: true
    Max angular momentum: 3

  ==> Pre-Iterations <==

   -------------------------------------------------------
    Irrep   Nso     Nmo     Nalpha   Nbeta   Ndocc  Nsocc
   -------------------------------------------------------
     A        782     782       0       0       0       0
   -------------------------------------------------------
    Total     782     782      33      33      33       0
   -------------------------------------------------------

  ==> Integral Setup <==

  ==> DFJK: Density-Fitted J/K Matrices <==

    J tasked:                  Yes
    K tasked:                  Yes
    wK tasked:                  No
    OpenMP threads:             12
    Integrals threads:          12
    Memory (MB):             21457
    Algorithm:                Core
    Integral Cache:           NONE
    Schwarz Cutoff:          1E-12
    Fitting Condition:       1E-12

   => Auxiliary Basis Set <=

  Basis Set: 
    Number of shells: 492
    Number of basis function: 1660
    Number of Cartesian functions: 2038
    Spherical Harmonics?: true
    Max angular momentum: 4

  Minimum eigenvalue in the overlap matrix is 2.0773337847E-06.
  Using Symmetric Orthogonalization.
  SCF Guess: Superposition of Atomic Densities via on-the-fly atomic UHF.

  ==> Iterations <==

                           Total Energy        Delta E     RMS |[F,P]|

   @DF-RHF iter   0:  -317.10394439985902   -3.17104e+02   7.11517e-03 
   @DF-RHF iter   1:  -313.30866259002920    3.79528e+00   6.78699e-04 
   @DF-RHF iter   2:  -313.51354449189051   -2.04882e-01   2.23507e-04 DIIS
   @DF-RHF iter   3:  -313.53628858023768   -2.27441e-02   9.33660e-05 DIIS
   @DF-RHF iter   4:  -313.54038726481184   -4.09868e-03   1.66117e-05 DIIS
   @DF-RHF iter   5:  -313.54055823849711   -1.70974e-04   4.92861e-06 DIIS
   @DF-RHF iter   6:  -313.54057093297178   -1.26945e-05   1.29270e-06 DIIS
   @DF-RHF iter   7:  -313.54057196615901   -1.03319e-06   2.37745e-07 DIIS
   @DF-RHF iter   8:  -313.54057200734252   -4.11835e-08   6.56266e-08 DIIS
   @DF-RHF iter   9:  -313.54057201002689   -2.68437e-09   1.87964e-08 DIIS
   @DF-RHF iter  10:  -313.54057201025074   -2.23849e-10   5.44741e-09 DIIS
   @DF-RHF iter  11:  -313.54057201026905   -1.83036e-11   1.21374e-09 DIIS
   @DF-RHF iter  12:  -313.54057201027041   -1.36424e-12   2.93636e-10 DIIS
   @DF-RHF iter  13:  -313.54057201027075   -3.41061e-13   8.63780e-11 DIIS

  ==> Post-Iterations <==

    Orbital Energies (a.u.)
    -----------------------

    Doubly Occupied:                                                      

       1A    -11.210788     2A    -11.209218     3A    -11.209118  
       4A    -11.208543     5A    -11.208035     6A    -11.207903  
       7A    -11.205990     8A    -11.205215     9A     -1.097466  
      10A     -1.062309    11A     -1.014311    12A     -0.948831  
      13A     -0.884866    14A     -0.818091    15A     -0.789221  
      16A     -0.771859    17A     -0.652407    18A     -0.632710  
      19A     -0.605506    20A     -0.592686    21A     -0.570221  
      22A     -0.564732    23A     -0.556310    24A     -0.525943  
      25A     -0.515819    26A     -0.503821    27A     -0.484929  
      28A     -0.472053    29A     -0.467964    30A     -0.463751  
      31A     -0.453173    32A     -0.437473    33A     -0.433288  

    Virtual:                                                              

      34A      0.028674    35A      0.032756    36A      0.033780  
      37A      0.035204    38A      0.046147    39A      0.047523  
      40A      0.050553    41A      0.054566    42A      0.055031  
      43A      0.067045    44A      0.068008    45A      0.071645  
      46A      0.076485    47A      0.079996    48A      0.082269  
      49A      0.086229    50A      0.092576    51A      0.096957  
      52A      0.113037    53A      0.115598    54A      0.119034  
      55A      0.125443    56A      0.131602    57A      0.134492  
      58A      0.137255    59A      0.138101    60A      0.142964  
      61A      0.145265    62A      0.150316    63A      0.150532  
      64A      0.155312    65A      0.157804    66A      0.159546  
      67A      0.163887    68A      0.167868    69A      0.173749  
      70A      0.175657    71A      0.181767    72A      0.184922  
      73A      0.187519    74A      0.190806    75A      0.198772  
      76A      0.204466    77A      0.213481    78A      0.223029  
      79A      0.230654    80A      0.232476    81A      0.237637  
      82A      0.245580    83A      0.247899    84A      0.252717  
      85A      0.261774    86A      0.266817    87A      0.268045  
      88A      0.279158    89A      0.285249    90A      0.292806  
      91A      0.300536    92A      0.304090    93A      0.309307  
      94A      0.313938    95A      0.314773    96A      0.321305  
      97A      0.323436    98A      0.326034    99A      0.331797  
     100A      0.336621   101A      0.339652   102A      0.344058  
     103A      0.352100   104A      0.354382   105A      0.355788  
     106A      0.362173   107A      0.364474   108A      0.368349  
     109A      0.371559   110A      0.374449   111A      0.378669  
     112A      0.379952   113A      0.384502   114A      0.386366  
     115A      0.390902   116A      0.393672   117A      0.394516  
     118A      0.400807   119A      0.404162   120A      0.408320  
     121A      0.415892   122A      0.418719   123A      0.419743  
     124A      0.423199   125A      0.430839   126A      0.433672  
     127A      0.437384   128A      0.442164   129A      0.445783  
     130A      0.452483   131A      0.454721   132A      0.459191  
     133A      0.462429   134A      0.463845   135A      0.465887  
     136A      0.467655   137A      0.476956   138A      0.478369  
     139A      0.483906   140A      0.484985   141A      0.489996  
     142A      0.494128   143A      0.495057   144A      0.503719  
     145A      0.509920   146A      0.510415   147A      0.516884  
     148A      0.518472   149A      0.519632   150A      0.522682  
     151A      0.525511   152A      0.531340   153A      0.536493  
     154A      0.536874   155A      0.542788   156A      0.551293  
     157A      0.554716   158A      0.558459   159A      0.559917  
     160A      0.561331   161A      0.567407   162A      0.577695  
     163A      0.580116   164A      0.585626   165A      0.587815  
     166A      0.596996   167A      0.602219   168A      0.604188  
     169A      0.611419   170A      0.619733   171A      0.621116  
     172A      0.628077   173A      0.634147   174A      0.638388  
     175A      0.641969   176A      0.644711   177A      0.649117  
     178A      0.650417   179A      0.652609   180A      0.663657  
     181A      0.668773   182A      0.678766   183A      0.679954  
     184A      0.686771   185A      0.691763   186A      0.696138  
     187A      0.701631   188A      0.705491   189A      0.711262  
     190A      0.720413   191A      0.723794   192A      0.734033  
     193A      0.739574   194A      0.744355   195A      0.756503  
     196A      0.758926   197A      0.761904   198A      0.766085  
     199A      0.783454   200A      0.792313   201A      0.796084  
     202A      0.808307   203A      0.812991   204A      0.819596  
     205A      0.828463   206A      0.841984   207A      0.847643  
     208A      0.851476   209A      0.856034   210A      0.862946  
     211A      0.866174   212A      0.870400   213A      0.874561  
     214A      0.877265   215A      0.886627   216A      0.892279  
     217A      0.904223   218A      0.906661   219A      0.911618  
     220A      0.916036   221A      0.920829   222A      0.924460  
     223A      0.926622   224A      0.928432   225A      0.930984  
     226A      0.935727   227A      0.941484   228A      0.946204  
     229A      0.948174   230A      0.951088   231A      0.958883  
     232A      0.959576   233A      0.970737   234A      0.974401  
     235A      0.978004   236A      0.983517   237A      0.989214  
     238A      0.993163   239A      0.995964   240A      1.004564  
     241A      1.014242   242A      1.017771   243A      1.021070  
     244A      1.029571   245A      1.031561   246A      1.033769  
     247A      1.041342   248A      1.048689   249A      1.050774  
     250A      1.057168   251A      1.064973   252A      1.070541  
     253A      1.080391   254A      1.086568   255A      1.091846  
     256A      1.095476   257A      1.098142   258A      1.103791  
     259A      1.110925   260A      1.116529   261A      1.120606  
     262A      1.127927   263A      1.130018   264A      1.137267  
     265A      1.140853   266A      1.150251   267A      1.151634  
     268A      1.154834   269A      1.161638   270A      1.166927  
     271A      1.172925   272A      1.176356   273A      1.180776  
     274A      1.187744   275A      1.194848   276A      1.200804  
     277A      1.207076   278A      1.214466   279A      1.214633  
     280A      1.217003   281A      1.220201   282A      1.228435  
     283A      1.233344   284A      1.234629   285A      1.238169  
     286A      1.243069   287A      1.248764   288A      1.253861  
     289A      1.262483   290A      1.272649   291A      1.282352  
     292A      1.287134   293A      1.292517   294A      1.297878  
     295A      1.298479   296A      1.312718   297A      1.318017  
     298A      1.318515   299A      1.325267   300A      1.330362  
     301A      1.336129   302A      1.342648   303A      1.342791  
     304A      1.353046   305A      1.360672   306A      1.367348  
     307A      1.373168   308A      1.379583   309A      1.389695  
     310A      1.392092   311A      1.398773   312A      1.403621  
     313A      1.408317   314A      1.421944   315A      1.428147  
     316A      1.432862   317A      1.437486   318A      1.440989  
     319A      1.447739   320A      1.464643   321A      1.465427  
     322A      1.479997   323A      1.482523   324A      1.489636  
     325A      1.500184   326A      1.511847   327A      1.518911  
     328A      1.521783   329A      1.543718   330A      1.554962  
     331A      1.556945   332A      1.562088   333A      1.575998  
     334A      1.579621   335A      1.587535   336A      1.594395  
     337A      1.609082   338A      1.614231   339A      1.617937  
     340A      1.622239   341A      1.632631   342A      1.640298  
     343A      1.641417   344A      1.649184   345A      1.658362  
     346A      1.662068   347A      1.668531   348A      1.674332  
     349A      1.675598   350A      1.682404   351A      1.685342  
     352A      1.696816   353A      1.707805   354A      1.713182  
     355A      1.716810   356A      1.721145   357A      1.724581  
     358A      1.726103   359A      1.734520   360A      1.740673  
     361A      1.742734   362A      1.749841   363A      1.753114  
     364A      1.755818   365A      1.763089   366A      1.771872  
     367A      1.775861   368A      1.781752   369A      1.788979  
     370A      1.793153   371A      1.797224   372A      1.804555  
     373A      1.815866   374A      1.818277   375A      1.823922  
     376A      1.829802   377A      1.834467   378A      1.835576  
     379A      1.842320   380A      1.851999   381A      1.864899  
     382A      1.875905   383A      1.877319   384A      1.883792  
     385A      1.891494   386A      1.899316   387A      1.904390  
     388A      1.906138   389A      1.913429   390A      1.917631  
     391A      1.924322   392A      1.936985   393A      1.949337  
     394A      1.958813   395A      1.959934   396A      1.968754  
     397A      1.978982   398A      1.984208   399A      1.988361  
     400A      1.995512   401A      2.001666   402A      2.006723  
     403A      2.008977   404A      2.018165   405A      2.022842  
     406A      2.030477   407A      2.041604   408A      2.047307  
     409A      2.063080   410A      2.066450   411A      2.073806  
     412A      2.076974   413A      2.082588   414A      2.097702  
     415A      2.098867   416A      2.107378   417A      2.117978  
     418A      2.126204   419A      2.133686   420A      2.143420  
     421A      2.152066   422A      2.163061   423A      2.171145  
     424A      2.187643   425A      2.191474   426A      2.196796  
     427A      2.207022   428A      2.218208   429A      2.226319  
     430A      2.228318   431A      2.232461   432A      2.240902  
     433A      2.249732   434A      2.254447   435A      2.262233  
     436A      2.284340   437A      2.290071   438A      2.293387  
     439A      2.305873   440A      2.314447   441A      2.321465  
     442A      2.324429   443A      2.335700   444A      2.347511  
     445A      2.351112   446A      2.359421   447A      2.363612  
     448A      2.373761   449A      2.385120   450A      2.395419  
     451A      2.402027   452A      2.402741   453A      2.417719  
     454A      2.418725   455A      2.429184   456A      2.442607  
     457A      2.452858   458A      2.461146   459A      2.473516  
     460A      2.498350   461A      2.500742   462A      2.508946  
     463A      2.515682   464A      2.521719   465A      2.539530  
     466A      2.550377   467A      2.573731   468A      2.585611  
     469A      2.594670   470A      2.604261   471A      2.615374  
     472A      2.636584   473A      2.658613   474A      2.678319  
     475A      2.684719   476A      2.697830   477A      2.708924  
     478A      2.715441   479A      2.767239   480A      2.770970  
     481A      2.797272   482A      2.846664   483A      2.868893  
     484A      2.889286   485A      2.935621   486A      2.979844  
     487A      2.989129   488A      3.039161   489A      3.067844  
     490A      3.118062   491A      3.201089   492A      3.216364  
     493A      3.305704   494A      3.316438   495A      3.340662  
     496A      3.427192   497A      3.438311   498A      3.457987  
     499A      3.464977   500A      3.476330   501A      3.491457  
     502A      3.500213   503A      3.507458   504A      3.537858  
     505A      3.549067   506A      3.552700   507A      3.560969  
     508A      3.569591   509A      3.582536   510A      3.608010  
     511A      3.612538   512A      3.619695   513A      3.637919  
     514A      3.642521   515A      3.649514   516A      3.654270  
     517A      3.664854   518A      3.673610   519A      3.691015  
     520A      3.697518   521A      3.701252   522A      3.709499  
     523A      3.715855   524A      3.718204   525A      3.734091  
     526A      3.739027   527A      3.746233   528A      3.753745  
     529A      3.759711   530A      3.777130   531A      3.788182  
     532A      3.795509   533A      3.797878   534A      3.810068  
     535A      3.821257   536A      3.827553   537A      3.841943  
     538A      3.850084   539A      3.857025   540A      3.863151  
     541A      3.864575   542A      3.879491   543A      3.884094  
     544A      3.891907   545A      3.896475   546A      3.911396  
     547A      3.923350   548A      3.925117   549A      3.933982  
     550A      3.944289   551A      3.949156   552A      3.949358  
     553A      3.958170   554A      3.972877   555A      3.977448  
     556A      3.983525   557A      3.989065   558A      4.003620  
     559A      4.006557   560A      4.011720   561A      4.019264  
     562A      4.027577   563A      4.033379   564A      4.041885  
     565A      4.051366   566A      4.054261   567A      4.063687  
     568A      4.073633   569A      4.082964   570A      4.089666  
     571A      4.102273   572A      4.104816   573A      4.116939  
     574A      4.117963   575A      4.132640   576A      4.139208  
     577A      4.153128   578A      4.160812   579A      4.168836  
     580A      4.183440   581A      4.196787   582A      4.206622  
     583A      4.224489   584A      4.231543   585A      4.236029  
     586A      4.251001   587A      4.254664   588A      4.262333  
     589A      4.272050   590A      4.275043   591A      4.284472  
     592A      4.287898   593A      4.296382   594A      4.302675  
     595A      4.333878   596A      4.338926   597A      4.352745  
     598A      4.365073   599A      4.370095   600A      4.386000  
     601A      4.397167   602A      4.409867   603A      4.415442  
     604A      4.423513   605A      4.429842   606A      4.446597  
     607A      4.458496   608A      4.477384   609A      4.483796  
     610A      4.497299   611A      4.513633   612A      4.530922  
     613A      4.543759   614A      4.554186   615A      4.573913  
     616A      4.582063   617A      4.583593   618A      4.599221  
     619A      4.611686   620A      4.621607   621A      4.639530  
     622A      4.647259   623A      4.669306   624A      4.672033  
     625A      4.688687   626A      4.703736   627A      4.711746  
     628A      4.718879   629A      4.721053   630A      4.738802  
     631A      4.746768   632A      4.754665   633A      4.770613  
     634A      4.774612   635A      4.782229   636A      4.800782  
     637A      4.811621   638A      4.826007   639A      4.844900  
     640A      4.853726   641A      4.859934   642A      4.866792  
     643A      4.875081   644A      4.882226   645A      4.886280  
     646A      4.899392   647A      4.904569   648A      4.916050  
     649A      4.920468   650A      4.938225   651A      4.950455  
     652A      4.973789   653A      4.980473   654A      4.986824  
     655A      4.997051   656A      5.005755   657A      5.017195  
     658A      5.043207   659A      5.047176   660A      5.065250  
     661A      5.083117   662A      5.098364   663A      5.106558  
     664A      5.115490   665A      5.136125   666A      5.140224  
     667A      5.161550   668A      5.174057   669A      5.187393  
     670A      5.193720   671A      5.201952   672A      5.226517  
     673A      5.229390   674A      5.238103   675A      5.241780  
     676A      5.254845   677A      5.271847   678A      5.284366  
     679A      5.291066   680A      5.304406   681A      5.306460  
     682A      5.317091   683A      5.323129   684A      5.338803  
     685A      5.348877   686A      5.360913   687A      5.384211  
     688A      5.395731   689A      5.398485   690A      5.405287  
     691A      5.406672   692A      5.423594   693A      5.424731  
     694A      5.440118   695A      5.455340   696A      5.464983  
     697A      5.475403   698A      5.487296   699A      5.511636  
     700A      5.513009   701A      5.525099   702A      5.528694  
     703A      5.534423   704A      5.557178   705A      5.571364  
     706A      5.585078   707A      5.597329   708A      5.614908  
     709A      5.620247   710A      5.636570   711A      5.658509  
     712A      5.666499   713A      5.691363   714A      5.705957  
     715A      5.717437   716A      5.718289   717A      5.732789  
     718A      5.741135   719A      5.755584   720A      5.770714  
     721A      5.781014   722A      5.793608   723A      5.800349  
     724A      5.813847   725A      5.834963   726A      5.856603  
     727A      5.871329   728A      5.887810   729A      5.895510  
     730A      5.914808   731A      5.945528   732A      5.948852  
     733A      5.996906   734A      6.013315   735A      6.027566  
     736A      6.061297   737A      6.080724   738A      6.089312  
     739A      6.114831   740A      6.146395   741A      6.168180  
     742A      6.182295   743A      6.197566   744A      6.221763  
     745A      6.236364   746A      6.242127   747A      6.262820  
     748A      6.267315   749A      6.295974   750A      6.308098  
     751A      6.316356   752A      6.338099   753A      6.347824  
     754A      6.354594   755A      6.399274   756A      6.410534  
     757A      6.426093   758A      6.502378   759A      6.574788  
     760A      6.631288   761A      6.689655   762A      6.712620  
     763A      6.723025   764A      6.784290   765A      6.800345  
     766A      6.829697   767A      6.857650   768A      6.878701  
     769A      6.902403   770A      6.952348   771A      6.992534  
     772A      7.040248   773A      7.116898   774A      7.128948  
     775A     18.048405   776A     18.227530   777A     18.564765  
     778A     18.603157   779A     18.774400   780A     19.178600  
     781A     19.685218   782A     20.023770  

    Final Occupation by Irrep:
              A 
    DOCC [    33 ]

  Energy converged.

  @DF-RHF Final Energy:  -313.54057201027075

   => Energetics <=

    Nuclear Repulsion Energy =            394.4823571309612475
    One-Electron Energy =               -1204.0767619048151573
    Two-Electron Energy =                 496.0538327635830456
    DFT Exchange-Correlation Energy =       0.0000000000000000
    Empirical Dispersion Energy =           0.0000000000000000
    PCM Polarization Energy =               0.0000000000000000
    EFP Energy =                            0.0000000000000000
    Total Energy =                       -313.5405720102709211


  Saving occupied orbitals to File 180.

*** tstop() called on wr34 at Tue Sep 20 16:44:32 2016
Module time:
	user time   =     934.06 seconds =      15.57 minutes
	system time =      11.33 seconds =       0.19 minutes
	total time  =         86 seconds =       1.43 minutes
Total time:
	user time   =     934.06 seconds =      15.57 minutes
	system time =      11.33 seconds =       0.19 minutes
	total time  =         86 seconds =       1.43 minutes


Properties will be evaluated at   0.000000,   0.000000,   0.000000 Bohr

Properties computed using the SCF density matrix

  Nuclear Dipole Moment: (a.u.)
     X:     0.2003      Y:    -2.3453      Z:    -0.1679

  Electronic Dipole Moment: (a.u.)
     X:    -0.1857      Y:     2.3892      Z:     0.1824

  Dipole Moment: (a.u.)
     X:     0.0146      Y:     0.0439      Z:     0.0145     Total:     0.0485

  Dipole Moment: (Debye)
     X:     0.0370      Y:     0.1116      Z:     0.0368     Total:     0.1232


  //>>>>>>>>>>>>>>>>>>>>>>>>>>>>>>>>>>>//
  //               DFMP2               //
  //<<<<<<<<<<<<<<<<<<<<<<<<<<<<<<<<<<<//


*** tstart() called on wr34
*** at Tue Sep 20 16:44:32 2016


*** tstop() called on wr34 at Tue Sep 20 16:44:32 2016
Module time:
	user time   =       4.48 seconds =       0.07 minutes
	system time =       0.17 seconds =       0.00 minutes
	total time  =          0 seconds =       0.00 minutes
Total time:
	user time   =     939.30 seconds =      15.66 minutes
	system time =      11.54 seconds =       0.19 minutes
	total time  =         86 seconds =       1.43 minutes
	 --------------------------------------------------------
	                          DF-MP2                         
	      2nd-Order Density-Fitted Moller-Plesset Theory     
	              RMP2 Wavefunction,  12 Threads             
	                                                         
	        Rob Parrish, Justin Turney, Andy Simmonett,      
	           Ed Hohenstein, and C. David Sherrill          
	 --------------------------------------------------------

   => Auxiliary Basis Set <=

  Basis Set: 
    Number of shells: 476
    Number of basis function: 1676
    Number of Cartesian functions: 2078
    Spherical Harmonics?: true
    Max angular momentum: 4

	 --------------------------------------------------------
	                 NBF =   782, NAUX =  1676
	 --------------------------------------------------------
	   CLASS    FOCC     OCC    AOCC    AVIR     VIR    FVIR
	   PAIRS       8      33      25     749     749       0
	 --------------------------------------------------------

DGAS Warning! /src/lib/libfock/apps.cc:80 is not currently checking restricted

         ------------------------------------------------------------
                                     CPHF                           
                                  Rob Parrish                       
         ------------------------------------------------------------

  ==> Geometry <==

    Molecular point group: c1
    Full point group: C1

    Geometry (in Angstrom), charge = 0, multiplicity = 1:

       Center              X                  Y                   Z               Mass       
    ------------   -----------------  -----------------  -----------------  -----------------
           C          3.240027511967    -1.384499215112     0.035594001613    12.000000000000
           H          2.702547511785    -2.148288418674    -0.523567946235     1.007825032070
           H          3.160256597592    -1.630029386240     1.093080356292     1.007825032070
           H          4.289747323268    -1.440768445846    -0.243464623524     1.007825032070
           C         -2.965843064795    -1.606225151049    -0.207984694299    12.000000000000
           H         -3.198211883165    -2.454087195334     0.432325757213     1.007825032070
           H         -2.459468811326    -1.983266524460    -1.095003970657     1.007825032070
           H         -3.905309636877    -1.158538541776    -0.528331802872     1.007825032070
           C          2.658306025479    -0.010649075396    -0.240163360490    12.000000000000
           H          2.763304510203     0.229055834981    -1.299678644636     1.007825032070
           H          3.222501196116     0.746480500614     0.306701301051     1.007825032070
           C         -2.101736966262    -0.584756685678     0.506374385477    12.000000000000
           H         -2.604465364277    -0.244293416545     1.413215757414     1.007825032070
           H         -1.169935299833    -1.047763962006     0.827127051446     1.007825032070
           C          1.194506487304     0.087530197809     0.144973082143    12.000000000000
           H          1.084516981169    -0.137778676380     1.209055580210     1.007825032070
           H          0.636632195142    -0.679534363579    -0.395628836083     1.007825032070
           C          0.604667315100     1.454668241220    -0.146189174631    12.000000000000
           H          0.676982629341     1.645811213929    -1.219799173968     1.007825032070
           H          1.217719178785     2.213077081046     0.345321402276     1.007825032070
           C         -0.844483945628     1.627318278566     0.283637910821    12.000000000000
           H         -0.910005658661     1.534655224743     1.370364334915     1.007825032070
           H         -1.154185064276     2.644070968582     0.041835462558     1.007825032070
           C         -1.803386536410     0.626720954931    -0.361198425759    12.000000000000
           H         -2.749830546797     1.116095105882    -0.596016722083     1.007825032070
           H         -1.389149568323     0.293388454144    -1.316658338154     1.007825032070

  Nuclear repulsion =  394.482357130961248
  Reference energy  = -313.540572010270751

  ==> Basis Set <==

  Basis Set: AUG-CC-PVTZ
    Number of shells: 274
    Number of basis function: 782
    Number of Cartesian functions: 890
    Spherical Harmonics?: true
    Max angular momentum: 3

  ==> CGRSolver (by Rob Parrish) <==

   Number of roots    =         1
   Preconditioning    =    JACOBI
   Convergence cutoff =     1E-06
   Maximum iterations =       100

  ==> CPHFRHamiltonian (by Rob Parrish) <== 

  ==> DFJK: Density-Fitted J/K Matrices <==

    J tasked:                  Yes
    K tasked:                  Yes
    wK tasked:                  No
    OpenMP threads:             12
    Integrals threads:          12
    Memory (MB):             21457
    Algorithm:                Core
    Integral Cache:           NONE
    Schwarz Cutoff:          1E-12
    Fitting Condition:       1E-12

   => Auxiliary Basis Set <=

  Basis Set: 
    Number of shells: 492
    Number of basis function: 1660
    Number of Cartesian functions: 2038
    Spherical Harmonics?: true
    Max angular momentum: 4

  ==> CPHF Iterations <==

  => Iterations <=

             Iter  Converged  Remaining    Residual
  CGR           1          0          1   8.949E-02
  CGR           2          0          1   1.286E-02
  CGR           3          0          1   3.720E-03
  CGR           4          0          1   8.514E-04
  CGR           5          0          1   1.910E-04
  CGR           6          0          1   4.567E-05
  CGR           7          0          1   1.235E-05
  CGR           8          0          1   3.458E-06
  CGR           9          1          0   8.989E-07

    CGRSolver converged.

  ==> DFCorrGrad: Density-Fitted Correlated Gradients <==

    OpenMP threads:             12
    Integrals threads:          12
    Memory (MB):             21457
    Schwarz Cutoff:          0E+00
    Fitting Condition:       1E-12

   => Auxiliary Basis Set <=

  Basis Set: 
    Number of shells: 492
    Number of basis function: 1660
    Number of Cartesian functions: 2038
    Spherical Harmonics?: true
    Max angular momentum: 4

	-----------------------------------------------------------
	 ==================> DF-MP2 Energies <==================== 
	-----------------------------------------------------------
	 Reference Energy          =    -313.5405720102707505 [Eh]
	 Singles Energy            =      -0.0000000000000004 [Eh]
	 Same-Spin Energy          =      -0.3162692063972373 [Eh]
	 Opposite-Spin Energy      =      -1.1245831208407080 [Eh]
	 Correlation Energy        =      -1.4408523272379457 [Eh]
	 Total Energy              =    -314.9814243375087131 [Eh]
	-----------------------------------------------------------
	 ================> DF-SCS-MP2 Energies <================== 
	-----------------------------------------------------------
	 SCS Same-Spin Scale       =       0.3333333333333333 [-]
	 SCS Opposite-Spin Scale   =       1.2000000000000000 [-]
	 SCS Same-Spin Energy      =      -0.1054230687990791 [Eh]
	 SCS Opposite-Spin Energy  =      -1.3494997450088495 [Eh]
	 SCS Correlation Energy    =      -1.4549228138079291 [Eh]
	 SCS Total Energy          =    -314.9954948240786621 [Eh]
	-----------------------------------------------------------


  -Total Gradient:
     Atom            X                  Y                   Z
    ------   -----------------  -----------------  -----------------
       1       -0.000709627532     0.001412334388    -0.000279508416
       2        0.000569865084     0.001268755131     0.000678587079
       3       -0.000023833893     0.000593917568    -0.001423460861
       4       -0.001352276632     0.000257713782     0.000305960638
       5        0.000959590819     0.000999856419     0.000664141398
       6        0.000457290711     0.001233403165    -0.000615604267
       7       -0.000450724855     0.000720439781     0.001273091962
       8        0.001337842962    -0.000282594744     0.000524275976
       9       -0.001278170085    -0.001564288492     0.000858221280
      10       -0.000392184153    -0.000488404120     0.001327179950
      11       -0.000906841126    -0.001091586849    -0.000468955054
      12       -0.000237644587     0.000056493526    -0.001994762214
      13        0.000439079451    -0.000205439547    -0.001390073698
      14       -0.001169405400     0.000828452895    -0.000708474646
      15        0.001058483203     0.001357659649    -0.000912568094
      16        0.000137090303     0.000496292649    -0.001371301618
      17        0.000740049405     0.001239292172     0.000550512746
      18       -0.001075040169    -0.001504076152     0.001035118503
      19       -0.000324523958    -0.000475165778     0.001389019021
      20       -0.000816769222    -0.001138007632    -0.000419470141
      21        0.000813764042    -0.001350056544    -0.001358167762
      22        0.000382449721    -0.000366051347    -0.001467094005
      23        0.000273407750    -0.001290047499     0.000044768753
      24        0.000568589865    -0.000514317939     0.001759783560
      25        0.001278531305    -0.000446852020     0.000478841359
      26       -0.000278993010     0.000252277540     0.001519938551


			-----------------------------------------
			 OPTKING 2.0: for geometry optimizations 
			  - R.A. King,  Bethel University        
			-----------------------------------------

	Internal coordinates to be generated automatically.
	Detected frag 1 with atoms:  1 2 3 4 5 6 7 8 9 10 11 12 13 14 15 16 17 18 19 20
	 21 22 23 24 25 26
	---Fragment 1 Bond Connectivity---
	 1 : 2 3 4 9
	 2 : 1
	 3 : 1
	 4 : 1
	 5 : 6 7 8 12
	 6 : 5
	 7 : 5
	 8 : 5
	 9 : 1 10 11 15
	 10 : 9
	 11 : 9
	 12 : 5 13 14 24
	 13 : 12
	 14 : 12
	 15 : 9 16 17 18
	 16 : 15
	 17 : 15
	 18 : 15 19 20 21
	 19 : 18
	 20 : 18
	 21 : 18 22 23 24
	 22 : 21
	 23 : 21
	 24 : 12 21 25 26
	 25 : 24
	 26 : 24

	---Fragment 1 Geometry and Gradient---
	 C           6.1227646606       -2.6163243478        0.0672629150
	 H           5.1070746584       -4.0596767657       -0.9894000303
	 H           5.9720194791       -3.0803091285        2.0656225146
	 H           8.1064476203       -2.7226577836       -0.4600814615
	 C          -5.6046311456       -3.0353256432       -0.3930341121
	 H          -6.0437445741       -4.6375527054        0.8169772813
	 H          -4.6477224858       -3.7478305797       -2.0692576190
	 H          -7.3799656778       -2.1893205583       -0.9984024147
	 C           5.0234703656       -0.0201238361       -0.4538429785
	 H           5.2218887461        0.4328527973       -2.4560366991
	 H           6.0896447236        1.4106437097        0.5795814636
	 C          -3.9717072696       -1.1050299903        0.9569089093
	 H          -4.9217262611       -0.4616476533        2.6705907482
	 H          -2.2108573099       -1.9799869401        1.5630436043
	 C           2.2572901250        0.1654081022        0.2739594219
	 H           2.0494400809       -0.2603639653        2.2847839260
	 H           1.2030604962       -1.2841338450       -0.7476301505
	 C           1.1426556270        2.7489245901       -0.2762575036
	 H           1.2793117662        3.1101324608       -2.3050863759
	 H           2.3011557547        4.1821095941        0.6525628781
	 C          -1.5958433809        3.0751858775        0.5359979724
	 H          -1.7196614742        2.9000780832        2.5896132953
	 H          -2.1810936781        4.9965700065        0.0790575669
	 C          -3.4079066655        1.1843309666       -0.6825661043
	 H          -5.1964266453        2.1091140884       -1.1263083754
	 H          -2.6251122417        0.5544238289       -2.4881236697
	            -0.0007096275        0.0014123344       -0.0002795084
	             0.0005698651        0.0012687551        0.0006785871
	            -0.0000238339        0.0005939176       -0.0014234609
	            -0.0013522766        0.0002577138        0.0003059606
	             0.0009595908        0.0009998564        0.0006641414
	             0.0004572907        0.0012334032       -0.0006156043
	            -0.0004507249        0.0007204398        0.0012730920
	             0.0013378430       -0.0002825947        0.0005242760
	            -0.0012781701       -0.0015642885        0.0008582213
	            -0.0003921842       -0.0004884041        0.0013271800
	            -0.0009068411       -0.0010915868       -0.0004689551
	            -0.0002376446        0.0000564935       -0.0019947622
	             0.0004390795       -0.0002054395       -0.0013900737
	            -0.0011694054        0.0008284529       -0.0007084746
	             0.0010584832        0.0013576596       -0.0009125681
	             0.0001370903        0.0004962926       -0.0013713016
	             0.0007400494        0.0012392922        0.0005505127
	            -0.0010750402       -0.0015040762        0.0010351185
	            -0.0003245240       -0.0004751658        0.0013890190
	            -0.0008167692       -0.0011380076       -0.0004194701
	             0.0008137640       -0.0013500565       -0.0013581678
	             0.0003824497       -0.0003660513       -0.0014670940
	             0.0002734077       -0.0012900475        0.0000447688
	             0.0005685899       -0.0005143179        0.0017597836
	             0.0012785313       -0.0004468520        0.0004788414
	            -0.0002789930        0.0002522775        0.0015199386

	Previous optimization step data not found.  Starting new optimization.

	---Fragment 1 Intrafragment Coordinates---
	 - Coordinate -           - BOHR/RAD -       - ANG/DEG -
	 R(1,2)           =         2.057044	       1.088541
	 R(1,3)           =         2.057048	       1.088543
	 R(1,4)           =         2.055334	       1.087636
	 R(1,9)           =         2.867099	       1.517203
	 R(5,6)           =         2.055257	       1.087595
	 R(5,7)           =         2.057441	       1.088751
	 R(5,8)           =         2.057671	       1.088872
	 R(5,12)          =         2.866152	       1.516702
	 R(9,10)          =         2.062362	       1.091355
	 R(9,11)          =         2.061987	       1.091156
	 R(9,15)          =         2.866334	       1.516799
	 R(12,13)         =         2.062325	       1.091335
	 R(12,14)         =         2.057557	       1.088812
	 R(12,24)         =         2.871746	       1.519662
	 R(15,16)         =         2.065889	       1.093222
	 R(15,17)         =         2.063060	       1.091724
	 R(15,18)         =         2.867003	       1.517153
	 R(18,19)         =         2.065258	       1.092888
	 R(18,20)         =         2.063698	       1.092062
	 R(18,21)         =         2.874993	       1.521381
	 R(21,22)         =         2.064783	       1.092636
	 R(21,23)         =         2.059862	       1.090032
	 R(21,24)         =         2.888564	       1.528562
	 R(24,25)         =         2.061780	       1.091047
	 R(24,26)         =         2.066298	       1.093438
	 B(1,9,10)        =         1.916065	     109.782461
	 B(1,9,11)        =         1.916624	     109.814472
	 B(1,9,15)        =         1.963277	     112.487514
	 B(2,1,3)         =         1.880288	     107.732574
	 B(2,1,4)         =         1.884361	     107.965927
	 B(2,1,9)         =         1.931237	     110.651729
	 B(3,1,4)         =         1.884214	     107.957513
	 B(3,1,9)         =         1.931270	     110.653597
	 B(4,1,9)         =         1.950090	     111.731937
	 B(5,12,13)       =         1.916682	     109.817764
	 B(5,12,14)       =         1.917638	     109.872568
	 B(5,12,24)       =         1.960443	     112.325122
	 B(6,5,7)         =         1.884992	     108.002089
	 B(6,5,8)         =         1.885347	     108.022452
	 B(6,5,12)        =         1.949223	     111.682259
	 B(7,5,8)         =         1.879657	     107.696427
	 B(7,5,12)        =         1.930480	     110.608345
	 B(8,5,12)        =         1.931809	     110.684493
	 B(9,15,16)       =         1.908054	     109.323465
	 B(9,15,17)       =         1.898569	     108.779993
	 B(9,15,18)       =         1.965781	     112.630950
	 B(10,9,11)       =         1.859185	     106.523465
	 B(10,9,15)       =         1.901953	     108.973873
	 B(11,9,15)       =         1.903739	     109.076185
	 B(12,24,21)      =         1.986868	     113.839175
	 B(12,24,25)      =         1.886135	     108.067548
	 B(12,24,26)      =         1.907321	     109.281463
	 B(13,12,14)      =         1.856779	     106.385601
	 B(13,12,24)      =         1.892436	     108.428581
	 B(14,12,24)      =         1.916828	     109.826165
	 B(15,18,19)      =         1.896955	     108.687522
	 B(15,18,20)      =         1.897771	     108.734276
	 B(15,18,21)      =         2.002439	     114.731327
	 B(16,15,17)      =         1.860600	     106.604517
	 B(16,15,18)      =         1.910705	     109.475308
	 B(17,15,18)      =         1.917121	     109.842959
	 B(18,21,22)      =         1.905503	     109.177261
	 B(18,21,23)      =         1.890003	     108.289176
	 B(18,21,24)      =         1.986758	     113.832826
	 B(19,18,20)      =         1.858269	     106.470988
	 B(19,18,21)      =         1.897287	     108.706513
	 B(20,18,21)      =         1.905777	     109.192998
	 B(21,24,25)      =         1.919162	     109.959870
	 B(21,24,26)      =         1.907655	     109.300587
	 B(22,21,23)      =         1.857403	     106.421333
	 B(22,21,24)      =         1.903335	     109.053038
	 B(23,21,24)      =         1.916413	     109.802373
	 B(25,24,26)      =         1.851779	     106.099141
	 D(1,9,15,16)     =         1.026460	      58.811799
	 D(1,9,15,17)     =        -0.998920	     -57.233887
	 D(1,9,15,18)     =        -3.128552	    -179.252822
	 D(2,1,9,10)      =        -1.078158	     -61.773893
	 D(2,1,9,11)      =        -3.116682	    -178.572752
	 D(2,1,9,15)      =         1.042835	      59.750039
	 D(3,1,9,10)      =         3.122235	     178.890889
	 D(3,1,9,11)      =         1.083710	      62.092030
	 D(3,1,9,15)      =        -1.039958	     -59.585179
	 D(4,1,9,10)      =         1.022121	      58.563195
	 D(4,1,9,11)      =        -1.016404	     -58.235664
	 D(4,1,9,15)      =        -3.140072	    -179.912873
	 D(5,12,24,21)    =        -3.061758	    -175.425813
	 D(5,12,24,25)    =         1.084102	      62.114443
	 D(5,12,24,26)    =        -0.923602	     -52.918511
	 D(6,5,12,13)     =        -1.003603	     -57.502208
	 D(6,5,12,14)     =         1.032956	      59.184017
	 D(6,5,12,24)     =        -3.111021	    -178.248355
	 D(7,5,12,13)     =        -3.103585	    -177.822323
	 D(7,5,12,14)     =        -1.067026	     -61.136099
	 D(7,5,12,24)     =         1.072182	      61.431529
	 D(8,5,12,13)     =         1.097735	      62.895610
	 D(8,5,12,14)     =         3.134294	     179.581834
	 D(8,5,12,24)     =        -1.009682	     -57.850537
	 D(9,15,18,19)    =         1.062855	      60.897106
	 D(9,15,18,20)    =        -0.953284	     -54.619171
	 D(9,15,18,21)    =        -3.092635	    -177.194936
	 D(10,9,15,16)    =        -3.127713	    -179.204740
	 D(10,9,15,17)    =         1.130093	      64.749574
	 D(10,9,15,18)    =        -0.999539	     -57.269362
	 D(11,9,15,16)    =        -1.104521	     -63.284380
	 D(11,9,15,17)    =        -3.129900	    -179.330066
	 D(11,9,15,18)    =         1.023653	      58.650998
	 D(12,24,21,18)   =         1.684004	      96.486320
	 D(12,24,21,22)   =        -0.448329	     -25.687364
	 D(12,24,21,23)   =        -2.477215	    -141.933955
	 D(13,12,24,21)   =         1.100097	      63.030934
	 D(13,12,24,25)   =        -1.037228	     -59.428810
	 D(13,12,24,26)   =        -3.044932	    -174.461764
	 D(14,12,24,21)   =        -0.922092	     -52.831972
	 D(14,12,24,25)   =        -3.059418	    -175.291716
	 D(14,12,24,26)   =         1.216064	      69.675330
	 D(15,18,21,22)   =         1.110068	      63.602227
	 D(15,18,21,23)   =         3.125557	     179.081244
	 D(15,18,21,24)   =        -1.021069	     -58.502929
	 D(16,15,18,19)   =        -3.093656	    -177.253445
	 D(16,15,18,20)   =         1.173390	      67.230278
	 D(16,15,18,21)   =        -0.965961	     -55.345488
	 D(17,15,18,19)   =        -1.056258	     -60.519128
	 D(17,15,18,20)   =        -3.072397	    -176.035405
	 D(17,15,18,21)   =         1.071437	      61.388829
	 D(18,21,24,25)   =        -2.480115	    -142.100128
	 D(18,21,24,26)   =        -0.453968	     -26.010476
	 D(19,18,21,22)   =        -3.045602	    -174.500140
	 D(19,18,21,23)   =        -1.030113	     -59.021123
	 D(19,18,21,24)   =         1.106446	      63.394703
	 D(20,18,21,22)   =        -1.024956	     -58.725656
	 D(20,18,21,23)   =         0.990533	      56.753360
	 D(20,18,21,24)   =         3.127092	     179.169187
	 D(22,21,24,25)   =         1.670737	      95.726187
	 D(22,21,24,26)   =        -2.586301	    -148.184160
	 D(23,21,24,25)   =        -0.358149	     -20.520403
	 D(23,21,24,26)   =         1.667998	      95.569249
	 R(12,15)         =         6.393813	       3.383460

	Current energy   :      -314.9814243375

	Generating empirical Hessian (Schlegel '84) for each fragment.
	Taking RFO optimization step.
	Going to follow RFO solution 1.
	Using RFO vector 1.
	Norm of target step-size    0.12571
	Projected energy change by RFO approximation:         0.0001565407

	Back-transformation to cartesian coordinates...
	Successfully converged to displaced geometry.

	--- Internal Coordinate Step in ANG or DEG, aJ/ANG or AJ/DEG ---
	 ---------------------------------------------------------------------------
	   Coordinate                Previous        Force       Change         New 
	   ----------                --------       ------       ------       ------
	    1 R(1,2)          =      1.088541     0.012524     0.002296     1.090837
	    2 R(1,3)          =      1.088543     0.012482     0.002288     1.090831
	    3 R(1,4)          =      1.087636     0.011509     0.002103     1.089739
	    4 R(1,9)          =      1.517203     0.032219     0.006742     1.523946
	    5 R(5,6)          =      1.087595     0.011713     0.002140     1.089735
	    6 R(5,7)          =      1.088751     0.012328     0.002261     1.091012
	    7 R(5,8)          =      1.088872     0.011738     0.002154     1.091026
	    8 R(5,12)         =      1.516702     0.032798     0.006853     1.523555
	    9 R(9,10)         =      1.091355     0.011810     0.002185     1.093540
	   10 R(9,11)         =      1.091156     0.012040     0.002226     1.093383
	   11 R(9,15)         =      1.516799     0.034838     0.007281     1.524080
	   12 R(12,13)        =      1.091335     0.011711     0.002167     1.093502
	   13 R(12,14)        =      1.088812     0.012867     0.002361     1.091173
	   14 R(12,24)        =      1.519662     0.031012     0.007090     1.526752
	   15 R(15,16)        =      1.093222     0.011953     0.002225     1.095447
	   16 R(15,17)        =      1.091724     0.012535     0.002322     1.094047
	   17 R(15,18)        =      1.517153     0.032295     0.006995     1.524147
	   18 R(18,19)        =      1.092888     0.012103     0.002251     1.095139
	   19 R(18,20)        =      1.092062     0.011844     0.002197     1.094259
	   20 R(18,21)        =      1.521381     0.029129     0.007435     1.528816
	   21 R(21,22)        =      1.092636     0.011955     0.002221     1.094858
	   22 R(21,23)        =      1.090032     0.010636     0.001959     1.091991
	   23 R(21,24)        =      1.528562     0.028191     0.007072     1.535635
	   24 R(24,25)        =      1.091047     0.011638     0.002151     1.093198
	   25 R(24,26)        =      1.093438     0.012447     0.002319     1.095757
	   26 B(1,9,10)       =    109.782461    -0.000002    -0.006669   109.775793
	   27 B(1,9,11)       =    109.814472    -0.000002    -0.011386   109.803086
	   28 B(1,9,15)       =    112.487514     0.000002     0.051539   112.539053
	   29 B(2,1,3)        =    107.732574    -0.000022    -0.088559   107.644015
	   30 B(2,1,4)        =    107.965927    -0.000019    -0.103466   107.862461
	   31 B(2,1,9)        =    110.651729     0.000024     0.116673   110.768402
	   32 B(3,1,4)        =    107.957513    -0.000019    -0.098255   107.859259
	   33 B(3,1,9)        =    110.653597     0.000024     0.118297   110.771894
	   34 B(4,1,9)        =    111.731937     0.000010     0.040306   111.772243
	   35 B(5,12,13)      =    109.817764    -0.000001    -0.012478   109.805286
	   36 B(5,12,14)      =    109.872568    -0.000004    -0.045635   109.826933
	   37 B(5,12,24)      =    112.325122    -0.000009    -0.011874   112.313247
	   38 B(6,5,7)        =    108.002089    -0.000025    -0.123026   107.879064
	   39 B(6,5,8)        =    108.022452    -0.000026    -0.105939   107.916514
	   40 B(6,5,12)       =    111.682259     0.000020     0.063299   111.745558
	   41 B(7,5,8)        =    107.696427    -0.000024    -0.097457   107.598970
	   42 B(7,5,12)       =    110.608345     0.000025     0.131939   110.740284
	   43 B(8,5,12)       =    110.684493     0.000026     0.114349   110.798843
	   44 B(9,15,16)      =    109.323465    -0.000007    -0.064864   109.258601
	   45 B(9,15,17)      =    108.779993    -0.000005    -0.011043   108.768950
	   46 B(9,15,18)      =    112.630950     0.000008     0.058532   112.689483
	   47 B(10,9,11)      =    106.523465    -0.000012    -0.180014   106.343451
	   48 B(10,9,15)      =    108.973873     0.000007     0.072742   109.046615
	   49 B(11,9,15)      =    109.076185     0.000006     0.061657   109.137843
	   50 B(12,24,21)     =    113.839175    -0.000026     0.195826   114.035001
	   51 B(12,24,25)     =    108.067548     0.000017    -0.113501   107.954047
	   52 B(12,24,26)     =    109.281463    -0.000001     0.071941   109.353404
	   53 B(13,12,14)     =    106.385601    -0.000014    -0.179899   106.205702
	   54 B(13,12,24)     =    108.428581     0.000012     0.105791   108.534372
	   55 B(14,12,24)     =    109.826165     0.000015     0.136656   109.962821
	   56 B(15,18,19)     =    108.687522     0.000023     0.070760   108.758282
	   57 B(15,18,20)     =    108.734276     0.000031    -0.054240   108.680036
	   58 B(15,18,21)     =    114.731327    -0.000079     0.158255   114.889583
	   59 B(16,15,17)     =    106.604517    -0.000007    -0.124199   106.480317
	   60 B(16,15,18)     =    109.475308     0.000003     0.031781   109.507089
	   61 B(17,15,18)     =    109.842959     0.000007     0.098390   109.941348
	   62 B(18,21,22)     =    109.177261     0.000021     0.161061   109.338323
	   63 B(18,21,23)     =    108.289176     0.000032    -0.136154   108.153022
	   64 B(18,21,24)     =    113.832826    -0.000076     0.181969   114.014795
	   65 B(19,18,20)     =    106.470988    -0.000023    -0.197857   106.273130
	   66 B(19,18,21)     =    108.706513     0.000030     0.076218   108.782732
	   67 B(20,18,21)     =    109.192998     0.000022    -0.080608   109.112390
	   68 B(21,24,25)     =    109.959870     0.000012    -0.045421   109.914450
	   69 B(21,24,26)     =    109.300587     0.000014     0.074838   109.375425
	   70 B(22,21,23)     =    106.421333    -0.000028    -0.269885   106.151449
	   71 B(22,21,24)     =    109.053038     0.000023     0.113286   109.166324
	   72 B(23,21,24)     =    109.802373     0.000030    -0.083471   109.718902
	   73 B(25,24,26)     =    106.099141    -0.000016    -0.215439   105.883702
	   74 D(1,9,15,16)    =     58.811799    -0.000002    -0.175144    58.636655
	   75 D(1,9,15,17)    =    -57.233887     0.000002     0.014723   -57.219164
	   76 D(1,9,15,18)    =   -179.252822    -0.000001    -0.141294  -179.394116
	   77 D(2,1,9,10)     =    -61.773893    -0.000002    -0.100298   -61.874191
	   78 D(2,1,9,11)     =   -178.572752     0.000002     0.128513  -178.444239
	   79 D(2,1,9,15)     =     59.750039     0.000000     0.022749    59.772788
	   80 D(3,1,9,10)     =    178.890889    -0.000002    -0.141556   178.749333
	   81 D(3,1,9,11)     =     62.092030     0.000002     0.087254    62.179285
	   82 D(3,1,9,15)     =    -59.585179    -0.000000    -0.018509   -59.603688
	   83 D(4,1,9,10)     =     58.563195    -0.000002    -0.124786    58.438409
	   84 D(4,1,9,11)     =    -58.235664     0.000002     0.104025   -58.131639
	   85 D(4,1,9,15)     =   -179.912873     0.000000    -0.001739  -179.914612
	   86 D(5,12,24,21)   =   -175.425813     0.000000    -1.004738  -176.430551
	   87 D(5,12,24,25)   =     62.114443    -0.000002    -0.994080    61.120363
	   88 D(5,12,24,26)   =    -52.918511     0.000000    -0.716179   -53.634690
	   89 D(6,5,12,13)    =    -57.502208     0.000002     0.052696   -57.449511
	   90 D(6,5,12,14)    =     59.184017    -0.000002    -0.199353    58.984663
	   91 D(6,5,12,24)    =   -178.248355     0.000000    -0.064994  -178.313349
	   92 D(7,5,12,13)    =   -177.822323     0.000002     0.076302  -177.746021
	   93 D(7,5,12,14)    =    -61.136099    -0.000002    -0.175747   -61.311846
	   94 D(7,5,12,24)    =     61.431529     0.000000    -0.041388    61.390141
	   95 D(8,5,12,13)    =     62.895610     0.000002     0.038997    62.934607
	   96 D(8,5,12,14)    =    179.581834    -0.000003    -0.213052   179.368782
	   97 D(8,5,12,24)    =    -57.850537    -0.000000    -0.078693   -57.929230
	   98 D(9,15,18,19)   =     60.897106     0.000000    -0.185649    60.711457
	   99 D(9,15,18,20)   =    -54.619171    -0.000000     0.039783   -54.579387
	  100 D(9,15,18,21)   =   -177.194936     0.000001     0.076050  -177.118887
	  101 D(10,9,15,16)   =   -179.204740    -0.000001    -0.098080  -179.302820
	  102 D(10,9,15,17)   =     64.749574     0.000003     0.091787    64.841360
	  103 D(10,9,15,18)   =    -57.269362     0.000000    -0.064230   -57.333591
	  104 D(11,9,15,16)   =    -63.284380    -0.000002    -0.238741   -63.523121
	  105 D(11,9,15,17)   =   -179.330066     0.000001    -0.048874  -179.378940
	  106 D(11,9,15,18)   =     58.650998    -0.000001    -0.204890    58.446108
	  107 D(12,24,21,18)  =     96.486320    -0.000007    -1.341084    95.145236
	  108 D(12,24,21,22)  =    -25.687364    -0.000005    -1.759804   -27.447169
	  109 D(12,24,21,23)  =   -141.933955    -0.000004    -1.453076  -143.387031
	  110 D(13,12,24,21)  =     63.030934    -0.000000    -1.054079    61.976855
	  111 D(13,12,24,25)  =    -59.428810    -0.000003    -1.043421   -60.472231
	  112 D(13,12,24,26)  =   -174.461764    -0.000000    -0.765520  -175.227283
	  113 D(14,12,24,21)  =    -52.831972     0.000000    -0.973300   -53.805271
	  114 D(14,12,24,25)  =   -175.291716    -0.000002    -0.962642  -176.254358
	  115 D(14,12,24,26)  =     69.675330     0.000000    -0.684740    68.990590
	  116 D(15,18,21,22)  =     63.602227     0.000000    -0.964740    62.637488
	  117 D(15,18,21,23)  =    179.081244    -0.000001    -1.272902   177.808341
	  118 D(15,18,21,24)  =    -58.502929     0.000002    -1.357857   -59.860787
	  119 D(16,15,18,19)  =   -177.253445    -0.000000    -0.206326  -177.459771
	  120 D(16,15,18,20)  =     67.230278    -0.000000     0.019107    67.249385
	  121 D(16,15,18,21)  =    -55.345488     0.000000     0.055373   -55.290115
	  122 D(17,15,18,19)  =    -60.519128    -0.000001    -0.281250   -60.800378
	  123 D(17,15,18,20)  =   -176.035405    -0.000001    -0.055818  -176.091223
	  124 D(17,15,18,21)  =     61.388829    -0.000000    -0.019552    61.369278
	  125 D(18,21,24,25)  =   -142.100128    -0.000004    -1.385668  -143.485796
	  126 D(18,21,24,26)  =    -26.010476    -0.000005    -1.628135   -27.638611
	  127 D(19,18,21,22)  =   -174.500140    -0.000000    -0.705931  -175.206071
	  128 D(19,18,21,23)  =    -59.021123    -0.000001    -1.014093   -60.035217
	  129 D(19,18,21,24)  =     63.394703     0.000001    -1.099048    62.295655
	  130 D(20,18,21,22)  =    -58.725656    -0.000000    -0.943357   -59.669014
	  131 D(20,18,21,23)  =     56.753360    -0.000001    -1.251520    55.501840
	  132 D(20,18,21,24)  =    179.169187     0.000001    -1.336475   177.832712
	  133 D(22,21,24,25)  =     95.726187    -0.000002    -1.804389    93.921799
	  134 D(22,21,24,26)  =   -148.184160    -0.000003    -2.046856  -150.231016
	  135 D(23,21,24,25)  =    -20.520403    -0.000001    -1.497660   -22.018064
	  136 D(23,21,24,26)  =     95.569249    -0.000002    -1.740128    93.829122
	  137 R(12,15)        =      3.383460     0.009075     0.013763     3.397223
	 ---------------------------------------------------------------------------

  ==> Convergence Check <==

  Measures of convergence in internal coordinates in au.
  Criteria marked as inactive (o), active & met (*), and active & unmet ( ).
  --------------------------------------------------------------------------------------------- ~
   Step     Total Energy     Delta E     MAX Force     RMS Force      MAX Disp      RMS Disp    ~
  --------------------------------------------------------------------------------------------- ~
    Convergence Criteria             o    2.00e-06 *    1.00e-06 *    6.00e-06 *    4.00e-06 *  ~
  --------------------------------------------------------------------------------------------- ~
      1    -314.98142434   -3.15e+02 o    4.23e-03      1.04e-03      3.57e-02      1.07e-02    ~
  ---------------------------------------------------------------------------------------------

	Writing optimization data to binary file.
	Structure for next step:
	Cartesian Geometry (in Angstrom)
	    C     3.2721054925  -1.3764698078   0.0904177393
	    H     2.7431104584  -2.1557649594  -0.4598438464
	    H     3.1911549937  -1.6090592645   1.1530850668
	    H     4.3253640949  -1.4297347308  -0.1840652082
	    C    -2.9974319915  -1.6075965302  -0.2619351280
	    H    -3.2204789579  -2.4751155425   0.3586967490
	    H    -2.5154682268  -1.9631601217  -1.1738524431
	    H    -3.9442637704  -1.1467583292  -0.5473759087
	    C     2.6784533869  -0.0053223267  -0.2094859589
	    H     2.7880398368   0.2205482278  -1.2738184152
	    H     3.2371737846   0.7658048925   0.3278035948
	    C    -2.1064833594  -0.6078322858   0.4646331555
	    H    -2.5860665204  -0.2921660275   1.3952787110
	    H    -1.1696947755  -1.0877398794   0.7523393255
	    C     1.2053796532   0.0891807568   0.1699106834
	    H     1.0930693124  -0.1243180382   1.2384651438
	    H     0.6540258171  -0.6916949708  -0.3622361701
	    C     0.6043097029   1.4545813394  -0.1422130161
	    H     0.6821720512   1.6357203415  -1.2194570802
	    H     1.2122507538   2.2243162141   0.3428826422
	    C    -0.8542664155   1.6276852367   0.2818953179
	    H    -0.9291068952   1.5330223122   1.3700823750
	    H    -1.1587708806   2.6490620146   0.0441747127
	    C    -1.8194255919   0.6323229818  -0.3783289846
	    H    -2.7727383443   1.1232924438  -0.5909917297
	    H    -1.4167104922   0.3255890518  -1.3501406577
			--------------------------
			 OPTKING Finished Execution 
			--------------------------

    Structure for next step:
    Molecular point group: c1
    Full point group: C1

    Geometry (in Angstrom), charge = 0, multiplicity = 1:

    C            3.272049246342    -1.376127142103     0.090432176823
    H            2.743054212192    -2.155422293787    -0.459829408940
    H            3.191098747568    -1.608716598881     1.153099504325
    H            4.325307848712    -1.429392065136    -0.184050770759
    C           -2.997488237666    -1.607253864541    -0.261920690562
    H           -3.220535204026    -2.474772876840     0.358711186486
    H           -2.515524472966    -1.962817456048    -1.173838005620
    H           -3.944320016605    -1.146415663521    -0.547361471211
    C            2.678397140744    -0.004979661018    -0.209471521380
    H            2.787983590657     0.220890893414    -1.273803977727
    H            3.237117538467     0.766147558152     0.327818032331
    C           -2.106539605523    -0.607489620174     0.464647592955
    H           -2.586122766572    -0.291823361885     1.395293148516
    H           -1.169751021695    -1.087397213750     0.752353763025
    C            1.205323407028     0.089523422462     0.169925120908
    H            1.093013066264    -0.123975372576     1.238479581297
    H            0.653969570919    -0.691352305152    -0.362221732582
    C            0.604253456692     1.454924005058    -0.142198578639
    H            0.682115804998     1.636063007200    -1.219442642695
    H            1.212194507607     2.224658879793     0.342897079658
    C           -0.854322661639     1.628027902316     0.281909755389
    H           -0.929163141316     1.533364977817     1.370096812446
    H           -1.158827126797     2.649404680233     0.044189150187
    C           -1.819481838073     0.632665647424    -0.378314547102
    H           -2.772794590461     1.123635109411    -0.590977292229
    H           -1.416766738361     0.325931717490    -1.350126220194

gradient() will perform analytic gradient computation.

*** tstart() called on wr34
*** at Tue Sep 20 16:51:43 2016


         ---------------------------------------------------------
                                   SCF
            by Justin Turney, Rob Parrish, and Andy Simmonett
                              RHF Reference
                       12 Threads,  30000 MiB Core
         ---------------------------------------------------------

  ==> Geometry <==

    Molecular point group: c1
    Full point group: C1

    Geometry (in Angstrom), charge = 0, multiplicity = 1:

       Center              X                  Y                   Z               Mass       
    ------------   -----------------  -----------------  -----------------  -----------------
           C          3.272049246342    -1.376127142103     0.090432176823    12.000000000000
           H          2.743054212192    -2.155422293787    -0.459829408940     1.007825032070
           H          3.191098747568    -1.608716598881     1.153099504325     1.007825032070
           H          4.325307848712    -1.429392065136    -0.184050770759     1.007825032070
           C         -2.997488237666    -1.607253864541    -0.261920690562    12.000000000000
           H         -3.220535204026    -2.474772876840     0.358711186486     1.007825032070
           H         -2.515524472966    -1.962817456048    -1.173838005620     1.007825032070
           H         -3.944320016605    -1.146415663521    -0.547361471211     1.007825032070
           C          2.678397140744    -0.004979661018    -0.209471521380    12.000000000000
           H          2.787983590657     0.220890893414    -1.273803977727     1.007825032070
           H          3.237117538467     0.766147558152     0.327818032331     1.007825032070
           C         -2.106539605523    -0.607489620174     0.464647592955    12.000000000000
           H         -2.586122766572    -0.291823361885     1.395293148516     1.007825032070
           H         -1.169751021695    -1.087397213750     0.752353763025     1.007825032070
           C          1.205323407028     0.089523422462     0.169925120908    12.000000000000
           H          1.093013066264    -0.123975372576     1.238479581297     1.007825032070
           H          0.653969570919    -0.691352305152    -0.362221732582     1.007825032070
           C          0.604253456692     1.454924005058    -0.142198578639    12.000000000000
           H          0.682115804998     1.636063007200    -1.219442642695     1.007825032070
           H          1.212194507607     2.224658879793     0.342897079658     1.007825032070
           C         -0.854322661639     1.628027902316     0.281909755389    12.000000000000
           H         -0.929163141316     1.533364977817     1.370096812446     1.007825032070
           H         -1.158827126797     2.649404680233     0.044189150187     1.007825032070
           C         -1.819481838073     0.632665647424    -0.378314547102    12.000000000000
           H         -2.772794590461     1.123635109411    -0.590977292229     1.007825032070
           H         -1.416766738361     0.325931717490    -1.350126220194     1.007825032070

  Running in c1 symmetry.

  Rotational constants: A =      0.09149  B =      0.02909  C =      0.02344 [cm^-1]
  Rotational constants: A =   2742.78955  B =    871.95365  C =    702.72911 [MHz]
  Nuclear repulsion =  392.570617060421796

  Charge       = 0
  Multiplicity = 1
  Electrons    = 66
  Nalpha       = 33
  Nbeta        = 33

  ==> Algorithm <==

  SCF Algorithm Type is DF.
  DIIS enabled.
  MOM disabled.
  Fractional occupation disabled.
  Guess Type is READ.
  Energy threshold   = 1.00e-10
  Density threshold  = 1.00e-10
  Integral threshold = 0.00e+00

  ==> Primary Basis <==

  Basis Set: AUG-CC-PVTZ
    Number of shells: 274
    Number of basis function: 782
    Number of Cartesian functions: 890
    Spherical Harmonics?: true
    Max angular momentum: 3

  ==> Pre-Iterations <==

   -------------------------------------------------------
    Irrep   Nso     Nmo     Nalpha   Nbeta   Ndocc  Nsocc
   -------------------------------------------------------
     A        782     782       0       0       0       0
   -------------------------------------------------------
    Total     782     782      33      33      33       0
   -------------------------------------------------------

  ==> Integral Setup <==

  ==> DFJK: Density-Fitted J/K Matrices <==

    J tasked:                  Yes
    K tasked:                  Yes
    wK tasked:                  No
    OpenMP threads:             12
    Integrals threads:          12
    Memory (MB):             21457
    Algorithm:                Core
    Integral Cache:           NONE
    Schwarz Cutoff:          1E-12
    Fitting Condition:       1E-12

   => Auxiliary Basis Set <=

  Basis Set: 
    Number of shells: 492
    Number of basis function: 1660
    Number of Cartesian functions: 2038
    Spherical Harmonics?: true
    Max angular momentum: 4

  Minimum eigenvalue in the overlap matrix is 2.1772592361E-06.
  Using Symmetric Orthogonalization.
  SCF Guess: Reading in previously saved MOs, projecting if necessary.

  Using orbitals from previous SCF, no projection.
  Recomputing DOCC and SOCC from number of alpha and beta electrons from previous calculation.
              A 
    DOCC [    33 ]

  ==> Iterations <==

                           Total Energy        Delta E     RMS |[F,P]|

   @DF-RHF iter   0:  -313.49130915348917   -3.13491e+02   1.05005e-04 
   @DF-RHF iter   1:  -313.54053609349103   -4.92269e-02   2.33639e-05 
   @DF-RHF iter   2:  -313.54080723376694   -2.71140e-04   1.03961e-05 DIIS
   @DF-RHF iter   3:  -313.54085167048299   -4.44367e-05   3.59997e-06 DIIS
   @DF-RHF iter   4:  -313.54086104998203   -9.37950e-06   4.78596e-07 DIIS
   @DF-RHF iter   5:  -313.54086120280681   -1.52825e-07   1.67550e-07 DIIS
   @DF-RHF iter   6:  -313.54086121780108   -1.49943e-08   3.36049e-08 DIIS
   @DF-RHF iter   7:  -313.54086121858336   -7.82279e-10   7.66274e-09 DIIS
   @DF-RHF iter   8:  -313.54086121861735   -3.39924e-11   2.39968e-09 DIIS
   @DF-RHF iter   9:  -313.54086121861985   -2.50111e-12   6.20598e-10 DIIS
   @DF-RHF iter  10:  -313.54086121862019   -3.41061e-13   1.50337e-10 DIIS
   @DF-RHF iter  11:  -313.54086121862053   -3.41061e-13   3.35195e-11 DIIS

  ==> Post-Iterations <==

    Orbital Energies (a.u.)
    -----------------------

    Doubly Occupied:                                                      

       1A    -11.212805     2A    -11.211331     3A    -11.211197  
       4A    -11.210749     5A    -11.210193     6A    -11.210048  
       7A    -11.207565     8A    -11.206768     9A     -1.093566  
      10A     -1.059195    11A     -1.011752    12A     -0.947275  
      13A     -0.883779    14A     -0.818094    15A     -0.788364  
      16A     -0.771423    17A     -0.650071    18A     -0.629803  
      19A     -0.603767    20A     -0.590815    21A     -0.568394  
      22A     -0.563541    23A     -0.554995    24A     -0.524854  
      25A     -0.515200    26A     -0.503327    27A     -0.484823  
      28A     -0.472410    29A     -0.466922    30A     -0.463657  
      31A     -0.453580    32A     -0.437042    33A     -0.432531  

    Virtual:                                                              

      34A      0.028720    35A      0.032782    36A      0.033799  
      37A      0.035304    38A      0.046125    39A      0.047489  
      40A      0.050716    41A      0.054467    42A      0.055105  
      43A      0.066844    44A      0.067578    45A      0.071625  
      46A      0.076554    47A      0.079921    48A      0.082147  
      49A      0.086572    50A      0.092263    51A      0.096485  
      52A      0.113128    53A      0.115778    54A      0.119097  
      55A      0.125502    56A      0.132231    57A      0.134686  
      58A      0.137573    59A      0.138049    60A      0.143010  
      61A      0.144926    62A      0.150278    63A      0.150928  
      64A      0.155662    65A      0.157339    66A      0.159544  
      67A      0.163408    68A      0.167240    69A      0.173891  
      70A      0.175529    71A      0.182018    72A      0.185144  
      73A      0.187015    74A      0.190709    75A      0.197884  
      76A      0.204539    77A      0.213565    78A      0.223042  
      79A      0.230713    80A      0.231797    81A      0.236325  
      82A      0.244750    83A      0.247825    84A      0.253365  
      85A      0.261636    86A      0.266486    87A      0.268227  
      88A      0.277954    89A      0.284053    90A      0.292085  
      91A      0.300564    92A      0.303754    93A      0.309357  
      94A      0.313347    95A      0.314449    96A      0.320043  
      97A      0.322768    98A      0.326524    99A      0.331311  
     100A      0.335838   101A      0.339226   102A      0.343406  
     103A      0.351200   104A      0.354309   105A      0.355509  
     106A      0.362962   107A      0.364454   108A      0.368279  
     109A      0.371046   110A      0.374174   111A      0.378004  
     112A      0.380079   113A      0.383253   114A      0.385539  
     115A      0.389622   116A      0.393418   117A      0.394071  
     118A      0.400169   119A      0.402799   120A      0.407271  
     121A      0.414706   122A      0.417406   123A      0.418472  
     124A      0.422206   125A      0.429393   126A      0.433055  
     127A      0.435590   128A      0.440796   129A      0.445038  
     130A      0.451063   131A      0.453702   132A      0.457974  
     133A      0.461149   134A      0.461702   135A      0.464613  
     136A      0.466829   137A      0.476325   138A      0.476922  
     139A      0.483506   140A      0.484652   141A      0.488034  
     142A      0.493261   143A      0.493912   144A      0.502600  
     145A      0.507668   146A      0.508243   147A      0.515165  
     148A      0.516054   149A      0.517988   150A      0.521950  
     151A      0.525002   152A      0.530088   153A      0.534155  
     154A      0.536336   155A      0.541475   156A      0.549933  
     157A      0.552925   158A      0.557640   159A      0.558819  
     160A      0.559391   161A      0.566799   162A      0.575461  
     163A      0.579719   164A      0.584047   165A      0.585833  
     166A      0.595371   167A      0.601522   168A      0.601767  
     169A      0.609413   170A      0.617679   171A      0.618912  
     172A      0.627013   173A      0.633853   174A      0.638460  
     175A      0.640999   176A      0.642826   177A      0.645929  
     178A      0.648524   179A      0.650754   180A      0.663600  
     181A      0.667754   182A      0.677289   183A      0.677598  
     184A      0.683911   185A      0.690697   186A      0.695741  
     187A      0.699650   188A      0.704324   189A      0.708970  
     190A      0.718120   191A      0.722319   192A      0.732123  
     193A      0.738336   194A      0.742339   195A      0.755646  
     196A      0.756984   197A      0.760608   198A      0.766864  
     199A      0.780330   200A      0.791741   201A      0.795981  
     202A      0.807423   203A      0.811944   204A      0.817430  
     205A      0.826592   206A      0.841982   207A      0.847400  
     208A      0.851187   209A      0.855446   210A      0.862161  
     211A      0.865463   212A      0.868948   213A      0.873278  
     214A      0.875828   215A      0.884810   216A      0.890700  
     217A      0.899931   218A      0.903904   219A      0.909980  
     220A      0.913041   221A      0.919023   222A      0.923233  
     223A      0.924393   224A      0.928632   225A      0.929437  
     226A      0.935748   227A      0.941154   228A      0.944747  
     229A      0.945976   230A      0.950571   231A      0.956188  
     232A      0.958780   233A      0.970452   234A      0.972034  
     235A      0.977320   236A      0.981656   237A      0.987678  
     238A      0.991802   239A      0.993676   240A      1.004874  
     241A      1.012728   242A      1.016837   243A      1.018775  
     244A      1.026016   245A      1.027133   246A      1.032244  
     247A      1.038990   248A      1.045887   249A      1.047760  
     250A      1.054992   251A      1.063573   252A      1.069009  
     253A      1.077634   254A      1.084960   255A      1.089486  
     256A      1.092605   257A      1.096659   258A      1.100262  
     259A      1.108964   260A      1.117029   261A      1.117976  
     262A      1.123909   263A      1.127709   264A      1.133478  
     265A      1.139741   266A      1.148856   267A      1.151148  
     268A      1.154080   269A      1.160357   270A      1.164306  
     271A      1.169544   272A      1.172974   273A      1.178932  
     274A      1.184434   275A      1.195619   276A      1.197955  
[...]
	 Skipping Hessian update for step 9.
	Denominators (dg)(dq) or (dq)(dq) are very small.
	 Skipping Hessian update for step 8.
	Denominators (dg)(dq) or (dq)(dq) are very small.
	 Skipping Hessian update for step 7.
	Denominators (dg)(dq) or (dq)(dq) are very small.
	 Skipping Hessian update for step 6.
	Denominators (dg)(dq) or (dq)(dq) are very small.
	 Skipping Hessian update for step 5.
	Steps to be used in Hessian update: 4 3
	Taking RFO optimization step.
	Going to follow RFO solution 1.
	Using RFO vector 1.
	Norm of target step-size    0.00001
	Projected energy change by RFO approximation:        -0.0000000000

	Back-transformation to cartesian coordinates...
	Successfully converged to displaced geometry.

	--- Internal Coordinate Step in ANG or DEG, aJ/ANG or AJ/DEG ---
	 ---------------------------------------------------------------------------
	   Coordinate                Previous        Force       Change         New 
	   ----------                --------       ------       ------       ------
	    1 R(1,2)          =      1.090748     0.000001     0.000000     1.090748
	    2 R(1,3)          =      1.090739     0.000001     0.000000     1.090739
	    3 R(1,4)          =      1.089728     0.000001     0.000000     1.089728
	    4 R(1,9)          =      1.523653     0.000000     0.000000     1.523653
	    5 R(5,6)          =      1.089735     0.000001     0.000000     1.089735
	    6 R(5,7)          =      1.090920     0.000000     0.000000     1.090920
	    7 R(5,8)          =      1.090936     0.000000     0.000000     1.090936
	    8 R(5,12)         =      1.523351    -0.000000    -0.000000     1.523351
	    9 R(9,10)         =      1.093376     0.000001     0.000000     1.093376
	   10 R(9,11)         =      1.093224     0.000001     0.000000     1.093224
	   11 R(9,15)         =      1.523796    -0.000000    -0.000000     1.523796
	   12 R(12,13)        =      1.093329     0.000001     0.000000     1.093329
	   13 R(12,14)        =      1.091146     0.000001     0.000000     1.091146
	   14 R(12,24)        =      1.526335    -0.000001    -0.000000     1.526335
	   15 R(15,16)        =      1.095260     0.000001     0.000000     1.095260
	   16 R(15,17)        =      1.093884     0.000001     0.000000     1.093884
	   17 R(15,18)        =      1.523702     0.000000     0.000000     1.523702
	   18 R(18,19)        =      1.094939     0.000001     0.000000     1.094939
	   19 R(18,20)        =      1.094200     0.000001     0.000000     1.094200
	   20 R(18,21)        =      1.528386     0.000001     0.000000     1.528386
	   21 R(21,22)        =      1.094685     0.000002     0.000000     1.094685
	   22 R(21,23)        =      1.092067     0.000001     0.000000     1.092067
	   23 R(21,24)        =      1.534785     0.000001     0.000000     1.534785
	   24 R(24,25)        =      1.093242    -0.000000    -0.000000     1.093242
	   25 R(24,26)        =      1.095594    -0.000000    -0.000000     1.095594
	   26 B(1,9,10)       =    109.768514     0.000000     0.000008   109.768522
	   27 B(1,9,11)       =    109.800268    -0.000000    -0.000012   109.800256
	   28 B(1,9,15)       =    112.430262     0.000000     0.000007   112.430269
	   29 B(2,1,3)        =    107.697723    -0.000000    -0.000006   107.697717
	   30 B(2,1,4)        =    107.911003     0.000000    -0.000004   107.910998
	   31 B(2,1,9)        =    110.731600    -0.000000    -0.000004   110.731596
	   32 B(3,1,4)        =    107.909355    -0.000000    -0.000004   107.909351
	   33 B(3,1,9)        =    110.732583     0.000000     0.000027   110.732611
	   34 B(4,1,9)        =    111.704532    -0.000000    -0.000009   111.704523
	   35 B(5,12,13)      =    109.787746     0.000000     0.000017   109.787763
	   36 B(5,12,14)      =    109.800840     0.000000    -0.000002   109.800838
	   37 B(5,12,24)      =    112.167088    -0.000000    -0.000026   112.167062
	   38 B(6,5,7)        =    107.914060    -0.000000     0.000002   107.914062
	   39 B(6,5,8)        =    107.939741     0.000000     0.000000   107.939741
	   40 B(6,5,12)       =    111.705575     0.000000     0.000003   111.705578
	   41 B(7,5,8)        =    107.650903    -0.000000    -0.000004   107.650898
	   42 B(7,5,12)       =    110.702547     0.000000     0.000012   110.702559
	   43 B(8,5,12)       =    110.772671    -0.000000    -0.000013   110.772658
	   44 B(9,15,16)      =    109.284090    -0.000000    -0.000014   109.284076
	   45 B(9,15,17)      =    108.782564     0.000000     0.000019   108.782583
	   46 B(9,15,18)      =    112.563460    -0.000000    -0.000007   112.563454
	   47 B(10,9,11)      =    106.449675    -0.000000    -0.000011   106.449664
	   48 B(10,9,15)      =    109.069308    -0.000000     0.000010   109.069317
	   49 B(11,9,15)      =    109.140101    -0.000000    -0.000003   109.140099
	   50 B(12,24,21)     =    114.093115    -0.000000    -0.000005   114.093110
	   51 B(12,24,25)     =    107.857520    -0.000000     0.000005   107.857524
	   52 B(12,24,26)     =    109.370933     0.000000    -0.000017   109.370916
	   53 B(13,12,14)     =    106.329847    -0.000000     0.000011   106.329858
	   54 B(13,12,24)     =    108.558797     0.000000     0.000016   108.558812
	   55 B(14,12,24)     =    110.019485     0.000000    -0.000013   110.019473
	   56 B(15,18,19)     =    108.742739     0.000000    -0.000007   108.742732
	   57 B(15,18,20)     =    108.701632    -0.000000    -0.000006   108.701626
	   58 B(15,18,21)     =    114.917802    -0.000000    -0.000002   114.917799
	   59 B(16,15,17)     =    106.580544    -0.000000    -0.000010   106.580534
	   60 B(16,15,18)     =    109.529734     0.000000    -0.000004   109.529730
	   61 B(17,15,18)     =    109.918241     0.000000     0.000016   109.918257
	   62 B(18,21,22)     =    109.367007    -0.000000     0.000002   109.367009
	   63 B(18,21,23)     =    108.054966    -0.000000    -0.000012   108.054953
	   64 B(18,21,24)     =    114.081365     0.000000     0.000019   114.081384
	   65 B(19,18,20)     =    106.359625    -0.000000    -0.000002   106.359622
	   66 B(19,18,21)     =    108.742049     0.000000     0.000003   108.742052
	   67 B(20,18,21)     =    109.038328     0.000000     0.000014   109.038341
	   68 B(21,24,25)     =    109.827389     0.000000     0.000047   109.827436
	   69 B(21,24,26)     =    109.357237    -0.000000    -0.000020   109.357216
	   70 B(22,21,23)     =    106.252389    -0.000000    -0.000015   106.252374
	   71 B(22,21,24)     =    109.151313    -0.000000    -0.000002   109.151311
	   72 B(23,21,24)     =    109.638863     0.000000     0.000006   109.638869
	   73 B(25,24,26)     =    106.015738    -0.000000    -0.000009   106.015728
	   74 D(1,9,15,16)    =     58.732168    -0.000000    -0.000038    58.732130
	   75 D(1,9,15,17)    =    -57.264701    -0.000000    -0.000029   -57.264730
	   76 D(1,9,15,18)    =   -179.336342    -0.000000    -0.000058  -179.336400
	   77 D(2,1,9,10)     =    -61.808525    -0.000000     0.000055   -61.808469
	   78 D(2,1,9,11)     =   -178.501440     0.000000     0.000071  -178.501369
	   79 D(2,1,9,15)     =     59.788623     0.000000     0.000079    59.788701
	   80 D(3,1,9,10)     =    178.797173    -0.000000     0.000048   178.797221
	   81 D(3,1,9,11)     =     62.104257     0.000000     0.000064    62.104322
	   82 D(3,1,9,15)     =    -59.605680     0.000000     0.000071   -59.605609
	   83 D(4,1,9,10)     =     58.495034    -0.000000     0.000041    58.495075
	   84 D(4,1,9,11)     =    -58.197882     0.000000     0.000057   -58.197825
	   85 D(4,1,9,15)     =   -179.907819     0.000000     0.000064  -179.907755
	   86 D(5,12,24,21)   =   -176.893071     0.000000    -0.000119  -176.893190
	   87 D(5,12,24,25)   =     60.801552    -0.000000    -0.000179    60.801372
	   88 D(5,12,24,26)   =    -54.066593    -0.000000    -0.000162   -54.066755
	   89 D(6,5,12,13)    =    -57.686916    -0.000000    -0.000034   -57.686950
	   90 D(6,5,12,14)    =     58.872301     0.000000    -0.000012    58.872289
	   91 D(6,5,12,24)    =   -178.472669    -0.000000    -0.000048  -178.472717
	   92 D(7,5,12,13)    =   -177.975237    -0.000000    -0.000047  -177.975284
	   93 D(7,5,12,14)    =    -61.416020     0.000000    -0.000025   -61.416045
	   94 D(7,5,12,24)    =     61.239010    -0.000000    -0.000061    61.238949
	   95 D(8,5,12,13)    =     62.681856    -0.000000    -0.000041    62.681815
	   96 D(8,5,12,14)    =    179.241074     0.000000    -0.000019   179.241054
	   97 D(8,5,12,24)    =    -58.103896    -0.000000    -0.000055   -58.103951
	   98 D(9,15,18,19)   =     61.183928     0.000000    -0.000039    61.183890
	   99 D(9,15,18,20)   =    -54.212570     0.000000    -0.000029   -54.212599
	  100 D(9,15,18,21)   =   -176.691679     0.000000    -0.000041  -176.691720
	  101 D(10,9,15,16)   =   -179.273072     0.000000    -0.000016  -179.273089
	  102 D(10,9,15,17)   =     64.730058     0.000000    -0.000007    64.730051
	  103 D(10,9,15,18)   =    -57.341583    -0.000000    -0.000036   -57.341619
	  104 D(11,9,15,16)   =    -63.352767    -0.000000    -0.000026   -63.352793
	  105 D(11,9,15,17)   =   -179.349636     0.000000    -0.000017  -179.349653
	  106 D(11,9,15,18)   =     58.578723    -0.000000    -0.000045    58.578678
	  107 D(12,24,21,18)  =     95.834514    -0.000000     0.000097    95.834611
	  108 D(12,24,21,22)  =    -26.830332    -0.000000     0.000082   -26.830250
	  109 D(12,24,21,23)  =   -142.838029    -0.000000     0.000099  -142.837930
	  110 D(13,12,24,21)  =     61.613878     0.000000    -0.000134    61.613744
	  111 D(13,12,24,25)  =    -60.691500    -0.000000    -0.000194   -60.691694
	  112 D(13,12,24,26)  =   -175.559645    -0.000000    -0.000177  -175.559822
	  113 D(14,12,24,21)  =    -54.361903     0.000000    -0.000149   -54.362052
	  114 D(14,12,24,25)  =   -176.667281    -0.000000    -0.000209  -176.667490
	  115 D(14,12,24,26)  =     68.464574    -0.000000    -0.000192    68.464383
	  116 D(15,18,21,22)  =     63.226850     0.000000    -0.000066    63.226784
	  117 D(15,18,21,23)  =    178.479122    -0.000000    -0.000090   178.479031
	  118 D(15,18,21,24)  =    -59.320182    -0.000000    -0.000079   -59.320260
	  119 D(16,15,18,19)  =   -177.023818    -0.000000    -0.000064  -177.023882
	  120 D(16,15,18,20)  =     67.579684    -0.000000    -0.000054    67.579629
	  121 D(16,15,18,21)  =    -54.899425    -0.000000    -0.000066   -54.899491
	  122 D(17,15,18,19)  =    -60.243180    -0.000000    -0.000069   -60.243249
	  123 D(17,15,18,20)  =   -175.639679    -0.000000    -0.000060  -175.639738
	  124 D(17,15,18,21)  =     61.881213    -0.000000    -0.000071    61.881141
	  125 D(18,21,24,25)  =   -142.945962     0.000000     0.000134  -142.945828
	  126 D(18,21,24,26)  =    -26.999424     0.000000     0.000138   -26.999286
	  127 D(19,18,21,22)  =   -174.648383    -0.000000    -0.000074  -174.648458
	  128 D(19,18,21,23)  =    -59.396112    -0.000000    -0.000098   -59.396210
	  129 D(19,18,21,24)  =     62.804585    -0.000000    -0.000087    62.804498
	  130 D(20,18,21,22)  =    -59.070840     0.000000    -0.000068   -59.070908
	  131 D(20,18,21,23)  =     56.181431    -0.000000    -0.000092    56.181340
	  132 D(20,18,21,24)  =    178.382128     0.000000    -0.000080   178.382048
	  133 D(22,21,24,25)  =     94.389191    -0.000000     0.000120    94.389311
	  134 D(22,21,24,26)  =   -149.664270     0.000000     0.000123  -149.664146
	  135 D(23,21,24,25)  =    -21.618506     0.000000     0.000136   -21.618369
	  136 D(23,21,24,26)  =     94.328033     0.000000     0.000140    94.328173
	  137 R(12,15)        =      3.407301     0.000001     0.000003     3.407304
	 ---------------------------------------------------------------------------

  ==> Convergence Check <==

  Measures of convergence in internal coordinates in au.
  Criteria marked as inactive (o), active & met (*), and active & unmet ( ).
  ---------------------------------------------------------------------------------------------
   Step     Total Energy     Delta E     MAX Force     RMS Force      MAX Disp      RMS Disp   
  ---------------------------------------------------------------------------------------------
    Convergence Criteria             o    2.00e-06 *    1.00e-06 *    6.00e-06 *    4.00e-06 *
  ---------------------------------------------------------------------------------------------
     26    -314.98168731   -2.21e-09 o    2.27e-07 *    4.71e-08 *    5.22e-06 *    1.20e-06 *  ~
  ---------------------------------------------------------------------------------------------


  **** Optimization is complete! (in 26 steps) ****

  ==> Optimization Summary <==

  Measures of convergence in internal coordinates in au.
  --------------------------------------------------------------------------------------------------------------- ~
   Step         Total Energy             Delta E       MAX Force       RMS Force        MAX Disp        RMS Disp  ~
  --------------------------------------------------------------------------------------------------------------- ~
      1    -314.981424337509   -314.981424337509      0.00422861      0.00103860      0.03572437      0.01073860  ~
      2    -314.981668116827     -0.000243779319      0.00078644      0.00015213      0.03662309      0.01291827  ~
      3    -314.981646018347      0.000022098480      0.00065522      0.00016071      0.02626457      0.00835216  ~
      4    -314.981686980921     -0.000040962574      0.00011114      0.00002615      0.00124925      0.00054083  ~
      5    -314.981687279903     -0.000000298982      0.00003158      0.00000535      0.00068906      0.00022532  ~
      6    -314.981687310026     -0.000000030123      0.00000781      0.00000168      0.00022154      0.00006264  ~
      7    -314.981687312099     -0.000000002073      0.00000473      0.00000066      0.00010524      0.00003018  ~
      8    -314.981687309515      0.000000002585      0.00000172      0.00000046      0.00004887      0.00001488  ~
      9    -314.981687308946      0.000000000569      0.00000100      0.00000016      0.00003680      0.00000897  ~
     10    -314.981687310134     -0.000000001188      0.00000039      0.00000011      0.00001344      0.00000497  ~
     11    -314.981687314408     -0.000000004274      0.00000218      0.00000048      0.00004396      0.00001223  ~
     12    -314.981687309380      0.000000005028      0.00000212      0.00000048      0.00005663      0.00001516  ~
     13    -314.981687308445      0.000000000935      0.00000049      0.00000014      0.00000769      0.00000223  ~
     14    -314.981687312347     -0.000000003902      0.00000073      0.00000017      0.00001446      0.00000393  ~
     15    -314.981687311158      0.000000001189      0.00000220      0.00000055      0.00004676      0.00001285  ~
     16    -314.981687313283     -0.000000002125      0.00000071      0.00000020      0.00002707      0.00000735  ~
     17    -314.981687315605     -0.000000002322      0.00000100      0.00000022      0.00000755      0.00000283  ~
     18    -314.981687312408      0.000000003197      0.00000109      0.00000027      0.00002586      0.00000726  ~
     19    -314.981687312004      0.000000000403      0.00000032      0.00000008      0.00000767      0.00000275  ~
     20    -314.981687311702      0.000000000303      0.00000114      0.00000029      0.00002930      0.00000766  ~
     21    -314.981687307358      0.000000004344      0.00000081      0.00000024      0.00001640      0.00000452  ~
     22    -314.981687311727     -0.000000004369      0.00000146      0.00000039      0.00003688      0.00000963  ~
     23    -314.981687312820     -0.000000001093      0.00000052      0.00000012      0.00000995      0.00000305  ~
     24    -314.981687308078      0.000000004742      0.00000108      0.00000023      0.00001888      0.00000490  ~
     25    -314.981687311686     -0.000000003608      0.00000067      0.00000014      0.00001238      0.00000364  ~
     26    -314.981687313901     -0.000000002214      0.00000023      0.00000005      0.00000522      0.00000120  ~
  --------------------------------------------------------------------------------------------------------------- ~

	Writing optimization data to binary file.
	Final energy is   -314.9816873139007
	Final (previous) structure:
	Cartesian Geometry (in Angstrom)
	    C     3.2842373416  -1.3560854976   0.0767917369
	    H     2.7637395210  -2.1331205119  -0.4844839149
	    H     3.1979701820  -1.5984898015   1.1367487245
	    H     4.3394830451  -1.3984563267  -0.1918504853
	    C    -3.0046338988  -1.6161118783  -0.2413973092
	    H    -3.2294774376  -2.4791929054   0.3847488292
	    H    -2.5240549146  -1.9778848916  -1.1514911525
	    H    -3.9501243707  -1.1534899814  -0.5280508099
	    C     2.6833280821   0.0135511868  -0.2139364717
	    H     2.7972420735   0.2495958781  -1.2754341979
	    H     3.2326230127   0.7830293324   0.3349877680
	    C    -2.1099394450  -0.6153771628   0.4787759343
	    H    -2.5897356328  -0.2901219768   1.4057995964
	    H    -1.1754338438  -1.0976523334   0.7698237278
	    C     1.2076748127   0.0918577506   0.1579104944
	    H     1.0909110423  -0.1313476403   1.2238094520
	    H     0.6656952329  -0.6876336310  -0.3854430696
	    C     0.5995757259   1.4553719666  -0.1465743146
	    H     0.6754552667   1.6420371270  -1.2228132495
	    H     1.2027967116   2.2258144788   0.3431359069
	    C    -0.8592982873   1.6192784976   0.2786124235
	    H    -0.9324929882   1.5291544088   1.3671228646
	    H    -1.1706475354   2.6371794754   0.0345849034
	    C    -1.8187449863   0.6156160314  -0.3753664611
	    H    -2.7718223853   1.1035369415  -0.5961699305
	    H    -1.4101776294   0.2992206603  -1.3414369235
	Saving final (previous) structure.
			--------------------------
			 OPTKING Finished Execution 
			--------------------------

    Final optimized geometry and variables:
    Molecular point group: c1
    Full point group: C1

    Geometry (in Angstrom), charge = 0, multiplicity = 1:

    C            3.284237341590    -1.356085497590     0.076791736896
    H            2.763739520996    -2.133120511921    -0.484483914949
    H            3.197970182009    -1.598489801478     1.136748724534
    H            4.339483045085    -1.398456326708    -0.191850485267
    C           -3.004633898755    -1.616111878319    -0.241397309235
    H           -3.229477437561    -2.479192905363     0.384748829197
    H           -2.524054914582    -1.977884891630    -1.151491152515
    H           -3.950124370727    -1.153489981375    -0.528050809877
    C            2.683328082121     0.013551186812    -0.213936471655
    H            2.797242073479     0.249595878061    -1.275434197914
    H            3.232623012734     0.783029332369     0.334987767953
    C           -2.109939445027    -0.615377162802     0.478775934262
    H           -2.589735632776    -0.290121976788     1.405799596362
    H           -1.175433843814    -1.097652333419     0.769823727826
    C            1.207674812681     0.091857750603     0.157910494408
    H            1.090911042303    -0.131347640319     1.223809452005
    H            0.665695232880    -0.687633631016    -0.385443069602
    C            0.599575725940     1.455371966590    -0.146574314574
    H            0.675455266733     1.642037126976    -1.222813249489
    H            1.202796711628     2.225814478798     0.343135906917
    C           -0.859298287297     1.619278497605     0.278612423548
    H           -0.932492988193     1.529154408775     1.367122864602
    H           -1.170647535431     2.637179475423     0.034584903417
    C           -1.818744986299     0.615616031434    -0.375366461140
    H           -2.771822385260     1.103536941542    -0.596169930548
    H           -1.410177629405     0.299220660338    -1.341436923522

	Cleaning optimization helper files.

*** Psi4 exiting successfully. Buy a developer a beer!
