    -----------------------------------------------------------------------
          Psi4: An Open-Source Ab Initio Electronic Structure Package
                              Psi4 1.0.0 Driver

                          Git: Rev {master} 6a9a71b dirty

    J. M. Turney, A. C. Simmonett, R. M. Parrish, E. G. Hohenstein,
    F. A. Evangelista, J. T. Fermann, B. J. Mintz, L. A. Burns, J. J. Wilke,
    M. L. Abrams, N. J. Russ, M. L. Leininger, C. L. Janssen, E. T. Seidl,
    W. D. Allen, H. F. Schaefer, R. A. King, E. F. Valeev, C. D. Sherrill,
    and T. D. Crawford, WIREs Comput. Mol. Sci. 2, 556-565 (2012)
    (doi: 10.1002/wcms.93)

                         Additional Contributions by
    A. E. DePrince, U. Bozkaya, A. Yu. Sokolov, D. G. A. Smith, R. Di Remigio,
    R. M. Richard, J. F. Gonthier, H. R. McAlexander, M. Saitow, and
    B. P. Pritchard
    -----------------------------------------------------------------------


    Psi4 started on: Wed Sep 21 08:41:36 2016

    Process ID:  32962
    PSI4DATADIR: /usr/local/hpc5/psi4conda/share/psi4
    Memory level set to 256.000 MB

  ==> Input File <==

--------------------------------------------------------------------------
memory 60 Gb

molecule molecule_49_psi {
0 1
C           -1.580626269528     1.875167976538    -0.153122527384
H           -2.040785857989     2.661807029505    -0.751698433282
H           -0.619203250047     1.634405698843    -0.603607266406
H           -1.387172217083     2.283504616062     0.840087495293
C            3.430625704570     0.673443243928     0.361858210385
H            3.794883554014    -0.083720361660     1.057319859925
H            3.027792948399     1.498421666548     0.950850252953
H            4.284098015366     1.049348924012    -0.201888357388
C           -2.494496986073     0.655529714507    -0.055472541211
H           -2.708104483612     0.269882412752    -1.056818878091
H           -3.452428461893     0.983842931270     0.352996181620
C            2.360777900932     0.093676965225    -0.554957423470
H            2.025023934988     0.859175938965    -1.260424331004
H            2.785194798734    -0.714923242199    -1.156101083804
C           -1.942708778421    -0.481630911627     0.815159857178
H           -2.775148425916    -0.994597784262     1.302107731966
H           -1.337688066588    -0.058898711671     1.621991088646
C           -1.142659484652    -1.537419746076     0.048730564782
H           -1.814518789552    -2.017381017675    -0.668923645431
H           -0.828515674468    -2.318755413832     0.747534709674
C            0.087306499452    -1.022787992330    -0.695512671289
H            0.528108910809    -1.849816613946    -1.259962112328
H           -0.212678731524    -0.279286184449    -1.439324174363
C            1.156520854323    -0.432779628847     0.215419659330
H            0.737185538977     0.380835671677     0.813070210296
H            1.485412278944    -1.198713739768     0.925885736788
}

set globals {
  reference rhf
  g_convergence gau_verytight
  basis aug-cc-pvtz
  freeze_core true
  scf_type df
  mp_type df
}
optimize('mp2')
--------------------------------------------------------------------------
/usr/local/hpc5/psi4conda/lib/python2.7/site-packages/v2rdm_casscf/v2rdm_casscf.so loaded.

  Memory set to  60.000 GiB by Python script.
gradient() will perform analytic gradient computation.

*** tstart() called on wr42
*** at Wed Sep 21 08:41:38 2016


         ---------------------------------------------------------
                                   SCF
            by Justin Turney, Rob Parrish, and Andy Simmonett
                              RHF Reference
                       12 Threads,  60000 MiB Core
         ---------------------------------------------------------

  ==> Geometry <==

    Molecular point group: c1
    Full point group: C1

    Geometry (in Angstrom), charge = 0, multiplicity = 1:

       Center              X                  Y                   Z               Mass       
    ------------   -----------------  -----------------  -----------------  -----------------
           C         -1.580626269528     1.875167976538    -0.153122527384    12.000000000000
           H         -2.040785857989     2.661807029505    -0.751698433282     1.007825032070
           H         -0.619203250047     1.634405698843    -0.603607266406     1.007825032070
           H         -1.387172217083     2.283504616062     0.840087495293     1.007825032070
           C          3.430625704570     0.673443243928     0.361858210385    12.000000000000
           H          3.794883554014    -0.083720361660     1.057319859925     1.007825032070
           H          3.027792948399     1.498421666548     0.950850252953     1.007825032070
           H          4.284098015366     1.049348924012    -0.201888357388     1.007825032070
           C         -2.494496986073     0.655529714507    -0.055472541211    12.000000000000
           H         -2.708104483612     0.269882412752    -1.056818878091     1.007825032070
           H         -3.452428461893     0.983842931270     0.352996181620     1.007825032070
           C          2.360777900932     0.093676965225    -0.554957423470    12.000000000000
           H          2.025023934988     0.859175938965    -1.260424331004     1.007825032070
           H          2.785194798734    -0.714923242199    -1.156101083804     1.007825032070
           C         -1.942708778421    -0.481630911627     0.815159857178    12.000000000000
           H         -2.775148425916    -0.994597784262     1.302107731966     1.007825032070
           H         -1.337688066588    -0.058898711671     1.621991088646     1.007825032070
           C         -1.142659484652    -1.537419746076     0.048730564782    12.000000000000
           H         -1.814518789552    -2.017381017675    -0.668923645431     1.007825032070
           H         -0.828515674468    -2.318755413832     0.747534709674     1.007825032070
           C          0.087306499452    -1.022787992330    -0.695512671289    12.000000000000
           H          0.528108910809    -1.849816613946    -1.259962112328     1.007825032070
           H         -0.212678731524    -0.279286184449    -1.439324174363     1.007825032070
           C          1.156520854323    -0.432779628847     0.215419659330    12.000000000000
           H          0.737185538977     0.380835671677     0.813070210296     1.007825032070
           H          1.485412278944    -1.198713739768     0.925885736788     1.007825032070

  Running in c1 symmetry.

  Rotational constants: A =      0.09730  B =      0.03210  C =      0.02708 [cm^-1]
  Rotational constants: A =   2916.98358  B =    962.38530  C =    811.98015 [MHz]
  Nuclear repulsion =  400.888821366267791

  Charge       = 0
  Multiplicity = 1
  Electrons    = 66
  Nalpha       = 33
  Nbeta        = 33

  ==> Algorithm <==

  SCF Algorithm Type is DF.
  DIIS enabled.
  MOM disabled.
  Fractional occupation disabled.
  Guess Type is SAD.
  Energy threshold   = 1.00e-10
  Density threshold  = 1.00e-10
  Integral threshold = 0.00e+00

  ==> Primary Basis <==

  Basis Set: AUG-CC-PVTZ
    Number of shells: 274
    Number of basis function: 782
    Number of Cartesian functions: 890
    Spherical Harmonics?: true
    Max angular momentum: 3

  ==> Pre-Iterations <==

   -------------------------------------------------------
    Irrep   Nso     Nmo     Nalpha   Nbeta   Ndocc  Nsocc
   -------------------------------------------------------
     A        782     782       0       0       0       0
   -------------------------------------------------------
    Total     782     782      33      33      33       0
   -------------------------------------------------------

  ==> Integral Setup <==

  ==> DFJK: Density-Fitted J/K Matrices <==

    J tasked:                  Yes
    K tasked:                  Yes
    wK tasked:                  No
    OpenMP threads:             12
    Integrals threads:          12
    Memory (MB):             42915
    Algorithm:                Core
    Integral Cache:           NONE
    Schwarz Cutoff:          1E-12
    Fitting Condition:       1E-12

   => Auxiliary Basis Set <=

  Basis Set: 
    Number of shells: 492
    Number of basis function: 1660
    Number of Cartesian functions: 2038
    Spherical Harmonics?: true
    Max angular momentum: 4

  Minimum eigenvalue in the overlap matrix is 1.7824550243E-06.
  Using Symmetric Orthogonalization.
  SCF Guess: Superposition of Atomic Densities via on-the-fly atomic UHF.

  ==> Iterations <==

                           Total Energy        Delta E     RMS |[F,P]|

   @DF-RHF iter   0:  -316.89953006605771   -3.16900e+02   6.98829e-03 
   @DF-RHF iter   1:  -313.28608662564437    3.61344e+00   7.27561e-04 
   @DF-RHF iter   2:  -313.50174124909682   -2.15655e-01   2.81005e-04 DIIS
   @DF-RHF iter   3:  -313.53243906929180   -3.06978e-02   1.04714e-04 DIIS
   @DF-RHF iter   4:  -313.53814365152442   -5.70458e-03   1.54341e-05 DIIS
   @DF-RHF iter   5:  -313.53829692556661   -1.53274e-04   4.95655e-06 DIIS
   @DF-RHF iter   6:  -313.53830963032755   -1.27048e-05   1.18217e-06 DIIS
   @DF-RHF iter   7:  -313.53831049467254   -8.64345e-07   2.20698e-07 DIIS
   @DF-RHF iter   8:  -313.53831053162611   -3.69536e-08   5.70415e-08 DIIS
   @DF-RHF iter   9:  -313.53831053375626   -2.13015e-09   1.78518e-08 DIIS
   @DF-RHF iter  10:  -313.53831053397840   -2.22144e-10   4.70304e-09 DIIS
   @DF-RHF iter  11:  -313.53831053399568   -1.72804e-11   1.10649e-09 DIIS
   @DF-RHF iter  12:  -313.53831053399568    0.00000e+00   3.19902e-10 DIIS
   @DF-RHF iter  13:  -313.53831053399568    0.00000e+00   9.91032e-11 DIIS

  ==> Post-Iterations <==

    Orbital Energies (a.u.)
    -----------------------

    Doubly Occupied:                                                      

       1A    -11.213373     2A    -11.212729     3A    -11.211137  
       4A    -11.210079     5A    -11.209635     6A    -11.208831  
       7A    -11.207133     8A    -11.206980     9A     -1.094457  
      10A     -1.058120    11A     -1.008681    12A     -0.951021  
      13A     -0.884847    14A     -0.821874    15A     -0.795833  
      16A     -0.755473    17A     -0.655554    18A     -0.619774  
      19A     -0.614473    20A     -0.592956    21A     -0.567197  
      22A     -0.563316    23A     -0.547362    24A     -0.534764  
      25A     -0.519402    26A     -0.495246    27A     -0.490669  
      28A     -0.476491    29A     -0.467673    30A     -0.460314  
      31A     -0.442304    32A     -0.439786    33A     -0.434160  

    Virtual:                                                              

      34A      0.028885    35A      0.032496    36A      0.033999  
      37A      0.035040    38A      0.046179    39A      0.048968  
      40A      0.050868    41A      0.052618    42A      0.056618  
      43A      0.068408    44A      0.069688    45A      0.071635  
      46A      0.072050    47A      0.077870    48A      0.084836  
      49A      0.091748    50A      0.097657    51A      0.100345  
      52A      0.112907    53A      0.115914    54A      0.119318  
      55A      0.123175    56A      0.128336    57A      0.130079  
      58A      0.134302    59A      0.138230    60A      0.143201  
      61A      0.144148    62A      0.146950    63A      0.148961  
      64A      0.154902    65A      0.158955    66A      0.164418  
      67A      0.165087    68A      0.167626    69A      0.168775  
      70A      0.174939    71A      0.179716    72A      0.184371  
      73A      0.188002    74A      0.189774    75A      0.199238  
      76A      0.205175    77A      0.214262    78A      0.220368  
      79A      0.223222    80A      0.230027    81A      0.239394  
      82A      0.246614    83A      0.253013    84A      0.263994  
      85A      0.264327    86A      0.267652    87A      0.273445  
      88A      0.287374    89A      0.289765    90A      0.300158  
      91A      0.300888    92A      0.305519    93A      0.308609  
      94A      0.312110    95A      0.314713    96A      0.319071  
      97A      0.327587    98A      0.331409    99A      0.331787  
     100A      0.334066   101A      0.338992   102A      0.348090  
     103A      0.352882   104A      0.355474   105A      0.358665  
     106A      0.361485   107A      0.364281   108A      0.368960  
     109A      0.369622   110A      0.372032   111A      0.373774  
     112A      0.381811   113A      0.383445   114A      0.387220  
     115A      0.390577   116A      0.393849   117A      0.400873  
     118A      0.402606   119A      0.404513   120A      0.415209  
     121A      0.416312   122A      0.416517   123A      0.424720  
     124A      0.431588   125A      0.434323   126A      0.439802  
     127A      0.442242   128A      0.448934   129A      0.453111  
     130A      0.455006   131A      0.457152   132A      0.462844  
     133A      0.466506   134A      0.468275   135A      0.470465  
     136A      0.475311   137A      0.479162   138A      0.484181  
     139A      0.487743   140A      0.490659   141A      0.494084  
     142A      0.497274   143A      0.497913   144A      0.505316  
     145A      0.511768   146A      0.513549   147A      0.517826  
     148A      0.524279   149A      0.528079   150A      0.529700  
     151A      0.531618   152A      0.537022   153A      0.540499  
     154A      0.546919   155A      0.552663   156A      0.556657  
     157A      0.558803   158A      0.564301   159A      0.571917  
     160A      0.573898   161A      0.581020   162A      0.582994  
     163A      0.585056   164A      0.594174   165A      0.598659  
     166A      0.606350   167A      0.609895   168A      0.611675  
     169A      0.615670   170A      0.623789   171A      0.627050  
     172A      0.629670   173A      0.637916   174A      0.640561  
     175A      0.645561   176A      0.648973   177A      0.652341  
     178A      0.656695   179A      0.663182   180A      0.670656  
     181A      0.674460   182A      0.682520   183A      0.687762  
     184A      0.689062   185A      0.697035   186A      0.702693  
     187A      0.706498   188A      0.710476   189A      0.718928  
     190A      0.722565   191A      0.728103   192A      0.731890  
     193A      0.738575   194A      0.742169   195A      0.747661  
     196A      0.755816   197A      0.763102   198A      0.771059  
     199A      0.781636   200A      0.794019   201A      0.797955  
     202A      0.807642   203A      0.811983   204A      0.824611  
     205A      0.828251   206A      0.836792   207A      0.846180  
     208A      0.850931   209A      0.857511   210A      0.865175  
     211A      0.866787   212A      0.875107   213A      0.879184  
     214A      0.886440   215A      0.887396   216A      0.895628  
     217A      0.901509   218A      0.904119   219A      0.909215  
     220A      0.915302   221A      0.923600   222A      0.926785  
     223A      0.932236   224A      0.933382   225A      0.937732  
     226A      0.942954   227A      0.947750   228A      0.950203  
     229A      0.958344   230A      0.961928   231A      0.974716  
     232A      0.977087   233A      0.980731   234A      0.982587  
     235A      0.984363   236A      0.992223   237A      0.998469  
     238A      1.005516   239A      1.012520   240A      1.014127  
     241A      1.022199   242A      1.023699   243A      1.031517  
     244A      1.034380   245A      1.037757   246A      1.044778  
     247A      1.049770   248A      1.055461   249A      1.060047  
     250A      1.065279   251A      1.072543   252A      1.073759  
     253A      1.078994   254A      1.085188   255A      1.091432  
     256A      1.095418   257A      1.104137   258A      1.119798  
     259A      1.124210   260A      1.128470   261A      1.132527  
     262A      1.136693   263A      1.144875   264A      1.150492  
     265A      1.152658   266A      1.156971   267A      1.163438  
     268A      1.167463   269A      1.170316   270A      1.174556  
     271A      1.181896   272A      1.185564   273A      1.192003  
     274A      1.201731   275A      1.203724   276A      1.212313  
     277A      1.215621   278A      1.219292   279A      1.220978  
     280A      1.225499   281A      1.229365   282A      1.232270  
     283A      1.236919   284A      1.246874   285A      1.254061  
     286A      1.263928   287A      1.268488   288A      1.269304  
     289A      1.278535   290A      1.281782   291A      1.291338  
     292A      1.294607   293A      1.302027   294A      1.306782  
     295A      1.308517   296A      1.315660   297A      1.323195  
     298A      1.328107   299A      1.335779   300A      1.343689  
     301A      1.347253   302A      1.348421   303A      1.352247  
     304A      1.371544   305A      1.374219   306A      1.380928  
     307A      1.391132   308A      1.395688   309A      1.399771  
     310A      1.415397   311A      1.420369   312A      1.426235  
     313A      1.429504   314A      1.436683   315A      1.443109  
     316A      1.448636   317A      1.453537   318A      1.462042  
     319A      1.465922   320A      1.477675   321A      1.484739  
     322A      1.488676   323A      1.500963   324A      1.504025  
     325A      1.521721   326A      1.530283   327A      1.533529  
     328A      1.540276   329A      1.548281   330A      1.549890  
     331A      1.556354   332A      1.572020   333A      1.576947  
     334A      1.580164   335A      1.590630   336A      1.595739  
     337A      1.597241   338A      1.616635   339A      1.624742  
     340A      1.626280   341A      1.636293   342A      1.643405  
     343A      1.646804   344A      1.649083   345A      1.656335  
     346A      1.662450   347A      1.665120   348A      1.669913  
     349A      1.680482   350A      1.689594   351A      1.695044  
     352A      1.702825   353A      1.708143   354A      1.713175  
     355A      1.722051   356A      1.726249   357A      1.732813  
     358A      1.739613   359A      1.745570   360A      1.748128  
     361A      1.753462   362A      1.761085   363A      1.763510  
     364A      1.771197   365A      1.778656   366A      1.791139  
     367A      1.792706   368A      1.796791   369A      1.803608  
     370A      1.810124   371A      1.813650   372A      1.822566  
     373A      1.830516   374A      1.839479   375A      1.840407  
     376A      1.845358   377A      1.850998   378A      1.857813  
     379A      1.864246   380A      1.867440   381A      1.871542  
     382A      1.881167   383A      1.891584   384A      1.897027  
     385A      1.905037   386A      1.913457   387A      1.918120  
     388A      1.923868   389A      1.930996   390A      1.940084  
     391A      1.943332   392A      1.947881   393A      1.952489  
     394A      1.964291   395A      1.976310   396A      1.984381  
     397A      1.985523   398A      1.994067   399A      1.994976  
     400A      2.000364   401A      2.013993   402A      2.023230  
     403A      2.033275   404A      2.035320   405A      2.043207  
     406A      2.048040   407A      2.053461   408A      2.065765  
     409A      2.077656   410A      2.080411   411A      2.083992  
     412A      2.097695   413A      2.103727   414A      2.105250  
     415A      2.119834   416A      2.124733   417A      2.134674  
     418A      2.138931   419A      2.147063   420A      2.150786  
     421A      2.157718   422A      2.170530   423A      2.175841  
     424A      2.178964   425A      2.189624   426A      2.202318  
     427A      2.213121   428A      2.223293   429A      2.231839  
     430A      2.248968   431A      2.257360   432A      2.261036  
     433A      2.270920   434A      2.276576   435A      2.282439  
     436A      2.287715   437A      2.295133   438A      2.306632  
     439A      2.311472   440A      2.321050   441A      2.335171  
     442A      2.340203   443A      2.349903   444A      2.361107  
     445A      2.366079   446A      2.375547   447A      2.387765  
     448A      2.391481   449A      2.407541   450A      2.411551  
     451A      2.416927   452A      2.429734   453A      2.431367  
     454A      2.444286   455A      2.450571   456A      2.467150  
     457A      2.477417   458A      2.489829   459A      2.495826  
     460A      2.510547   461A      2.523172   462A      2.527118  
     463A      2.539373   464A      2.543011   465A      2.562912  
     466A      2.570630   467A      2.582671   468A      2.584195  
     469A      2.610257   470A      2.620571   471A      2.636173  
     472A      2.649514   473A      2.669577   474A      2.676194  
     475A      2.687704   476A      2.697146   477A      2.722714  
     478A      2.734002   479A      2.741569   480A      2.772387  
     481A      2.792628   482A      2.813991   483A      2.865181  
     484A      2.898238   485A      2.937718   486A      2.972526  
     487A      2.991925   488A      3.046998   489A      3.067652  
     490A      3.108993   491A      3.169334   492A      3.229277  
     493A      3.291884   494A      3.305249   495A      3.376842  
     496A      3.396621   497A      3.419821   498A      3.432025  
     499A      3.451802   500A      3.477330   501A      3.479242  
     502A      3.503321   503A      3.520818   504A      3.533976  
     505A      3.555178   506A      3.563984   507A      3.571604  
     508A      3.580312   509A      3.584649   510A      3.604303  
     511A      3.615586   512A      3.620273   513A      3.638645  
     514A      3.645605   515A      3.661317   516A      3.666005  
     517A      3.676766   518A      3.679641   519A      3.700184  
     520A      3.703710   521A      3.713599   522A      3.722845  
     523A      3.729897   524A      3.736316   525A      3.757830  
     526A      3.762702   527A      3.776382   528A      3.778367  
     529A      3.788021   530A      3.795807   531A      3.809525  
     532A      3.818161   533A      3.822746   534A      3.829667  
     535A      3.838514   536A      3.841931   537A      3.849681  
     538A      3.853692   539A      3.865593   540A      3.873775  
     541A      3.879058   542A      3.893193   543A      3.898473  
     544A      3.906700   545A      3.915933   546A      3.925599  
     547A      3.928100   548A      3.946608   549A      3.955961  
     550A      3.960830   551A      3.966355   552A      3.979421  
     553A      3.980061   554A      3.991067   555A      3.999084  
     556A      4.005444   557A      4.007985   558A      4.016787  
     559A      4.026735   560A      4.038538   561A      4.041570  
     562A      4.053129   563A      4.057622   564A      4.066160  
     565A      4.069412   566A      4.079279   567A      4.083184  
     568A      4.093397   569A      4.098508   570A      4.109344  
     571A      4.123377   572A      4.124567   573A      4.127932  
     574A      4.144311   575A      4.153681   576A      4.162359  
     577A      4.164496   578A      4.171714   579A      4.185632  
     580A      4.198747   581A      4.202148   582A      4.212185  
     583A      4.212963   584A      4.220541   585A      4.227422  
     586A      4.247424   587A      4.256549   588A      4.263232  
     589A      4.275624   590A      4.283528   591A      4.292831  
     592A      4.301832   593A      4.316632   594A      4.320311  
     595A      4.327830   596A      4.348955   597A      4.358898  
     598A      4.364037   599A      4.381107   600A      4.388585  
     601A      4.395257   602A      4.401964   603A      4.422810  
     604A      4.428869   605A      4.436388   606A      4.453356  
     607A      4.458233   608A      4.465034   609A      4.485144  
     610A      4.486614   611A      4.521976   612A      4.528169  
     613A      4.537430   614A      4.547758   615A      4.563755  
     616A      4.568698   617A      4.590050   618A      4.604464  
     619A      4.610094   620A      4.613863   621A      4.624472  
     622A      4.648361   623A      4.665289   624A      4.669474  
     625A      4.685282   626A      4.689699   627A      4.700664  
     628A      4.715659   629A      4.723260   630A      4.730737  
     631A      4.754471   632A      4.764034   633A      4.779744  
     634A      4.789890   635A      4.793730   636A      4.806882  
     637A      4.814628   638A      4.824697   639A      4.841584  
     640A      4.856355   641A      4.863891   642A      4.868407  
     643A      4.878410   644A      4.881629   645A      4.890519  
     646A      4.908026   647A      4.916731   648A      4.925046  
     649A      4.942498   650A      4.952232   651A      4.956115  
     652A      4.968389   653A      4.982821   654A      4.994835  
     655A      4.999366   656A      5.011562   657A      5.044379  
     658A      5.055291   659A      5.061270   660A      5.078673  
     661A      5.092073   662A      5.100119   663A      5.113118  
     664A      5.124192   665A      5.139178   666A      5.147823  
     667A      5.156072   668A      5.165687   669A      5.173199  
     670A      5.187274   671A      5.203022   672A      5.218090  
     673A      5.220979   674A      5.236447   675A      5.249047  
     676A      5.266874   677A      5.280387   678A      5.286927  
     679A      5.295646   680A      5.300947   681A      5.309453  
     682A      5.329170   683A      5.336239   684A      5.345596  
     685A      5.368134   686A      5.369013   687A      5.375079  
     688A      5.387542   689A      5.399729   690A      5.407386  
     691A      5.426722   692A      5.432231   693A      5.446107  
     694A      5.465119   695A      5.466428   696A      5.468741  
     697A      5.474540   698A      5.490329   699A      5.492109  
     700A      5.508075   701A      5.516397   702A      5.531730  
     703A      5.557589   704A      5.566463   705A      5.575829  
     706A      5.583686   707A      5.610744   708A      5.613155  
     709A      5.620575   710A      5.631486   711A      5.649003  
     712A      5.662236   713A      5.682803   714A      5.693423  
     715A      5.704741   716A      5.714919   717A      5.716657  
     718A      5.731529   719A      5.736866   720A      5.754982  
     721A      5.760880   722A      5.783355   723A      5.793816  
     724A      5.803417   725A      5.828824   726A      5.839171  
     727A      5.858733   728A      5.873306   729A      5.883051  
     730A      5.907959   731A      5.935293   732A      5.966837  
     733A      5.973861   734A      5.988959   735A      6.025497  
     736A      6.036955   737A      6.049928   738A      6.102461  
     739A      6.116032   740A      6.126910   741A      6.148985  
     742A      6.176374   743A      6.181764   744A      6.201676  
     745A      6.222001   746A      6.244435   747A      6.250175  
     748A      6.277529   749A      6.291594   750A      6.300177  
     751A      6.323788   752A      6.339042   753A      6.349873  
     754A      6.370253   755A      6.385088   756A      6.418565  
     757A      6.452900   758A      6.478116   759A      6.557019  
     760A      6.635523   761A      6.662257   762A      6.694967  
     763A      6.728918   764A      6.780453   765A      6.802398  
     766A      6.857518   767A      6.876986   768A      6.930496  
     769A      6.962557   770A      6.986347   771A      7.055706  
     772A      7.092159   773A      7.104478   774A      7.179372  
     775A     17.915524   776A     18.140845   777A     18.360805  
     778A     18.549251   779A     18.621762   780A     19.180263  
     781A     19.474478   782A     19.946674  

    Final Occupation by Irrep:
              A 
    DOCC [    33 ]

  Energy converged.

  @DF-RHF Final Energy:  -313.53831053399568

   => Energetics <=

    Nuclear Repulsion Energy =            400.8888213662677913
    One-Electron Energy =               -1216.9109767846960040
    Two-Electron Energy =                 502.4838448844326422
    DFT Exchange-Correlation Energy =       0.0000000000000000
    Empirical Dispersion Energy =           0.0000000000000000
    PCM Polarization Energy =               0.0000000000000000
    EFP Energy =                            0.0000000000000000
    Total Energy =                       -313.5383105339955137


  Saving occupied orbitals to File 180.

*** tstop() called on wr42 at Wed Sep 21 08:42:51 2016
Module time:
	user time   =     762.22 seconds =      12.70 minutes
	system time =       8.84 seconds =       0.15 minutes
	total time  =         73 seconds =       1.22 minutes
Total time:
	user time   =     762.22 seconds =      12.70 minutes
	system time =       8.84 seconds =       0.15 minutes
	total time  =         73 seconds =       1.22 minutes


Properties will be evaluated at   0.000000,   0.000000,   0.000000 Bohr

Properties computed using the SCF density matrix

  Nuclear Dipole Moment: (a.u.)
     X:     1.3982      Y:     1.9735      Z:     0.1998

  Electronic Dipole Moment: (a.u.)
     X:    -1.4343      Y:    -2.0049      Z:    -0.2081

  Dipole Moment: (a.u.)
     X:    -0.0361      Y:    -0.0314      Z:    -0.0084     Total:     0.0486

  Dipole Moment: (Debye)
     X:    -0.0918      Y:    -0.0799      Z:    -0.0213     Total:     0.1235


  //>>>>>>>>>>>>>>>>>>>>>>>>>>>>>>>>>>>//
  //               DFMP2               //
  //<<<<<<<<<<<<<<<<<<<<<<<<<<<<<<<<<<<//


*** tstart() called on wr42
*** at Wed Sep 21 08:42:51 2016


*** tstop() called on wr42 at Wed Sep 21 08:42:51 2016
Module time:
	user time   =       4.48 seconds =       0.07 minutes
	system time =       0.24 seconds =       0.00 minutes
	total time  =          0 seconds =       0.00 minutes
Total time:
	user time   =     767.23 seconds =      12.79 minutes
	system time =       9.11 seconds =       0.15 minutes
	total time  =         73 seconds =       1.22 minutes
	 --------------------------------------------------------
	                          DF-MP2                         
	      2nd-Order Density-Fitted Moller-Plesset Theory     
	              RMP2 Wavefunction,  12 Threads             
	                                                         
	        Rob Parrish, Justin Turney, Andy Simmonett,      
	           Ed Hohenstein, and C. David Sherrill          
	 --------------------------------------------------------

   => Auxiliary Basis Set <=

  Basis Set: 
    Number of shells: 476
    Number of basis function: 1676
    Number of Cartesian functions: 2078
    Spherical Harmonics?: true
    Max angular momentum: 4

	 --------------------------------------------------------
	                 NBF =   782, NAUX =  1676
	 --------------------------------------------------------
	   CLASS    FOCC     OCC    AOCC    AVIR     VIR    FVIR
	   PAIRS       8      33      25     749     749       0
	 --------------------------------------------------------

DGAS Warning! /src/lib/libfock/apps.cc:80 is not currently checking restricted

         ------------------------------------------------------------
                                     CPHF                           
                                  Rob Parrish                       
         ------------------------------------------------------------

  ==> Geometry <==

    Molecular point group: c1
    Full point group: C1

    Geometry (in Angstrom), charge = 0, multiplicity = 1:

       Center              X                  Y                   Z               Mass       
    ------------   -----------------  -----------------  -----------------  -----------------
           C         -1.580626269528     1.875167976538    -0.153122527384    12.000000000000
           H         -2.040785857989     2.661807029505    -0.751698433282     1.007825032070
           H         -0.619203250047     1.634405698843    -0.603607266406     1.007825032070
           H         -1.387172217083     2.283504616062     0.840087495293     1.007825032070
           C          3.430625704570     0.673443243928     0.361858210385    12.000000000000
           H          3.794883554014    -0.083720361660     1.057319859925     1.007825032070
           H          3.027792948399     1.498421666548     0.950850252953     1.007825032070
           H          4.284098015366     1.049348924012    -0.201888357388     1.007825032070
           C         -2.494496986073     0.655529714507    -0.055472541211    12.000000000000
           H         -2.708104483612     0.269882412752    -1.056818878091     1.007825032070
           H         -3.452428461893     0.983842931270     0.352996181620     1.007825032070
           C          2.360777900932     0.093676965225    -0.554957423470    12.000000000000
           H          2.025023934988     0.859175938965    -1.260424331004     1.007825032070
           H          2.785194798734    -0.714923242199    -1.156101083804     1.007825032070
           C         -1.942708778421    -0.481630911627     0.815159857178    12.000000000000
           H         -2.775148425916    -0.994597784262     1.302107731966     1.007825032070
           H         -1.337688066588    -0.058898711671     1.621991088646     1.007825032070
           C         -1.142659484652    -1.537419746076     0.048730564782    12.000000000000
           H         -1.814518789552    -2.017381017675    -0.668923645431     1.007825032070
           H         -0.828515674468    -2.318755413832     0.747534709674     1.007825032070
           C          0.087306499452    -1.022787992330    -0.695512671289    12.000000000000
           H          0.528108910809    -1.849816613946    -1.259962112328     1.007825032070
           H         -0.212678731524    -0.279286184449    -1.439324174363     1.007825032070
           C          1.156520854323    -0.432779628847     0.215419659330    12.000000000000
           H          0.737185538977     0.380835671677     0.813070210296     1.007825032070
           H          1.485412278944    -1.198713739768     0.925885736788     1.007825032070

  Nuclear repulsion =  400.888821366267791
  Reference energy  = -313.538310533995684

  ==> Basis Set <==

  Basis Set: AUG-CC-PVTZ
    Number of shells: 274
    Number of basis function: 782
    Number of Cartesian functions: 890
    Spherical Harmonics?: true
    Max angular momentum: 3

  ==> CGRSolver (by Rob Parrish) <==

   Number of roots    =         1
   Preconditioning    =    JACOBI
   Convergence cutoff =     1E-06
   Maximum iterations =       100

  ==> CPHFRHamiltonian (by Rob Parrish) <== 

  ==> DFJK: Density-Fitted J/K Matrices <==

    J tasked:                  Yes
    K tasked:                  Yes
    wK tasked:                  No
    OpenMP threads:             12
    Integrals threads:          12
    Memory (MB):             42915
    Algorithm:                Core
    Integral Cache:           NONE
    Schwarz Cutoff:          1E-12
    Fitting Condition:       1E-12

   => Auxiliary Basis Set <=

  Basis Set: 
    Number of shells: 492
    Number of basis function: 1660
    Number of Cartesian functions: 2038
    Spherical Harmonics?: true
    Max angular momentum: 4

  ==> CPHF Iterations <==

  => Iterations <=

             Iter  Converged  Remaining    Residual
  CGR           1          0          1   9.199E-02
  CGR           2          0          1   1.344E-02
  CGR           3          0          1   4.029E-03
  CGR           4          0          1   8.987E-04
  CGR           5          0          1   2.312E-04
  CGR           6          0          1   4.826E-05
  CGR           7          0          1   1.375E-05
  CGR           8          0          1   3.564E-06
  CGR           9          1          0   9.504E-07

    CGRSolver converged.

  ==> DFCorrGrad: Density-Fitted Correlated Gradients <==

    OpenMP threads:             12
    Integrals threads:          12
    Memory (MB):             42915
    Schwarz Cutoff:          0E+00
    Fitting Condition:       1E-12

   => Auxiliary Basis Set <=

  Basis Set: 
    Number of shells: 492
    Number of basis function: 1660
    Number of Cartesian functions: 2038
    Spherical Harmonics?: true
    Max angular momentum: 4

	-----------------------------------------------------------
	 ==================> DF-MP2 Energies <==================== 
	-----------------------------------------------------------
	 Reference Energy          =    -313.5383105339956842 [Eh]
	 Singles Energy            =      -0.0000000000000004 [Eh]
	 Same-Spin Energy          =      -0.3168897264587633 [Eh]
	 Opposite-Spin Energy      =      -1.1262848970450503 [Eh]
	 Correlation Energy        =      -1.4431746235038141 [Eh]
	 Total Energy              =    -314.9814851574994918 [Eh]
	-----------------------------------------------------------
	 ================> DF-SCS-MP2 Energies <================== 
	-----------------------------------------------------------
	 SCS Same-Spin Scale       =       0.3333333333333333 [-]
	 SCS Opposite-Spin Scale   =       1.2000000000000000 [-]
	 SCS Same-Spin Energy      =      -0.1056299088195878 [Eh]
	 SCS Opposite-Spin Energy  =      -1.3515418764540603 [Eh]
	 SCS Correlation Energy    =      -1.4571717852736485 [Eh]
	 SCS Total Energy          =    -314.9954823192693425 [Eh]
	-----------------------------------------------------------


  -Total Gradient:
     Atom            X                  Y                   Z
    ------   -----------------  -----------------  -----------------
       1        0.000000626927     0.000000886948    -0.000000135145
       2        0.000000505242    -0.000000415809     0.000000390687
       3       -0.000001113110     0.000000080805     0.000000504122
       4       -0.000000287610    -0.000000433827    -0.000000914336
       5        0.000000520036     0.000000207107     0.000000382592
       6       -0.000000272545     0.000000405810    -0.000000469523
       7        0.000000161600    -0.000000479485    -0.000000368935
       8       -0.000000415692    -0.000000180713     0.000000285136
       9       -0.000000645946    -0.000000868209    -0.000000374509
      10        0.000000229220     0.000000529497     0.000000993383
      11        0.000000654090    -0.000000380066    -0.000000469813
      12        0.000000217527     0.000000008631    -0.000001036301
      13        0.000000150273    -0.000000413357     0.000000461426
      14       -0.000000402994     0.000000436174     0.000000543851
      15        0.000000246786     0.000000245471     0.000001679431
      16        0.000000649443     0.000000626958    -0.000000208475
      17       -0.000000795264    -0.000000753111    -0.000001434115
      18       -0.000000104817    -0.000000686677    -0.000000280648
      19        0.000000691821     0.000000374385     0.000000548292
      20       -0.000000248765     0.000000700791    -0.000000784127
      21       -0.000000563609     0.000000540996    -0.000000162539
      22       -0.000000135976     0.000000299945     0.000000037581
      23        0.000000352143    -0.000000740906     0.000000742529
      24       -0.000000049710     0.000000019998     0.000001121566
      25        0.000000580327    -0.000000714690    -0.000000606459
      26       -0.000000549393     0.000000703335    -0.000000445670


			-----------------------------------------
			 OPTKING 2.0: for geometry optimizations 
			  - R.A. King,  Bethel University        
			-----------------------------------------

	Internal coordinates to be generated automatically.
	Detected frag 1 with atoms:  1 2 3 4 5 6 7 8 9 10 11 12 13 14 15 16 17 18 19 20
	 21 22 23 24 25 26
	---Fragment 1 Bond Connectivity---
	 1 : 2 3 4 9
	 2 : 1
	 3 : 1
	 4 : 1
	 5 : 6 7 8 12
	 6 : 5
	 7 : 5
	 8 : 5
	 9 : 1 10 11 15
	 10 : 9
	 11 : 9
	 12 : 5 13 14 24
	 13 : 12
	 14 : 12
	 15 : 9 16 17 18
	 16 : 15
	 17 : 15
	 18 : 15 19 20 21
	 19 : 18
	 20 : 18
	 21 : 18 22 23 24
	 22 : 21
	 23 : 21
	 24 : 12 21 25 26
	 25 : 24
	 26 : 24

	---Fragment 1 Geometry and Gradient---
	 C          -2.9869507679        3.5435539288       -0.2893596415
	 H          -3.8565263675        5.0300863044       -1.4205041734
	 H          -1.1701245632        3.0885791608       -1.1406524253
	 H          -2.6213755894        4.3151983475        1.5875352938
	 C           6.4829430461        1.2726232971        0.6838129166
	 H           7.1712906233       -0.1582085553        1.9980449701
	 H           5.7216994596        2.8316065814        1.7968465715
	 H           8.0957719755        1.9829820842       -0.3815137049
	 C          -4.7139161430        1.2387716324       -0.1048279108
	 H          -5.1175758133        0.5100038482       -1.9970982517
	 H          -6.5241442864        1.8591936979        0.6670661092
	 C           4.4612236933        0.1770238092       -1.0487175458
	 H           3.8267406497        1.6236072246       -2.3818567968
	 H           5.2632553963       -1.3510091338       -2.1847144303
	 C          -3.6711875472       -0.9101505201        1.5404288846
	 H          -5.2442705031       -1.8795174246        2.4606270089
	 H          -2.5278640971       -0.1113024346        3.0651189475
	 C          -2.1593134891       -2.9053022714        0.0920874217
	 H          -3.4289435752       -3.8122976291       -1.2640824937
	 H          -1.5656677215       -4.3818127013        1.4126358761
	 C           0.1649853736       -1.9327891975       -1.3143284707
	 H           0.9979812098       -3.4956467964       -2.3809833301
	 H          -0.4019045569       -0.5277744013       -2.7199285060
	 C           2.1855076816       -0.8178349744        0.4070841598
	 H           1.3930787778        0.7196751211        1.5364800243
	 H           2.8070224016       -2.2652406799        1.7496704729
	             0.0000006269        0.0000008869       -0.0000001351
	             0.0000005052       -0.0000004158        0.0000003907
	            -0.0000011131        0.0000000808        0.0000005041
	            -0.0000002876       -0.0000004338       -0.0000009143
	             0.0000005200        0.0000002071        0.0000003826
	            -0.0000002725        0.0000004058       -0.0000004695
	             0.0000001616       -0.0000004795       -0.0000003689
	            -0.0000004157       -0.0000001807        0.0000002851
	            -0.0000006459       -0.0000008682       -0.0000003745
	             0.0000002292        0.0000005295        0.0000009934
	             0.0000006541       -0.0000003801       -0.0000004698
	             0.0000002175        0.0000000086       -0.0000010363
	             0.0000001503       -0.0000004134        0.0000004614
	            -0.0000004030        0.0000004362        0.0000005439
	             0.0000002468        0.0000002455        0.0000016794
	             0.0000006494        0.0000006270       -0.0000002085
	            -0.0000007953       -0.0000007531       -0.0000014341
	            -0.0000001048       -0.0000006867       -0.0000002806
	             0.0000006918        0.0000003744        0.0000005483
	            -0.0000002488        0.0000007008       -0.0000007841
	            -0.0000005636        0.0000005410       -0.0000001625
	            -0.0000001360        0.0000002999        0.0000000376
	             0.0000003521       -0.0000007409        0.0000007425
	            -0.0000000497        0.0000000200        0.0000011216
	             0.0000005803       -0.0000007147       -0.0000006065
	            -0.0000005494        0.0000007033       -0.0000004457

	Previous optimization step data not found.  Starting new optimization.

	---Fragment 1 Intrafragment Coordinates---
	 - Coordinate -           - BOHR/RAD -       - ANG/DEG -
	 R(1,2)           =         2.060444	       1.090340
	 R(1,3)           =         2.057318	       1.088686
	 R(1,4)           =         2.061993	       1.091160
	 R(1,9)           =         2.885911	       1.527158
	 R(5,6)           =         2.061142	       1.090710
	 R(5,7)           =         2.061253	       1.090768
	 R(5,8)           =         2.059308	       1.089739
	 R(5,12)          =         2.879123	       1.523566
	 R(9,10)          =         2.067542	       1.094096
	 R(9,11)          =         2.063412	       1.091911
	 R(9,15)          =         2.900348	       1.534798
	 R(12,13)         =         2.066986	       1.093802
	 R(12,14)         =         2.066066	       1.093315
	 R(12,24)         =         2.878886	       1.523441
	 R(15,16)         =         2.064225	       1.092341
	 R(15,17)         =         2.066404	       1.093494
	 R(15,18)         =         2.892073	       1.530419
	 R(18,19)         =         2.067317	       1.093977
	 R(18,20)         =         2.067933	       1.094303
	 R(18,21)         =         2.885507	       1.526945
	 R(21,22)         =         2.067404	       1.094023
	 R(21,23)         =         2.066674	       1.093637
	 R(21,24)         =         2.879044	       1.523525
	 R(24,25)         =         2.065772	       1.093160
	 R(24,26)         =         2.069735	       1.095256
	 B(1,9,10)        =         1.917514	     109.865447
	 B(1,9,11)        =         1.884701	     107.985439
	 B(1,9,15)        =         1.996381	     114.384208
	 B(2,1,3)         =         1.880828	     107.763497
	 B(2,1,4)         =         1.880248	     107.730285
	 B(2,1,9)         =         1.937710	     111.022611
	 B(3,1,4)         =         1.878462	     107.627959
	 B(3,1,9)         =         1.958758	     112.228541
	 B(4,1,9)         =         1.924909	     110.289135
	 B(5,12,13)       =         1.914891	     109.715184
	 B(5,12,14)       =         1.917410	     109.859490
	 B(5,12,24)       =         1.963061	     112.475082
	 B(6,5,7)         =         1.879760	     107.702309
	 B(6,5,8)         =         1.883636	     107.924405
	 B(6,5,12)        =         1.932684	     110.734626
	 B(7,5,8)         =         1.883559	     107.919991
	 B(7,5,12)        =         1.932013	     110.696210
	 B(8,5,12)        =         1.949717	     111.710577
	 B(9,15,16)       =         1.903750	     109.076841
	 B(9,15,17)       =         1.908202	     109.331923
	 B(9,15,18)       =         1.998736	     114.519157
	 B(10,9,11)       =         1.851546	     106.085773
	 B(10,9,15)       =         1.905199	     109.159876
	 B(11,9,15)       =         1.902842	     109.024828
	 B(12,24,21)      =         1.967347	     112.720700
	 B(12,24,25)      =         1.899160	     108.813843
	 B(12,24,26)      =         1.909554	     109.409383
	 B(13,12,14)      =         1.856814	     106.387594
	 B(13,12,24)      =         1.902177	     108.986737
	 B(14,12,24)      =         1.906383	     109.227717
	 B(15,18,19)      =         1.886136	     108.067619
	 B(15,18,20)      =         1.899524	     108.834700
	 B(15,18,21)      =         2.018253	     115.637375
	 B(16,15,17)      =         1.848626	     105.918477
	 B(16,15,18)      =         1.873043	     107.317439
	 B(17,15,18)      =         1.925130	     110.301838
	 B(18,21,22)      =         1.897841	     108.738257
	 B(18,21,23)      =         1.917370	     109.857205
	 B(18,21,24)      =         1.987123	     113.853753
	 B(19,18,20)      =         1.856635	     106.377375
	 B(19,18,21)      =         1.899508	     108.833769
	 B(20,18,21)      =         1.897217	     108.702501
	 B(21,24,25)      =         1.924006	     110.237427
	 B(21,24,26)      =         1.904739	     109.133516
	 B(22,21,23)      =         1.847874	     105.875364
	 B(22,21,24)      =         1.894912	     108.570432
	 B(23,21,24)      =         1.913336	     109.626087
	 B(25,24,26)      =         1.855669	     106.322017
	 D(1,9,15,16)     =         2.571489	     147.335476
	 D(1,9,15,17)     =         0.557450	      31.939509
	 D(1,9,15,18)     =        -1.612765	     -92.404619
	 D(2,1,9,10)      =         1.029356	      58.977758
	 D(2,1,9,11)      =        -0.982656	     -56.302035
	 D(2,1,9,15)      =        -3.104342	    -177.865723
	 D(3,1,9,10)      =        -1.076793	     -61.695685
	 D(3,1,9,11)      =        -3.088805	    -176.975477
	 D(3,1,9,15)      =         1.072694	      61.460834
	 D(4,1,9,10)      =         3.112143	     178.312688
	 D(4,1,9,11)      =         1.100132	      63.032895
	 D(4,1,9,15)      =        -1.021555	     -58.530793
	 D(5,12,24,21)    =        -3.134581	    -179.598282
	 D(5,12,24,25)    =         1.008746	      57.796909
	 D(5,12,24,26)    =        -1.011899	     -57.977540
	 D(6,5,12,13)     =        -3.117795	    -178.636488
	 D(6,5,12,14)     =        -1.082374	     -62.015453
	 D(6,5,12,24)     =         1.045086	      59.879021
	 D(7,5,12,13)     =         1.081844	      61.985067
	 D(7,5,12,14)     =         3.117265	     178.606103
	 D(7,5,12,24)     =        -1.038461	     -59.499424
	 D(8,5,12,13)     =        -1.017698	     -58.309807
	 D(8,5,12,14)     =         1.017723	      58.311229
	 D(8,5,12,24)     =        -3.138002	    -179.794297
	 D(9,15,18,19)    =        -1.094514	     -62.711019
	 D(9,15,18,20)    =        -3.103878	    -177.839093
	 D(9,15,18,21)    =         1.038674	      59.511622
	 D(10,9,15,16)    =        -1.555578	     -89.128039
	 D(10,9,15,17)    =         2.713568	     155.475995
	 D(10,9,15,18)    =         0.543354	      31.131867
	 D(11,9,15,16)    =         0.459798	      26.344467
	 D(11,9,15,17)    =        -1.554242	     -89.051499
	 D(11,9,15,18)    =         2.558729	     146.604373
	 D(12,24,21,18)   =        -3.124673	    -179.030557
	 D(12,24,21,22)   =         1.041924	      59.697826
	 D(12,24,21,23)   =        -0.969131	     -55.527088
	 D(13,12,24,21)   =         1.021068	      58.502871
	 D(13,12,24,25)   =        -1.118790	     -64.101938
	 D(13,12,24,26)   =        -3.139435	    -179.876387
	 D(14,12,24,21)   =        -1.000875	     -57.345930
	 D(14,12,24,25)   =        -3.140733	    -179.950739
	 D(14,12,24,26)   =         1.121807	      64.274812
	 D(15,18,21,22)   =        -3.069157	    -175.849748
	 D(15,18,21,23)   =        -1.054280	     -60.405780
	 D(15,18,21,24)   =         1.099070	      62.972095
	 D(16,15,18,19)   =         1.021388	      58.521234
	 D(16,15,18,20)   =        -0.987976	     -56.606840
	 D(16,15,18,21)   =        -3.128610	    -179.256125
	 D(17,15,18,19)   =         3.027472	     173.461365
	 D(17,15,18,20)   =         1.018108	      58.333292
	 D(17,15,18,21)   =        -1.122526	     -64.315994
	 D(18,21,24,25)   =        -0.998805	     -57.227315
	 D(18,21,24,26)   =         1.033104	      59.192523
	 D(19,18,21,22)   =        -0.943104	     -54.035895
	 D(19,18,21,23)   =         1.071773	      61.408073
	 D(19,18,21,24)   =        -3.058062	    -175.214052
	 D(20,18,21,22)   =         1.072172	      61.430949
	 D(20,18,21,23)   =         3.087050	     176.874916
	 D(20,18,21,24)   =        -1.042786	     -59.747208
	 D(22,21,24,25)   =        -3.115394	    -178.498932
	 D(22,21,24,26)   =        -1.083485	     -62.079094
	 D(23,21,24,25)   =         1.156737	      66.276154
	 D(23,21,24,26)   =        -3.094539	    -177.304008
	 R(1,21)          =         6.401218	       3.387379
	 R(1,24)          =         6.801549	       3.599225

	Current energy   :      -314.9814851575

	Generating empirical Hessian (Schlegel '84) for each fragment.
	Taking RFO optimization step.
	Going to follow RFO solution 1.
	Using RFO vector 1.
	Norm of target step-size    0.00024
	Projected energy change by RFO approximation:        -0.0000000002

	Back-transformation to cartesian coordinates...
	Successfully converged to displaced geometry.

	--- Internal Coordinate Step in ANG or DEG, aJ/ANG or AJ/DEG ---
	 ---------------------------------------------------------------------------
	   Coordinate                Previous        Force       Change         New 
	   ----------                --------       ------       ------       ------
	    1 R(1,2)          =      1.090340     0.000006     0.000001     1.090341
	    2 R(1,3)          =      1.088686     0.000010     0.000002     1.088688
	    3 R(1,4)          =      1.091160     0.000009     0.000002     1.091161
	    4 R(1,9)          =      1.527158    -0.000001     0.000000     1.527159
	    5 R(5,6)          =      1.090710     0.000005     0.000001     1.090711
	    6 R(5,7)          =      1.090768     0.000005     0.000001     1.090769
	    7 R(5,8)          =      1.089739     0.000004     0.000001     1.089739
	    8 R(5,12)         =      1.523566     0.000001     0.000000     1.523566
	    9 R(9,10)         =      1.094096     0.000009     0.000002     1.094098
	   10 R(9,11)         =      1.091911     0.000007     0.000001     1.091912
	   11 R(9,15)         =      1.534798     0.000003     0.000001     1.534799
	   12 R(12,13)        =      1.093802     0.000005     0.000001     1.093803
	   13 R(12,14)        =      1.093315     0.000006     0.000001     1.093316
	   14 R(12,24)        =      1.523441    -0.000000    -0.000000     1.523441
	   15 R(15,16)        =      1.092341     0.000007     0.000001     1.092342
	   16 R(15,17)        =      1.093494     0.000015     0.000003     1.093497
	   17 R(15,18)        =      1.530419     0.000002     0.000001     1.530420
	   18 R(18,19)        =      1.093977     0.000008     0.000001     1.093978
	   19 R(18,20)        =      1.094303     0.000009     0.000002     1.094305
	   20 R(18,21)        =      1.526945     0.000005     0.000001     1.526946
	   21 R(21,22)        =      1.094023     0.000002     0.000000     1.094023
	   22 R(21,23)        =      1.093637     0.000009     0.000002     1.093639
	   23 R(21,24)        =      1.523525     0.000002     0.000000     1.523525
	   24 R(24,25)        =      1.093160     0.000009     0.000002     1.093161
	   25 R(24,26)        =      1.095256     0.000008     0.000001     1.095258
	   26 B(1,9,10)       =    109.865447     0.000000     0.000100   109.865547
	   27 B(1,9,11)       =    107.985439    -0.000000    -0.000158   107.985281
	   28 B(1,9,15)       =    114.384208     0.000000     0.000145   114.384353
	   29 B(2,1,3)        =    107.763497     0.000000    -0.000003   107.763494
	   30 B(2,1,4)        =    107.730285     0.000000    -0.000004   107.730281
	   31 B(2,1,9)        =    111.022611    -0.000000    -0.000176   111.022435
	   32 B(3,1,4)        =    107.627959    -0.000000    -0.000013   107.627945
	   33 B(3,1,9)        =    112.228541     0.000000     0.000127   112.228668
	   34 B(4,1,9)        =    110.289135     0.000000     0.000067   110.289202
	   35 B(5,12,13)      =    109.715184     0.000000    -0.000054   109.715130
	   36 B(5,12,14)      =    109.859490    -0.000000     0.000023   109.859513
	   37 B(5,12,24)      =    112.475082    -0.000000    -0.000017   112.475065
	   38 B(6,5,7)        =    107.702309    -0.000000    -0.000016   107.702293
	   39 B(6,5,8)        =    107.924405    -0.000000    -0.000013   107.924392
	   40 B(6,5,12)       =    110.734626     0.000000     0.000056   110.734682
	   41 B(7,5,8)        =    107.919991    -0.000000    -0.000025   107.919966
	   42 B(7,5,12)       =    110.696210     0.000000     0.000030   110.696240
	   43 B(8,5,12)       =    111.710577    -0.000000    -0.000034   111.710544
	   44 B(9,15,16)      =    109.076841     0.000000    -0.000118   109.076723
	   45 B(9,15,17)      =    109.331923    -0.000000    -0.000015   109.331907
	   46 B(9,15,18)      =    114.519157     0.000000     0.000322   114.519478
	   47 B(10,9,11)      =    106.085773     0.000000     0.000035   106.085808
	   48 B(10,9,15)      =    109.159876    -0.000000    -0.000005   109.159871
	   49 B(11,9,15)      =    109.024828    -0.000000    -0.000127   109.024701
	   50 B(12,24,21)     =    112.720700     0.000000     0.000129   112.720829
	   51 B(12,24,25)     =    108.813843    -0.000000    -0.000059   108.813784
	   52 B(12,24,26)     =    109.409383    -0.000000    -0.000042   109.409341
	   53 B(13,12,14)     =    106.387594    -0.000000    -0.000064   106.387530
	   54 B(13,12,24)     =    108.986737     0.000000    -0.000018   108.986719
	   55 B(14,12,24)     =    109.227717     0.000000     0.000126   109.227843
	   56 B(15,18,19)     =    108.067619     0.000000    -0.000083   108.067536
	   57 B(15,18,20)     =    108.834700     0.000000    -0.000090   108.834611
	   58 B(15,18,21)     =    115.637375    -0.000000     0.000126   115.637501
	   59 B(16,15,17)     =    105.918477     0.000000    -0.000059   105.918418
	   60 B(16,15,18)     =    107.317439    -0.000000    -0.000282   107.317157
	   61 B(17,15,18)     =    110.301838     0.000000     0.000116   110.301954
	   62 B(18,21,22)     =    108.738257     0.000000     0.000126   108.738383
	   63 B(18,21,23)     =    109.857205    -0.000000    -0.000120   109.857085
	   64 B(18,21,24)     =    113.853753    -0.000000    -0.000115   113.853638
	   65 B(19,18,20)     =    106.377375    -0.000000    -0.000002   106.377372
	   66 B(19,18,21)     =    108.833769     0.000000     0.000026   108.833795
	   67 B(20,18,21)     =    108.702501     0.000000     0.000014   108.702515
	   68 B(21,24,25)     =    110.237427    -0.000000    -0.000154   110.237273
	   69 B(21,24,26)     =    109.133516     0.000000     0.000083   109.133598
	   70 B(22,21,23)     =    105.875364    -0.000000     0.000072   105.875436
	   71 B(22,21,24)     =    108.570432     0.000000     0.000055   108.570487
	   72 B(23,21,24)     =    109.626087     0.000000    -0.000001   109.626086
	   73 B(25,24,26)     =    106.322017     0.000000     0.000038   106.322055
	   74 D(1,9,15,16)    =    147.335476     0.000000     0.001175   147.336651
	   75 D(1,9,15,17)    =     31.939509     0.000000     0.001319    31.940828
	   76 D(1,9,15,18)    =    -92.404619     0.000000     0.000941   -92.403678
	   77 D(2,1,9,10)     =     58.977758     0.000000     0.001072    58.978830
	   78 D(2,1,9,11)     =    -56.302035     0.000000     0.001065   -56.300969
	   79 D(2,1,9,15)     =   -177.865723     0.000000     0.001248  -177.864475
	   80 D(3,1,9,10)     =    -61.695685     0.000000     0.001112   -61.694573
	   81 D(3,1,9,11)     =   -176.975477     0.000000     0.001105  -176.974373
	   82 D(3,1,9,15)     =     61.460834     0.000000     0.001288    61.462122
	   83 D(4,1,9,10)     =    178.312688     0.000000     0.000998   178.313686
	   84 D(4,1,9,11)     =     63.032895    -0.000000     0.000991    63.033886
	   85 D(4,1,9,15)     =    -58.530793    -0.000000     0.001174   -58.529619
	   86 D(5,12,24,21)   =   -179.598282    -0.000000    -0.001069  -179.599351
	   87 D(5,12,24,25)   =     57.796909    -0.000000    -0.000918    57.795992
	   88 D(5,12,24,26)   =    -57.977540     0.000000    -0.000907   -57.978447
	   89 D(6,5,12,13)    =   -178.636488     0.000000    -0.000065  -178.636553
	   90 D(6,5,12,14)    =    -62.015453    -0.000000    -0.000160   -62.015612
	   91 D(6,5,12,24)    =     59.879021     0.000000     0.000007    59.879028
	   92 D(7,5,12,13)    =     61.985067    -0.000000    -0.000100    61.984967
	   93 D(7,5,12,14)    =    178.606103    -0.000000    -0.000195   178.605908
	   94 D(7,5,12,24)    =    -59.499424     0.000000    -0.000028   -59.499452
	   95 D(8,5,12,13)    =    -58.309807     0.000000    -0.000066   -58.309872
	   96 D(8,5,12,14)    =     58.311229    -0.000000    -0.000161    58.311068
	   97 D(8,5,12,24)    =   -179.794297     0.000000     0.000006  -179.794291
	   98 D(9,15,18,19)   =    -62.711019    -0.000000    -0.000890   -62.711910
	   99 D(9,15,18,20)   =   -177.839093    -0.000000    -0.000797  -177.839890
	  100 D(9,15,18,21)   =     59.511622    -0.000000    -0.000834    59.510788
	  101 D(10,9,15,16)   =    -89.128039     0.000000     0.001405   -89.126633
	  102 D(10,9,15,17)   =    155.475995     0.000000     0.001549   155.477545
	  103 D(10,9,15,18)   =     31.131867     0.000000     0.001171    31.133038
	  104 D(11,9,15,16)   =     26.344467     0.000000     0.001375    26.345842
	  105 D(11,9,15,17)   =    -89.051499     0.000000     0.001519   -89.049980
	  106 D(11,9,15,18)   =    146.604373     0.000000     0.001140   146.605513
	  107 D(12,24,21,18)  =   -179.030557     0.000000     0.004128  -179.026429
	  108 D(12,24,21,22)  =     59.697826     0.000000     0.004003    59.701830
	  109 D(12,24,21,23)  =    -55.527088     0.000000     0.003887   -55.523201
	  110 D(13,12,24,21)  =     58.502871    -0.000000    -0.000978    58.501893
	  111 D(13,12,24,25)  =    -64.101938     0.000000    -0.000826   -64.102764
	  112 D(13,12,24,26)  =   -179.876387     0.000000    -0.000815  -179.877202
	  113 D(14,12,24,21)  =    -57.345930    -0.000000    -0.000961   -57.346891
	  114 D(14,12,24,25)  =   -179.950739     0.000000    -0.000809  -179.951548
	  115 D(14,12,24,26)  =     64.274812     0.000000    -0.000799    64.274013
	  116 D(15,18,21,22)  =   -175.849748     0.000000     0.000209  -175.849539
	  117 D(15,18,21,23)  =    -60.405780     0.000000     0.000301   -60.405479
	  118 D(15,18,21,24)  =     62.972095     0.000000     0.000124    62.972219
	  119 D(16,15,18,19)  =     58.521234     0.000000    -0.001038    58.520196
	  120 D(16,15,18,20)  =    -56.606840     0.000000    -0.000945   -56.607784
	  121 D(16,15,18,21)  =   -179.256125    -0.000000    -0.000981  -179.257107
	  122 D(17,15,18,19)  =    173.461365    -0.000000    -0.001204   173.460161
	  123 D(17,15,18,20)  =     58.333292    -0.000000    -0.001110    58.332181
	  124 D(17,15,18,21)  =    -64.315994    -0.000000    -0.001147   -64.317141
	  125 D(18,21,24,25)  =    -57.227315     0.000000     0.004031   -57.223284
	  126 D(18,21,24,26)  =     59.192523     0.000000     0.004037    59.196560
	  127 D(19,18,21,22)  =    -54.035895    -0.000000     0.000209   -54.035686
	  128 D(19,18,21,23)  =     61.408073    -0.000000     0.000301    61.408373
	  129 D(19,18,21,24)  =   -175.214052    -0.000000     0.000124  -175.213929
	  130 D(20,18,21,22)  =     61.430949     0.000000     0.000227    61.431176
	  131 D(20,18,21,23)  =    176.874916     0.000000     0.000319   176.875236
	  132 D(20,18,21,24)  =    -59.747208     0.000000     0.000142   -59.747066
	  133 D(22,21,24,25)  =   -178.498932     0.000000     0.003906  -178.495026
	  134 D(22,21,24,26)  =    -62.079094     0.000000     0.003912   -62.075182
	  135 D(23,21,24,25)  =     66.276154     0.000000     0.003790    66.279944
	  136 D(23,21,24,26)  =   -177.304008     0.000000     0.003796  -177.300212
	  137 R(1,21)         =      3.387379     0.000003    -0.000006     3.387373
	  138 R(1,24)         =      3.599225    -0.000002    -0.000014     3.599211
	 ---------------------------------------------------------------------------

  ==> Convergence Check <==

  Measures of convergence in internal coordinates in au.
  Criteria marked as inactive (o), active & met (*), and active & unmet ( ).
  --------------------------------------------------------------------------------------------- ~
   Step     Total Energy     Delta E     MAX Force     RMS Force      MAX Disp      RMS Disp    ~
  --------------------------------------------------------------------------------------------- ~
    Convergence Criteria             o    2.00e-06 *    1.00e-06 *    6.00e-06 *    4.00e-06 *  ~
  --------------------------------------------------------------------------------------------- ~
      1    -314.98148516   -3.15e+02 o    1.79e-06 *    3.75e-07 *    7.21e-05      2.03e-05    ~
  ---------------------------------------------------------------------------------------------

	Writing optimization data to binary file.
	Structure for next step:
	Cartesian Geometry (in Angstrom)
	    C    -1.5805696474   1.8751627032  -0.1531370122
	    H    -2.0407236266   2.6618180650  -0.7516978170
	    H    -0.6191603233   1.6343805170  -0.6036447561
	    H    -1.3870842227   2.2834879737   0.8400733141
	    C     3.4305881830   0.6734816225   0.3618593360
	    H     3.7948869639  -0.0836878703   1.0572947097
	    H     3.0277332974   1.4984289387   0.9508815773
	    H     4.2840376210   1.0494362714  -0.2018907980
	    C    -2.4944711682   0.6555480015  -0.0554785883
	    H    -2.7080956334   0.2699015069  -1.0568235385
	    H    -3.4523919977   0.9838900610   0.3529954506
	    C     2.3607481497   0.0937004132  -0.5549562721
	    H     2.0249532960   0.8592083589  -1.2603955076
	    H     2.7851874695  -0.7148653724  -1.1561325719
	    C    -1.9427118182  -0.4816257760   0.8151571664
	    H    -2.7751683952  -0.9945806511   1.3020917748
	    H    -1.3376955340  -0.0589049020   1.6220013917
	    C    -1.1426721024  -1.5374322770   0.0487399382
	    H    -1.8145372993  -2.0173931218  -0.6689112520
	    H    -0.8285403175  -2.3187654777   0.7475548594
	    C     0.0873036716  -1.0228249218  -0.6955064729
	    H     0.5280960780  -1.8498637119  -1.2599497284
	    H    -0.2126717255  -0.2793224540  -1.4393237700
	    C     1.1565235083  -0.4328241291   0.2154249373
	    H     0.7371765649   0.3807559296   0.8131183619
	    H     1.4854544705  -1.1987782562   0.9258533810
			--------------------------
			 OPTKING Finished Execution 
			--------------------------

    Structure for next step:
    Molecular point group: c1
    Full point group: C1

    Geometry (in Angstrom), charge = 0, multiplicity = 1:

    C           -1.580569583449     1.875164049951    -0.153137003003
    H           -2.040723562678     2.661819411786    -0.751697807773
    H           -0.619160259321     1.634381863802    -0.603644746819
    H           -1.387084158776     2.283489320540     0.840073323307
    C            3.430588246977     0.673482969262     0.361859345228
    H            3.794887027821    -0.083686523520     1.057294718934
    H            3.027733361406     1.498430285459     0.950881586586
    H            4.284037684967     1.049437618238    -0.201890788785
    C           -2.494471104191     0.655549348257    -0.055478579028
    H           -2.708095569456     0.269902853708    -1.056823529261
    H           -3.452391933736     0.983891407805     0.352995459852
    C            2.360748213631     0.093701759968    -0.554956262824
    H            2.024953359961     0.859209705699    -1.260395498382
    H            2.785187533453    -0.714864025617    -1.156132562662
    C           -1.942711754249    -0.481624429169     0.815157175647
    H           -2.775168331251    -0.994579304263     1.302091784060
    H           -1.337695470043    -0.058903555177     1.622001400940
    C           -1.142672038421    -1.537430930196     0.048739947448
    H           -1.814537235362    -2.017391775039    -0.668911242727
    H           -0.828540253577    -2.318764130908     0.747554868655
    C            0.087303735559    -1.022823574989    -0.695506463685
    H            0.528096141951    -1.849862365104    -1.259949719187
    H           -0.212671661544    -0.279321107184    -1.439323760806
    C            1.156523572261    -0.432822782281     0.215424946519
    H            0.737176628880     0.380757276423     0.813118371119
    H            1.485454534495    -1.198776909416     0.925853390188

gradient() will perform analytic gradient computation.

*** tstart() called on wr42
*** at Wed Sep 21 08:47:09 2016


         ---------------------------------------------------------
                                   SCF
            by Justin Turney, Rob Parrish, and Andy Simmonett
                              RHF Reference
                       12 Threads,  60000 MiB Core
         ---------------------------------------------------------

  ==> Geometry <==

    Molecular point group: c1
    Full point group: C1

    Geometry (in Angstrom), charge = 0, multiplicity = 1:

       Center              X                  Y                   Z               Mass       
    ------------   -----------------  -----------------  -----------------  -----------------
           C         -1.580569583449     1.875164049951    -0.153137003003    12.000000000000
           H         -2.040723562678     2.661819411786    -0.751697807773     1.007825032070
           H         -0.619160259321     1.634381863802    -0.603644746819     1.007825032070
           H         -1.387084158776     2.283489320540     0.840073323307     1.007825032070
           C          3.430588246977     0.673482969262     0.361859345228    12.000000000000
           H          3.794887027821    -0.083686523520     1.057294718934     1.007825032070
           H          3.027733361406     1.498430285459     0.950881586586     1.007825032070
           H          4.284037684967     1.049437618238    -0.201890788785     1.007825032070
           C         -2.494471104191     0.655549348257    -0.055478579028    12.000000000000
           H         -2.708095569456     0.269902853708    -1.056823529261     1.007825032070
           H         -3.452391933736     0.983891407805     0.352995459852     1.007825032070
           C          2.360748213631     0.093701759968    -0.554956262824    12.000000000000
           H          2.024953359961     0.859209705699    -1.260395498382     1.007825032070
           H          2.785187533453    -0.714864025617    -1.156132562662     1.007825032070
           C         -1.942711754249    -0.481624429169     0.815157175647    12.000000000000
           H         -2.775168331251    -0.994579304263     1.302091784060     1.007825032070
           H         -1.337695470043    -0.058903555177     1.622001400940     1.007825032070
           C         -1.142672038421    -1.537430930196     0.048739947448    12.000000000000
           H         -1.814537235362    -2.017391775039    -0.668911242727     1.007825032070
           H         -0.828540253577    -2.318764130908     0.747554868655     1.007825032070
           C          0.087303735559    -1.022823574989    -0.695506463685    12.000000000000
           H          0.528096141951    -1.849862365104    -1.259949719187     1.007825032070
           H         -0.212671661544    -0.279321107184    -1.439323760806     1.007825032070
           C          1.156523572261    -0.432822782281     0.215424946519    12.000000000000
           H          0.737176628880     0.380757276423     0.813118371119     1.007825032070
           H          1.485454534495    -1.198776909416     0.925853390188     1.007825032070

  Running in c1 symmetry.

  Rotational constants: A =      0.09730  B =      0.03210  C =      0.02709 [cm^-1]
  Rotational constants: A =   2916.93317  B =    962.40295  C =    811.98879 [MHz]
  Nuclear repulsion =  400.889144910870698

  Charge       = 0
  Multiplicity = 1
  Electrons    = 66
  Nalpha       = 33
  Nbeta        = 33

  ==> Algorithm <==

  SCF Algorithm Type is DF.
  DIIS enabled.
  MOM disabled.
  Fractional occupation disabled.
  Guess Type is READ.
  Energy threshold   = 1.00e-10
  Density threshold  = 1.00e-10
  Integral threshold = 0.00e+00

  ==> Primary Basis <==

  Basis Set: AUG-CC-PVTZ
    Number of shells: 274
    Number of basis function: 782
    Number of Cartesian functions: 890
    Spherical Harmonics?: true
    Max angular momentum: 3

  ==> Pre-Iterations <==

   -------------------------------------------------------
    Irrep   Nso     Nmo     Nalpha   Nbeta   Ndocc  Nsocc
   -------------------------------------------------------
     A        782     782       0       0       0       0
   -------------------------------------------------------
    Total     782     782      33      33      33       0
   -------------------------------------------------------

  ==> Integral Setup <==

  ==> DFJK: Density-Fitted J/K Matrices <==

    J tasked:                  Yes
    K tasked:                  Yes
    wK tasked:                  No
    OpenMP threads:             12
    Integrals threads:          12
    Memory (MB):             42915
    Algorithm:                Core
    Integral Cache:           NONE
    Schwarz Cutoff:          1E-12
    Fitting Condition:       1E-12

   => Auxiliary Basis Set <=

  Basis Set: 
    Number of shells: 492
    Number of basis function: 1660
    Number of Cartesian functions: 2038
    Spherical Harmonics?: true
    Max angular momentum: 4

  Minimum eigenvalue in the overlap matrix is 1.7824503604E-06.
  Using Symmetric Orthogonalization.
  SCF Guess: Reading in previously saved MOs, projecting if necessary.

  Using orbitals from previous SCF, no projection.
  Recomputing DOCC and SOCC from number of alpha and beta electrons from previous calculation.
              A 
    DOCC [    33 ]

  ==> Iterations <==

                           Total Energy        Delta E     RMS |[F,P]|

   @DF-RHF iter   0:  -313.53827406988233   -3.13538e+02   1.39564e-07 
   @DF-RHF iter   1:  -313.53831022905825   -3.61592e-05   3.26641e-08 
   @DF-RHF iter   2:  -313.53831022962794   -5.69685e-10   1.43897e-08 DIIS
   @DF-RHF iter   3:  -313.53831022971866   -9.07221e-11   5.56330e-09 DIIS
   @DF-RHF iter   4:  -313.53831022973935   -2.06910e-11   6.30317e-10 DIIS
   @DF-RHF iter   5:  -313.53831022973947   -1.13687e-13   2.30464e-10 DIIS
   @DF-RHF iter   6:  -313.53831022973935    1.13687e-13   4.76472e-11 DIIS

  ==> Post-Iterations <==

    Orbital Energies (a.u.)
    -----------------------

    Doubly Occupied:                                                      

       1A    -11.213374     2A    -11.212729     3A    -11.211138  
       4A    -11.210080     5A    -11.209636     6A    -11.208831  
       7A    -11.207133     8A    -11.206981     9A     -1.094456  
      10A     -1.058119    11A     -1.008680    12A     -0.951021  
      13A     -0.884847    14A     -0.821874    15A     -0.795832  
      16A     -0.755472    17A     -0.655553    18A     -0.619775  
      19A     -0.614472    20A     -0.592955    21A     -0.567196  
      22A     -0.563316    23A     -0.547362    24A     -0.534763  
      25A     -0.519401    26A     -0.495246    27A     -0.490669  
      28A     -0.476491    29A     -0.467673    30A     -0.460314  
      31A     -0.442303    32A     -0.439785    33A     -0.434160  

    Virtual:                                                              

      34A      0.028885    35A      0.032496    36A      0.033999  
      37A      0.035040    38A      0.046179    39A      0.048968  
      40A      0.050868    41A      0.052618    42A      0.056618  
      43A      0.068407    44A      0.069688    45A      0.071635  
      46A      0.072050    47A      0.077870    48A      0.084835  
      49A      0.091748    50A      0.097657    51A      0.100345  
      52A      0.112907    53A      0.115915    54A      0.119318  
      55A      0.123175    56A      0.128337    57A      0.130079  
      58A      0.134302    59A      0.138230    60A      0.143201  
      61A      0.144147    62A      0.146950    63A      0.148962  
      64A      0.154901    65A      0.158957    66A      0.164417  
      67A      0.165086    68A      0.167626    69A      0.168776  
      70A      0.174939    71A      0.179716    72A      0.184371  
      73A      0.188001    74A      0.189775    75A      0.199238  
      76A      0.205176    77A      0.214261    78A      0.220368  
      79A      0.223222    80A      0.230026    81A      0.239394  
      82A      0.246614    83A      0.253013    84A      0.263994  
      85A      0.264329    86A      0.267652    87A      0.273444  
      88A      0.287373    89A      0.289765    90A      0.300158  
      91A      0.300889    92A      0.305519    93A      0.308610  
      94A      0.312110    95A      0.314712    96A      0.319070  
      97A      0.327587    98A      0.331409    99A      0.331787  
     100A      0.334067   101A      0.338994   102A      0.348091  
     103A      0.352882   104A      0.355474   105A      0.358663  
     106A      0.361484   107A      0.364281   108A      0.368960  
     109A      0.369623   110A      0.372031   111A      0.373774  
     112A      0.381811   113A      0.383444   114A      0.387220  
     115A      0.390577   116A      0.393851   117A      0.400872  
     118A      0.402608   119A      0.404513   120A      0.415208  
     121A      0.416313   122A      0.416517   123A      0.424720  
     124A      0.431588   125A      0.434324   126A      0.439802  
     127A      0.442242   128A      0.448933   129A      0.453110  
     130A      0.455007   131A      0.457150   132A      0.462845  
     133A      0.466506   134A      0.468274   135A      0.470465  
     136A      0.475312   137A      0.479162   138A      0.484182  
     139A      0.487746   140A      0.490660   141A      0.494085  
     142A      0.497275   143A      0.497913   144A      0.505316  
     145A      0.511768   146A      0.513549   147A      0.517826  
     148A      0.524279   149A      0.528077   150A      0.529698  
     151A      0.531618   152A      0.537023   153A      0.540499  
     154A      0.546919   155A      0.552664   156A      0.556658  
     157A      0.558802   158A      0.564302   159A      0.571919  
     160A      0.573899   161A      0.581021   162A      0.582997  
     163A      0.585057   164A      0.594175   165A      0.598658  
     166A      0.606350   167A      0.609898   168A      0.611675  
     169A      0.615670   170A      0.623787   171A      0.627051  
     172A      0.629668   173A      0.637918   174A      0.640562  
     175A      0.645561   176A      0.648973   177A      0.652342  
     178A      0.656694   179A      0.663182   180A      0.670655  
     181A      0.674460   182A      0.682522   183A      0.687763  
     184A      0.689063   185A      0.697037   186A      0.702693  
     187A      0.706501   188A      0.710476   189A      0.718927  
     190A      0.722565   191A      0.728104   192A      0.731890  
     193A      0.738577   194A      0.742169   195A      0.747660  
     196A      0.755818   197A      0.763105   198A      0.771060  
     199A      0.781639   200A      0.794016   201A      0.797953  
     202A      0.807643   203A      0.811984   204A      0.824615  
     205A      0.828252   206A      0.836787   207A      0.846180  
     208A      0.850929   209A      0.857509   210A      0.865176  
     211A      0.866788   212A      0.875108   213A      0.879186  
     214A      0.886438   215A      0.887395   216A      0.895629  
     217A      0.901510   218A      0.904118   219A      0.909215  
     220A      0.915304   221A      0.923601   222A      0.926786  
     223A      0.932237   224A      0.933382   225A      0.937732  
     226A      0.942954   227A      0.947750   228A      0.950202  
     229A      0.958342   230A      0.961926   231A      0.974718  
     232A      0.977087   233A      0.980730   234A      0.982587  
     235A      0.984363   236A      0.992221   237A      0.998472  
     238A      1.005516   239A      1.012518   240A      1.014127  
     241A      1.022197   242A      1.023701   243A      1.031514  
     244A      1.034380   245A      1.037758   246A      1.044778  
     247A      1.049773   248A      1.055462   249A      1.060047  
     250A      1.065277   251A      1.072539   252A      1.073758  
     253A      1.078993   254A      1.085186   255A      1.091434  
     256A      1.095420   257A      1.104141   258A      1.119799  
     259A      1.124204   260A      1.128470   261A      1.132525  
     262A      1.136691   263A      1.144875   264A      1.150491  
     265A      1.152661   266A      1.156971   267A      1.163436  
     268A      1.167466   269A      1.170314   270A      1.174555  
     271A      1.181896   272A      1.185566   273A      1.192001  
     274A      1.201731   275A      1.203727   276A      1.212311  
     277A      1.215623   278A      1.219292   279A      1.220979  
     280A      1.225501   281A      1.229369   282A      1.232273  
     283A      1.236919   284A      1.246875   285A      1.254062  
     286A      1.263928   287A      1.268491   288A      1.269305  
     289A      1.278532   290A      1.281780   291A      1.291336  
[...]
	 D(16,15,18,20)   =        -0.987988	     -56.607532
	 D(16,15,18,21)   =        -3.128621	    -179.256799
	 D(17,15,18,19)   =         3.027457	     173.460523
	 D(17,15,18,20)   =         1.018095	      58.332523
	 D(17,15,18,21)   =        -1.122539	     -64.316743
	 D(18,21,24,25)   =        -0.998796	     -57.226798
	 D(18,21,24,26)   =         1.033111	      59.192916
	 D(19,18,21,22)   =        -0.943102	     -54.035774
	 D(19,18,21,23)   =         1.071777	      61.408286
	 D(19,18,21,24)   =        -3.058059	    -175.213874
	 D(20,18,21,22)   =         1.072175	      61.431104
	 D(20,18,21,23)   =         3.087054	     176.875163
	 D(20,18,21,24)   =        -1.042782	     -59.746997
	 D(22,21,24,25)   =        -3.115384	    -178.498369
	 D(22,21,24,26)   =        -1.083477	     -62.078656
	 D(23,21,24,25)   =         1.156744	      66.276566
	 D(23,21,24,26)   =        -3.094534	    -177.303721
	 R(1,21)          =         6.401205	       3.387372
	 R(1,24)          =         6.801527	       3.599213

	Current energy   :      -314.9814851598

	Energy change for the previous step:
		Projected    :         0.0000000000
		Actual       :         0.0000000019

	Performing BFGS update.
	Previous computed or guess Hessian on step 1.
	Denominators (dg)(dq) or (dq)(dq) are very small.
	 Skipping Hessian update for step 10.
	Denominators (dg)(dq) or (dq)(dq) are very small.
	 Skipping Hessian update for step 9.
	Denominators (dg)(dq) or (dq)(dq) are very small.
	 Skipping Hessian update for step 8.
	Denominators (dg)(dq) or (dq)(dq) are very small.
	 Skipping Hessian update for step 7.
	Denominators (dg)(dq) or (dq)(dq) are very small.
	 Skipping Hessian update for step 6.
	Denominators (dg)(dq) or (dq)(dq) are very small.
	 Skipping Hessian update for step 5.
	Denominators (dg)(dq) or (dq)(dq) are very small.
	 Skipping Hessian update for step 4.
	Denominators (dg)(dq) or (dq)(dq) are very small.
	 Skipping Hessian update for step 3.
	Denominators (dg)(dq) or (dq)(dq) are very small.
	 Skipping Hessian update for step 2.
	Steps to be used in Hessian update: 1
	Taking RFO optimization step.
	Going to follow RFO solution 1.
	Using RFO vector 1.
	Norm of target step-size    0.00002
	Projected energy change by RFO approximation:        -0.0000000000

	Back-transformation to cartesian coordinates...
	Successfully converged to displaced geometry.

	--- Internal Coordinate Step in ANG or DEG, aJ/ANG or AJ/DEG ---
	 ---------------------------------------------------------------------------
	   Coordinate                Previous        Force       Change         New 
	   ----------                --------       ------       ------       ------
	    1 R(1,2)          =      1.090340    -0.000000    -0.000000     1.090340
	    2 R(1,3)          =      1.088687    -0.000000    -0.000000     1.088686
	    3 R(1,4)          =      1.091160    -0.000001    -0.000000     1.091160
	    4 R(1,9)          =      1.527158    -0.000000    -0.000000     1.527158
	    5 R(5,6)          =      1.090710     0.000000     0.000000     1.090710
	    6 R(5,7)          =      1.090769     0.000000    -0.000000     1.090769
	    7 R(5,8)          =      1.089739     0.000000    -0.000000     1.089739
	    8 R(5,12)         =      1.523567    -0.000001    -0.000000     1.523566
	    9 R(9,10)         =      1.094097    -0.000001    -0.000000     1.094097
	   10 R(9,11)         =      1.091911    -0.000001    -0.000000     1.091911
	   11 R(9,15)         =      1.534798    -0.000000    -0.000000     1.534798
	   12 R(12,13)        =      1.093803     0.000001     0.000000     1.093803
	   13 R(12,14)        =      1.093316     0.000001     0.000000     1.093316
	   14 R(12,24)        =      1.523441    -0.000001    -0.000000     1.523441
	   15 R(15,16)        =      1.092342     0.000001     0.000000     1.092342
	   16 R(15,17)        =      1.093495     0.000001     0.000000     1.093495
	   17 R(15,18)        =      1.530419     0.000001     0.000000     1.530420
	   18 R(18,19)        =      1.093977     0.000001     0.000000     1.093977
	   19 R(18,20)        =      1.094303     0.000002     0.000000     1.094304
	   20 R(18,21)        =      1.526945     0.000000     0.000000     1.526945
	   21 R(21,22)        =      1.094023     0.000002     0.000000     1.094023
	   22 R(21,23)        =      1.093637     0.000002     0.000000     1.093638
	   23 R(21,24)        =      1.523525     0.000001     0.000000     1.523525
	   24 R(24,25)        =      1.093160     0.000003     0.000000     1.093161
	   25 R(24,26)        =      1.095257     0.000002     0.000000     1.095257
	   26 B(1,9,10)       =    109.865497     0.000000    -0.000007   109.865489
	   27 B(1,9,11)       =    107.985386     0.000000     0.000047   107.985433
	   28 B(1,9,15)       =    114.384330    -0.000000    -0.000058   114.384271
	   29 B(2,1,3)        =    107.763477    -0.000000    -0.000007   107.763471
	   30 B(2,1,4)        =    107.730272     0.000000     0.000011   107.730283
	   31 B(2,1,9)        =    111.022518     0.000000     0.000010   111.022528
	   32 B(3,1,4)        =    107.627958    -0.000000    -0.000004   107.627954
	   33 B(3,1,9)        =    112.228624     0.000000     0.000001   112.228625
	   34 B(4,1,9)        =    110.289176    -0.000000    -0.000011   110.289165
	   35 B(5,12,13)      =    109.715154     0.000000    -0.000003   109.715151
	   36 B(5,12,14)      =    109.859490     0.000000    -0.000004   109.859486
	   37 B(5,12,24)      =    112.475086    -0.000000    -0.000028   112.475058
	   38 B(6,5,7)        =    107.702288    -0.000000    -0.000002   107.702286
	   39 B(6,5,8)        =    107.924384     0.000000     0.000003   107.924387
	   40 B(6,5,12)       =    110.734671     0.000000     0.000006   110.734678
	   41 B(7,5,8)        =    107.919981     0.000000     0.000000   107.919981
	   42 B(7,5,12)       =    110.696232     0.000000    -0.000001   110.696231
	   43 B(8,5,12)       =    111.710560    -0.000000    -0.000007   111.710553
	   44 B(9,15,16)      =    109.076763     0.000000     0.000017   109.076780
	   45 B(9,15,17)      =    109.331898    -0.000000    -0.000054   109.331844
	   46 B(9,15,18)      =    114.519348     0.000000    -0.000007   114.519342
	   47 B(10,9,11)      =    106.085793    -0.000000     0.000011   106.085803
	   48 B(10,9,15)      =    109.159845     0.000000    -0.000003   109.159842
	   49 B(11,9,15)      =    109.024713     0.000000     0.000017   109.024730
	   50 B(12,24,21)     =    112.720909     0.000000     0.000069   112.720977
	   51 B(12,24,25)     =    108.813875    -0.000000    -0.000011   108.813864
	   52 B(12,24,26)     =    109.409326    -0.000000    -0.000023   109.409303
	   53 B(13,12,14)     =    106.387524    -0.000000    -0.000005   106.387520
	   54 B(13,12,24)     =    108.986744     0.000000     0.000027   108.986771
	   55 B(14,12,24)     =    109.227801     0.000000     0.000014   109.227815
	   56 B(15,18,19)     =    108.067572     0.000000     0.000014   108.067586
	   57 B(15,18,20)     =    108.834608    -0.000000    -0.000011   108.834598
	   58 B(15,18,21)     =    115.637445    -0.000000    -0.000011   115.637434
	   59 B(16,15,17)     =    105.918456     0.000000     0.000002   105.918459
	   60 B(16,15,18)     =    107.317293    -0.000000    -0.000012   107.317281
	   61 B(17,15,18)     =    110.301896     0.000000     0.000055   110.301951
	   62 B(18,21,22)     =    108.738301     0.000000     0.000025   108.738326
	   63 B(18,21,23)     =    109.857169    -0.000000     0.000001   109.857170
	   64 B(18,21,24)     =    113.853572    -0.000000    -0.000055   113.853517
	   65 B(19,18,20)     =    106.377374    -0.000000    -0.000007   106.377367
	   66 B(19,18,21)     =    108.833831    -0.000000    -0.000007   108.833824
	   67 B(20,18,21)     =    108.702504     0.000000     0.000021   108.702525
	   68 B(21,24,25)     =    110.237309    -0.000000    -0.000017   110.237292
	   69 B(21,24,26)     =    109.133454    -0.000000    -0.000019   109.133436
	   70 B(22,21,23)     =    105.875436    -0.000000     0.000003   105.875439
	   71 B(22,21,24)     =    108.570457    -0.000000    -0.000011   108.570446
	   72 B(23,21,24)     =    109.626181     0.000000     0.000040   109.626221
	   73 B(25,24,26)     =    106.321999     0.000000    -0.000004   106.321995
	   74 D(1,9,15,16)    =    147.336321     0.000000     0.000052   147.336373
	   75 D(1,9,15,17)    =     31.940436     0.000000     0.000069    31.940506
	   76 D(1,9,15,18)    =    -92.403891    -0.000000     0.000044   -92.403846
	   77 D(2,1,9,10)     =     58.978126     0.000000     0.000014    58.978139
	   78 D(2,1,9,11)     =    -56.301687    -0.000000    -0.000021   -56.301708
	   79 D(2,1,9,15)     =   -177.865270    -0.000000    -0.000039  -177.865309
	   80 D(3,1,9,10)     =    -61.695284     0.000000     0.000015   -61.695269
	   81 D(3,1,9,11)     =   -176.975097    -0.000000    -0.000020  -176.975117
	   82 D(3,1,9,15)     =     61.461321    -0.000000    -0.000038    61.461283
	   83 D(4,1,9,10)     =    178.313007     0.000000     0.000026   178.313033
	   84 D(4,1,9,11)     =     63.033194     0.000000    -0.000009    63.033185
	   85 D(4,1,9,15)     =    -58.530389     0.000000    -0.000027   -58.530415
	   86 D(5,12,24,21)   =   -179.598388    -0.000000    -0.000085  -179.598473
	   87 D(5,12,24,25)   =     57.796790    -0.000000    -0.000102    57.796688
	   88 D(5,12,24,26)   =    -57.977625     0.000000    -0.000079   -57.977703
	   89 D(6,5,12,13)    =   -178.636388     0.000000    -0.000189  -178.636577
	   90 D(6,5,12,14)    =    -62.015454    -0.000000    -0.000198   -62.015652
	   91 D(6,5,12,24)    =     59.879130    -0.000000    -0.000202    59.878928
	   92 D(7,5,12,13)    =     61.985150    -0.000000    -0.000189    61.984960
	   93 D(7,5,12,14)    =    178.606084    -0.000000    -0.000199   178.605885
	   94 D(7,5,12,24)    =    -59.499332    -0.000000    -0.000203   -59.499535
	   95 D(8,5,12,13)    =    -58.309714     0.000000    -0.000184   -58.309898
	   96 D(8,5,12,14)    =     58.311220    -0.000000    -0.000194    58.311026
	   97 D(8,5,12,24)    =   -179.794195    -0.000000    -0.000198  -179.794393
	   98 D(9,15,18,19)   =    -62.711703     0.000000     0.000121   -62.711582
	   99 D(9,15,18,20)   =   -177.839704     0.000000     0.000128  -177.839576
	  100 D(9,15,18,21)   =     59.511030     0.000000     0.000116    59.511146
	  101 D(10,9,15,16)   =    -89.127065    -0.000000    -0.000002   -89.127067
	  102 D(10,9,15,17)   =    155.477050     0.000000     0.000015   155.477066
	  103 D(10,9,15,18)   =     31.132724    -0.000000    -0.000010    31.132714
	  104 D(11,9,15,16)   =     26.345384    -0.000000     0.000018    26.345402
	  105 D(11,9,15,17)   =    -89.050501     0.000000     0.000035   -89.050466
	  106 D(11,9,15,18)   =    146.605172    -0.000000     0.000010   146.605182
	  107 D(12,24,21,18)  =   -179.030141     0.000000     0.000252  -179.029889
	  108 D(12,24,21,22)  =     59.698288     0.000000     0.000264    59.698552
	  109 D(12,24,21,23)  =    -55.526777     0.000000     0.000245   -55.526533
	  110 D(13,12,24,21)  =     58.502795     0.000000    -0.000082    58.502713
	  111 D(13,12,24,25)  =    -64.102027    -0.000000    -0.000098   -64.102125
	  112 D(13,12,24,26)  =   -179.876442     0.000000    -0.000075  -179.876517
	  113 D(14,12,24,21)  =    -57.345974    -0.000000    -0.000099   -57.346072
	  114 D(14,12,24,25)  =   -179.950795    -0.000000    -0.000116  -179.950911
	  115 D(14,12,24,26)  =     64.274790    -0.000000    -0.000092    64.274697
	  116 D(15,18,21,22)  =   -175.849662    -0.000000    -0.000177  -175.849839
	  117 D(15,18,21,23)  =    -60.405603    -0.000000    -0.000159   -60.405762
	  118 D(15,18,21,24)  =     62.972237     0.000000    -0.000145    62.972092
	  119 D(16,15,18,19)  =     58.520468     0.000000     0.000130    58.520598
	  120 D(16,15,18,20)  =    -56.607532     0.000000     0.000137   -56.607396
	  121 D(16,15,18,21)  =   -179.256799     0.000000     0.000125  -179.256674
	  122 D(17,15,18,19)  =    173.460523     0.000000     0.000155   173.460678
	  123 D(17,15,18,20)  =     58.332523     0.000000     0.000161    58.332684
	  124 D(17,15,18,21)  =    -64.316743     0.000000     0.000150   -64.316594
	  125 D(18,21,24,25)  =    -57.226798     0.000000     0.000274   -57.226524
	  126 D(18,21,24,26)  =     59.192916     0.000000     0.000249    59.193164
	  127 D(19,18,21,22)  =    -54.035774    -0.000000    -0.000172   -54.035946
	  128 D(19,18,21,23)  =     61.408286     0.000000    -0.000154    61.408132
	  129 D(19,18,21,24)  =   -175.213874     0.000000    -0.000140  -175.214014
	  130 D(20,18,21,22)  =     61.431104    -0.000000    -0.000172    61.430932
	  131 D(20,18,21,23)  =    176.875163     0.000000    -0.000154   176.875010
	  132 D(20,18,21,24)  =    -59.746997     0.000000    -0.000140   -59.747137
	  133 D(22,21,24,25)  =   -178.498369     0.000000     0.000286  -178.498084
	  134 D(22,21,24,26)  =    -62.078656     0.000000     0.000260   -62.078395
	  135 D(23,21,24,25)  =     66.276566     0.000000     0.000266    66.276832
	  136 D(23,21,24,26)  =   -177.303721    -0.000000     0.000241  -177.303480
	  137 R(1,21)         =      3.387372    -0.000000    -0.000001     3.387370
	  138 R(1,24)         =      3.599213    -0.000001    -0.000003     3.599210
	 ---------------------------------------------------------------------------

  ==> Convergence Check <==

  Measures of convergence in internal coordinates in au.
  Criteria marked as inactive (o), active & met (*), and active & unmet ( ).
  ---------------------------------------------------------------------------------------------
   Step     Total Energy     Delta E     MAX Force     RMS Force      MAX Disp      RMS Disp   
  ---------------------------------------------------------------------------------------------
    Convergence Criteria             o    2.00e-06 *    1.00e-06 *    6.00e-06 *    4.00e-06 *
  ---------------------------------------------------------------------------------------------
     11    -314.98148516    1.87e-09 o    3.73e-07 *    7.21e-08 *    5.86e-06 *    1.89e-06 *  ~
  ---------------------------------------------------------------------------------------------


  **** Optimization is complete! (in 11 steps) ****

  ==> Optimization Summary <==

  Measures of convergence in internal coordinates in au.
  --------------------------------------------------------------------------------------------------------------- ~
   Step         Total Energy             Delta E       MAX Force       RMS Force        MAX Disp        RMS Disp  ~
  --------------------------------------------------------------------------------------------------------------- ~
      1    -314.981485157499   -314.981485157499      0.00000179      0.00000038      0.00007205      0.00002033  ~
      2    -314.981485166948     -0.000000009449      0.00000068      0.00000013      0.00003555      0.00001176  ~
      3    -314.981485164656      0.000000002292      0.00000268      0.00000069      0.00006079      0.00001886  ~
      4    -314.981485163157      0.000000001499      0.00000143      0.00000035      0.00003360      0.00001171  ~
      5    -314.981485163630     -0.000000000473      0.00000115      0.00000020      0.00003374      0.00000851  ~
      6    -314.981485167647     -0.000000004017      0.00000121      0.00000029      0.00002689      0.00000967  ~
      7    -314.981485160537      0.000000007109      0.00000157      0.00000040      0.00001757      0.00000628  ~
      8    -314.981485162952     -0.000000002414      0.00000113      0.00000027      0.00002373      0.00000583  ~
      9    -314.981485164839     -0.000000001887      0.00000291      0.00000066      0.00002244      0.00000616  ~
     10    -314.981485161680      0.000000003159      0.00000073      0.00000017      0.00000826      0.00000276  ~
     11    -314.981485159810      0.000000001871      0.00000037      0.00000007      0.00000586      0.00000189  ~
  --------------------------------------------------------------------------------------------------------------- ~

	Writing optimization data to binary file.
	Final energy is   -314.9814851598098
	Final (previous) structure:
	Cartesian Geometry (in Angstrom)
	    C    -1.5806116918   1.8751645321  -0.1531274998
	    H    -2.0407736034   2.6618090567  -0.7516951731
	    H    -0.6191958833   1.6343967040  -0.6036261824
	    H    -1.3871412386   2.2834972969   0.8400816181
	    C     3.4306177911   0.6734506113   0.3618621837
	    H     3.7948810959  -0.0837143124   1.0573208721
	    H     3.0277796732   1.4984241555   0.9508587797
	    H     4.2840882938   1.0493647800  -0.2018827085
	    C    -2.4944920670   0.6555340799  -0.0554699066
	    H    -2.7081113878   0.2698873073  -1.0568147033
	    H    -3.4524176056   0.9838566809   0.3530068359
	    C     2.3607738627   0.0936821298  -0.5549570522
	    H     2.0250165697   0.8591831343  -1.2604215725
	    H     2.7851966369  -0.7149129872  -1.1561054394
	    C    -1.9427102767  -0.4816320038   0.8151597372
	    H    -2.7751547523  -0.9945991947   1.3021003812
	    H    -1.3376936924  -0.0589040305   1.6219976034
	    C    -1.1426603657  -1.5374226519   0.0487330745
	    H    -1.8145214241  -2.0173887142  -0.6689168983
	    H    -0.8285143600  -2.3187543181   0.7475414092
	    C     0.0873039370  -1.0227933667  -0.6955150363
	    H     0.5281055790  -1.8498234075  -1.2599630280
	    H    -0.2126837455  -0.2792926306  -1.4393273886
	    C     1.1565184970  -0.4327840001   0.2154167148
	    H     0.7371787314   0.3808263532   0.8130722590
	    H     1.4854142051  -1.1987205908   0.9258791916
	Saving final (previous) structure.
			--------------------------
			 OPTKING Finished Execution 
			--------------------------

    Final optimized geometry and variables:
    Molecular point group: c1
    Full point group: C1

    Geometry (in Angstrom), charge = 0, multiplicity = 1:

    C           -1.580611691848     1.875164532061    -0.153127499790
    H           -2.040773603376     2.661809056696    -0.751695173082
    H           -0.619195883283     1.634396704048    -0.603626182431
    H           -1.387141238635     2.283497296902     0.840081618142
    C            3.430617791137     0.673450611336     0.361862183743
    H            3.794881095888    -0.083714312398     1.057320872051
    H            3.027779673193     1.498424155493     0.950858779741
    H            4.284088293807     1.049364780024    -0.201882708464
    C           -2.494492066959     0.655534079914    -0.055469906576
    H           -2.708111387839     0.269887307339    -1.056814703333
    H           -3.452417605629     0.983856680913     0.353006835866
    C            2.360773862708     0.093682129752    -0.554957052226
    H            2.025016569699     0.859183134265    -1.260421572477
    H            2.785196636915    -0.714912987241    -1.156105439429
    C           -1.942710276655    -0.481632003843     0.815159737159
    H           -2.775154752283    -0.994599194707     1.302100381223
    H           -1.337693692427    -0.058904030460     1.621997603368
    C           -1.142660365749    -1.537422651927     0.048733074493
    H           -1.814521424147    -2.017388714177    -0.668916898298
    H           -0.828514359954    -2.318754318140     0.747541409211
    C            0.087303937000    -1.022793366696    -0.695515036264
    H            0.528105578977    -1.849823407484    -1.259963027996
    H           -0.212683745468    -0.279292630582    -1.439327388553
    C            1.156518497011    -0.432784000097     0.215416714768
    H            0.737178731413     0.380826353176     0.813072259041
    H            1.485414205131    -1.198720590768     0.925879191581

	Cleaning optimization helper files.

*** Psi4 exiting successfully. Buy a developer a beer!
