    -----------------------------------------------------------------------
          Psi4: An Open-Source Ab Initio Electronic Structure Package
                              Psi4 1.0.0 Driver

                          Git: Rev {master} 6a9a71b dirty

    J. M. Turney, A. C. Simmonett, R. M. Parrish, E. G. Hohenstein,
    F. A. Evangelista, J. T. Fermann, B. J. Mintz, L. A. Burns, J. J. Wilke,
    M. L. Abrams, N. J. Russ, M. L. Leininger, C. L. Janssen, E. T. Seidl,
    W. D. Allen, H. F. Schaefer, R. A. King, E. F. Valeev, C. D. Sherrill,
    and T. D. Crawford, WIREs Comput. Mol. Sci. 2, 556-565 (2012)
    (doi: 10.1002/wcms.93)

                         Additional Contributions by
    A. E. DePrince, U. Bozkaya, A. Yu. Sokolov, D. G. A. Smith, R. Di Remigio,
    R. M. Richard, J. F. Gonthier, H. R. McAlexander, M. Saitow, and
    B. P. Pritchard
    -----------------------------------------------------------------------


    Psi4 started on: Tue Sep 20 22:51:59 2016

    Process ID:  11004
    PSI4DATADIR: /usr/local/hpc5/psi4conda/share/psi4
    Memory level set to 256.000 MB

  ==> Input File <==

--------------------------------------------------------------------------
memory 60 Gb

molecule molecule_55_psi {
0 1
C           -2.440094026885     1.421368812819    -0.504652099447
H           -1.417922890533     1.638677062205    -0.815409181118
H           -2.636103888382     1.985204136236     0.409115314334
H           -3.107021687979     1.797427753789    -1.280085835815
C            2.783433007808     0.974192401991     0.791213079449
H            1.952335772856     0.963030973147     1.494076914574
H            3.171663372259     1.991939583258     0.745013871877
H            3.568660887764     0.336018991499     1.198755717269
C           -2.649232498678    -0.071156846867    -0.274092546821
H           -2.409501270371    -0.620401078122    -1.186988036164
H           -3.705925673479    -0.261242565754    -0.073638016752
C            2.364976426853     0.477991758883    -0.590420794938
H            1.626963678755     1.159922310568    -1.023772553816
H            3.236374284162     0.519017120406    -1.246783542461
C           -1.825951492004    -0.618491478761     0.891934048438
H           -2.015231014024    -1.691275687039     0.990759398386
H           -2.176065884072    -0.152963406055     1.817974493973
C           -0.320050392360    -0.392229557665     0.760159455924
H            0.180131691320    -0.820438577871     1.633984071543
H           -0.109537398966     0.679270918268     0.780506508841
C            0.268951331147    -1.010967390893    -0.502554392750
H           -0.050297893614    -2.056632570222    -0.562298404178
H           -0.146802317626    -0.511461760388    -1.382635331383
C            1.793451553893    -0.947365214682    -0.591043381841
H            2.231137477391    -1.511538150673     0.238742175139
H            2.099051640863    -1.460192571227    -1.505650780438
}

set globals {
  reference rhf
  g_convergence gau_verytight
  basis aug-cc-pvtz
  freeze_core true
  scf_type df
  mp_type df
}
optimize('mp2')
--------------------------------------------------------------------------
/usr/local/hpc5/psi4conda/lib/python2.7/site-packages/v2rdm_casscf/v2rdm_casscf.so loaded.

  Memory set to  60.000 GiB by Python script.
gradient() will perform analytic gradient computation.

*** tstart() called on wr24
*** at Tue Sep 20 22:52:00 2016


         ---------------------------------------------------------
                                   SCF
            by Justin Turney, Rob Parrish, and Andy Simmonett
                              RHF Reference
                       12 Threads,  60000 MiB Core
         ---------------------------------------------------------

  ==> Geometry <==

    Molecular point group: c1
    Full point group: C1

    Geometry (in Angstrom), charge = 0, multiplicity = 1:

       Center              X                  Y                   Z               Mass       
    ------------   -----------------  -----------------  -----------------  -----------------
           C         -2.440094026885     1.421368812819    -0.504652099447    12.000000000000
           H         -1.417922890533     1.638677062205    -0.815409181118     1.007825032070
           H         -2.636103888382     1.985204136236     0.409115314334     1.007825032070
           H         -3.107021687979     1.797427753789    -1.280085835815     1.007825032070
           C          2.783433007808     0.974192401991     0.791213079449    12.000000000000
           H          1.952335772856     0.963030973147     1.494076914574     1.007825032070
           H          3.171663372259     1.991939583258     0.745013871877     1.007825032070
           H          3.568660887764     0.336018991499     1.198755717269     1.007825032070
           C         -2.649232498678    -0.071156846867    -0.274092546821    12.000000000000
           H         -2.409501270371    -0.620401078122    -1.186988036164     1.007825032070
           H         -3.705925673479    -0.261242565754    -0.073638016752     1.007825032070
           C          2.364976426853     0.477991758883    -0.590420794938    12.000000000000
           H          1.626963678755     1.159922310568    -1.023772553816     1.007825032070
           H          3.236374284162     0.519017120406    -1.246783542461     1.007825032070
           C         -1.825951492004    -0.618491478761     0.891934048438    12.000000000000
           H         -2.015231014024    -1.691275687039     0.990759398386     1.007825032070
           H         -2.176065884072    -0.152963406055     1.817974493973     1.007825032070
           C         -0.320050392360    -0.392229557665     0.760159455924    12.000000000000
           H          0.180131691320    -0.820438577871     1.633984071543     1.007825032070
           H         -0.109537398966     0.679270918268     0.780506508841     1.007825032070
           C          0.268951331147    -1.010967390893    -0.502554392750    12.000000000000
           H         -0.050297893614    -2.056632570222    -0.562298404178     1.007825032070
           H         -0.146802317626    -0.511461760388    -1.382635331383     1.007825032070
           C          1.793451553893    -0.947365214682    -0.591043381841    12.000000000000
           H          2.231137477391    -1.511538150673     0.238742175139     1.007825032070
           H          2.099051640863    -1.460192571227    -1.505650780438     1.007825032070

  Running in c1 symmetry.

  Rotational constants: A =      0.10513  B =      0.03034  C =      0.02851 [cm^-1]
  Rotational constants: A =   3151.73941  B =    909.42161  C =    854.62046 [MHz]
  Nuclear repulsion =  401.832560445195668

  Charge       = 0
  Multiplicity = 1
  Electrons    = 66
  Nalpha       = 33
  Nbeta        = 33

  ==> Algorithm <==

  SCF Algorithm Type is DF.
  DIIS enabled.
  MOM disabled.
  Fractional occupation disabled.
  Guess Type is SAD.
  Energy threshold   = 1.00e-10
  Density threshold  = 1.00e-10
  Integral threshold = 0.00e+00

  ==> Primary Basis <==

  Basis Set: AUG-CC-PVTZ
    Number of shells: 274
    Number of basis function: 782
    Number of Cartesian functions: 890
    Spherical Harmonics?: true
    Max angular momentum: 3

  ==> Pre-Iterations <==

   -------------------------------------------------------
    Irrep   Nso     Nmo     Nalpha   Nbeta   Ndocc  Nsocc
   -------------------------------------------------------
     A        782     782       0       0       0       0
   -------------------------------------------------------
    Total     782     782      33      33      33       0
   -------------------------------------------------------

  ==> Integral Setup <==

  ==> DFJK: Density-Fitted J/K Matrices <==

    J tasked:                  Yes
    K tasked:                  Yes
    wK tasked:                  No
    OpenMP threads:             12
    Integrals threads:          12
    Memory (MB):             42915
    Algorithm:                Core
    Integral Cache:           NONE
    Schwarz Cutoff:          1E-12
    Fitting Condition:       1E-12

   => Auxiliary Basis Set <=

  Basis Set: 
    Number of shells: 492
    Number of basis function: 1660
    Number of Cartesian functions: 2038
    Spherical Harmonics?: true
    Max angular momentum: 4

  Minimum eigenvalue in the overlap matrix is 1.8072582847E-06.
  Using Symmetric Orthogonalization.
  SCF Guess: Superposition of Atomic Densities via on-the-fly atomic UHF.

  ==> Iterations <==

                           Total Energy        Delta E     RMS |[F,P]|

   @DF-RHF iter   0:  -317.20003359395741   -3.17200e+02   7.14126e-03 
   @DF-RHF iter   1:  -313.33532862680056    3.86470e+00   6.04119e-04 
   @DF-RHF iter   2:  -313.51368109645000   -1.78352e-01   1.92034e-04 DIIS
   @DF-RHF iter   3:  -313.53396729991152   -2.02862e-02   7.81445e-05 DIIS
   @DF-RHF iter   4:  -313.53659727053559   -2.62997e-03   1.36339e-05 DIIS
   @DF-RHF iter   5:  -313.53672174414385   -1.24474e-04   3.08530e-06 DIIS
   @DF-RHF iter   6:  -313.53672778378836   -6.03964e-06   9.16610e-07 DIIS
   @DF-RHF iter   7:  -313.53672816881340   -3.85025e-07   1.98927e-07 DIIS
   @DF-RHF iter   8:  -313.53672819496251   -2.61491e-08   4.44678e-08 DIIS
   @DF-RHF iter   9:  -313.53672819644305   -1.48054e-09   1.39539e-08 DIIS
   @DF-RHF iter  10:  -313.53672819657550   -1.32445e-10   4.16979e-09 DIIS
   @DF-RHF iter  11:  -313.53672819658709   -1.15961e-11   9.00163e-10 DIIS
   @DF-RHF iter  12:  -313.53672819658891   -1.81899e-12   2.41604e-10 DIIS
   @DF-RHF iter  13:  -313.53672819658789    1.02318e-12   6.70379e-11 DIIS

  ==> Post-Iterations <==

    Orbital Energies (a.u.)
    -----------------------

    Doubly Occupied:                                                      

       1A    -11.213098     2A    -11.212201     3A    -11.210857  
       4A    -11.210721     5A    -11.210231     6A    -11.209052  
       7A    -11.207302     8A    -11.205821     9A     -1.095078  
      10A     -1.058967    11A     -1.003766    12A     -0.950395  
      13A     -0.886602    14A     -0.835139    15A     -0.784621  
      16A     -0.752109    17A     -0.644638    18A     -0.632417  
      19A     -0.610491    20A     -0.599316    21A     -0.576724  
      22A     -0.552375    23A     -0.545666    24A     -0.533609  
      25A     -0.521329    26A     -0.498678    27A     -0.488933  
      28A     -0.472065    29A     -0.469649    30A     -0.461428  
      31A     -0.445972    32A     -0.436474    33A     -0.431345  

    Virtual:                                                              

      34A      0.029283    35A      0.032818    36A      0.033886  
      37A      0.035367    38A      0.046666    39A      0.048776  
      40A      0.049522    41A      0.053570    42A      0.054159  
      43A      0.068856    44A      0.070495    45A      0.071129  
      46A      0.072798    47A      0.077738    48A      0.083892  
      49A      0.090883    50A      0.097667    51A      0.103195  
      52A      0.114329    53A      0.117008    54A      0.121906  
      55A      0.123145    56A      0.129025    57A      0.131811  
      58A      0.133696    59A      0.137945    60A      0.138209  
      61A      0.144635    62A      0.145868    63A      0.150208  
      64A      0.150815    65A      0.155392    66A      0.160484  
      67A      0.162898    68A      0.170818    69A      0.173301  
      70A      0.176316    71A      0.180046    72A      0.182411  
      73A      0.187512    74A      0.190326    75A      0.196107  
      76A      0.200781    77A      0.211191    78A      0.219093  
      79A      0.227226    80A      0.228821    81A      0.237135  
      82A      0.244200    83A      0.251219    84A      0.261990  
      85A      0.265721    86A      0.273804    87A      0.282322  
      88A      0.285240    89A      0.290799    90A      0.297475  
      91A      0.301582    92A      0.302698    93A      0.307197  
      94A      0.310489    95A      0.318425    96A      0.320104  
      97A      0.324451    98A      0.327258    99A      0.329228  
     100A      0.333745   101A      0.341372   102A      0.346655  
     103A      0.349526   104A      0.356713   105A      0.357132  
     106A      0.359108   107A      0.363561   108A      0.367465  
     109A      0.373047   110A      0.374805   111A      0.379771  
     112A      0.380579   113A      0.384497   114A      0.387665  
     115A      0.388792   116A      0.393210   117A      0.399838  
     118A      0.405316   119A      0.406289   120A      0.414919  
     121A      0.417633   122A      0.420981   123A      0.423745  
     124A      0.429824   125A      0.435085   126A      0.441059  
     127A      0.443394   128A      0.445161   129A      0.451921  
     130A      0.453474   131A      0.460278   132A      0.462856  
     133A      0.468603   134A      0.470756   135A      0.474358  
     136A      0.476662   137A      0.477914   138A      0.484603  
     139A      0.484902   140A      0.490395   141A      0.495289  
     142A      0.500441   143A      0.503124   144A      0.505978  
     145A      0.509835   146A      0.515524   147A      0.521194  
     148A      0.524898   149A      0.531228   150A      0.533797  
     151A      0.538399   152A      0.541058   153A      0.545812  
     154A      0.548550   155A      0.554397   156A      0.558341  
     157A      0.564025   158A      0.568273   159A      0.572667  
     160A      0.575237   161A      0.578738   162A      0.582364  
     163A      0.587363   164A      0.591669   165A      0.596923  
     166A      0.597711   167A      0.603536   168A      0.608301  
     169A      0.615910   170A      0.622401   171A      0.630547  
     172A      0.632031   173A      0.639479   174A      0.644641  
     175A      0.647188   176A      0.651971   177A      0.653684  
     178A      0.659565   179A      0.661480   180A      0.671678  
     181A      0.673468   182A      0.680025   183A      0.681564  
     184A      0.687324   185A      0.691275   186A      0.704688  
     187A      0.705994   188A      0.713571   189A      0.717411  
     190A      0.726021   191A      0.728348   192A      0.733969  
     193A      0.738867   194A      0.751020   195A      0.754088  
     196A      0.762482   197A      0.767547   198A      0.774625  
     199A      0.777543   200A      0.784236   201A      0.797851  
     202A      0.803050   203A      0.807564   204A      0.816038  
     205A      0.834346   206A      0.837528   207A      0.844626  
     208A      0.858435   209A      0.862263   210A      0.867401  
     211A      0.868605   212A      0.873849   213A      0.880627  
     214A      0.885989   215A      0.888139   216A      0.892762  
     217A      0.900659   218A      0.904798   219A      0.910378  
     220A      0.915644   221A      0.919786   222A      0.925862  
     223A      0.929197   224A      0.935985   225A      0.936400  
     226A      0.947019   227A      0.956141   228A      0.957090  
     229A      0.964670   230A      0.967399   231A      0.971360  
     232A      0.977508   233A      0.984279   234A      0.988555  
     235A      0.994513   236A      0.996429   237A      0.999335  
     238A      1.006722   239A      1.011917   240A      1.019088  
     241A      1.020577   242A      1.030877   243A      1.032068  
     244A      1.036695   245A      1.042618   246A      1.045071  
     247A      1.050542   248A      1.057321   249A      1.065757  
     250A      1.071845   251A      1.075451   252A      1.077899  
     253A      1.083687   254A      1.091020   255A      1.094545  
     256A      1.110034   257A      1.112063   258A      1.116159  
     259A      1.121612   260A      1.126134   261A      1.133833  
     262A      1.136869   263A      1.140191   264A      1.150641  
     265A      1.158081   266A      1.161968   267A      1.169578  
     268A      1.170311   269A      1.177107   270A      1.180318  
     271A      1.187367   272A      1.192980   273A      1.194203  
     274A      1.198931   275A      1.201984   276A      1.205551  
     277A      1.210656   278A      1.217172   279A      1.229785  
     280A      1.230801   281A      1.237482   282A      1.245687  
     283A      1.246384   284A      1.250195   285A      1.256647  
     286A      1.261528   287A      1.267692   288A      1.275643  
     289A      1.277289   290A      1.292114   291A      1.296599  
     292A      1.299999   293A      1.303621   294A      1.310533  
     295A      1.316109   296A      1.324107   297A      1.326812  
     298A      1.332294   299A      1.334275   300A      1.344539  
     301A      1.351206   302A      1.354624   303A      1.361423  
     304A      1.369481   305A      1.374315   306A      1.381651  
     307A      1.383911   308A      1.389091   309A      1.407457  
     310A      1.412461   311A      1.417536   312A      1.425880  
     313A      1.427504   314A      1.429455   315A      1.437902  
     316A      1.452290   317A      1.460562   318A      1.473298  
     319A      1.475575   320A      1.484439   321A      1.493076  
     322A      1.494485   323A      1.499828   324A      1.509970  
     325A      1.516599   326A      1.529302   327A      1.535111  
     328A      1.538638   329A      1.542923   330A      1.557214  
     331A      1.562805   332A      1.568337   333A      1.583332  
     334A      1.589661   335A      1.594938   336A      1.602672  
     337A      1.607136   338A      1.611900   339A      1.616301  
     340A      1.635001   341A      1.638669   342A      1.642454  
     343A      1.647036   344A      1.655679   345A      1.663311  
     346A      1.669202   347A      1.671708   348A      1.676771  
     349A      1.681071   350A      1.690245   351A      1.691427  
     352A      1.708100   353A      1.713503   354A      1.717086  
     355A      1.721945   356A      1.727204   357A      1.733414  
     358A      1.744550   359A      1.748442   360A      1.755052  
     361A      1.758879   362A      1.764346   363A      1.776690  
     364A      1.780329   365A      1.788513   366A      1.793262  
     367A      1.797809   368A      1.807008   369A      1.812003  
     370A      1.814312   371A      1.818740   372A      1.826285  
     373A      1.830707   374A      1.832744   375A      1.840462  
     376A      1.846063   377A      1.852006   378A      1.866424  
     379A      1.872698   380A      1.878916   381A      1.882883  
     382A      1.888116   383A      1.897043   384A      1.905605  
     385A      1.909641   386A      1.915651   387A      1.923422  
     388A      1.931293   389A      1.933209   390A      1.940885  
     391A      1.944503   392A      1.955963   393A      1.960770  
     394A      1.968118   395A      1.975159   396A      1.990339  
     397A      1.999688   398A      2.003572   399A      2.009294  
     400A      2.014033   401A      2.017209   402A      2.022281  
     403A      2.029419   404A      2.031655   405A      2.039888  
     406A      2.043597   407A      2.049337   408A      2.057362  
     409A      2.073890   410A      2.078094   411A      2.088481  
     412A      2.093042   413A      2.101587   414A      2.109983  
     415A      2.113553   416A      2.120802   417A      2.129114  
     418A      2.135495   419A      2.146889   420A      2.150278  
     421A      2.154692   422A      2.174521   423A      2.181137  
     424A      2.184792   425A      2.193576   426A      2.209465  
     427A      2.216094   428A      2.222416   429A      2.227830  
     430A      2.248709   431A      2.253524   432A      2.259614  
     433A      2.267364   434A      2.269443   435A      2.288846  
     436A      2.298785   437A      2.305502   438A      2.306370  
     439A      2.319962   440A      2.326166   441A      2.343406  
     442A      2.352473   443A      2.354568   444A      2.370026  
     445A      2.373543   446A      2.387283   447A      2.397984  
     448A      2.399765   449A      2.402621   450A      2.412058  
     451A      2.416836   452A      2.432497   453A      2.437768  
     454A      2.444944   455A      2.450324   456A      2.461764  
     457A      2.480077   458A      2.487319   459A      2.501002  
     460A      2.508584   461A      2.519427   462A      2.527468  
     463A      2.539318   464A      2.552270   465A      2.558925  
     466A      2.570523   467A      2.578870   468A      2.588914  
     469A      2.597961   470A      2.611022   471A      2.621823  
     472A      2.631925   473A      2.647754   474A      2.658055  
     475A      2.673521   476A      2.700166   477A      2.711299  
     478A      2.726632   479A      2.737642   480A      2.768727  
     481A      2.780183   482A      2.798363   483A      2.820955  
     484A      2.877645   485A      2.911042   486A      2.932278  
     487A      3.005395   488A      3.045127   489A      3.095847  
     490A      3.137337   491A      3.209240   492A      3.235853  
     493A      3.272458   494A      3.341870   495A      3.363317  
     496A      3.422470   497A      3.429109   498A      3.448743  
     499A      3.455448   500A      3.465559   501A      3.493667  
     502A      3.510993   503A      3.522800   504A      3.537260  
     505A      3.545498   506A      3.559755   507A      3.567916  
     508A      3.591263   509A      3.597477   510A      3.608610  
     511A      3.615844   512A      3.621024   513A      3.645144  
     514A      3.650088   515A      3.661341   516A      3.669300  
     517A      3.676527   518A      3.691301   519A      3.697605  
     520A      3.705143   521A      3.715888   522A      3.723027  
     523A      3.733469   524A      3.752642   525A      3.754560  
     526A      3.760296   527A      3.767850   528A      3.777150  
     529A      3.790368   530A      3.795501   531A      3.801774  
     532A      3.815516   533A      3.831174   534A      3.836782  
     535A      3.843398   536A      3.845850   537A      3.855421  
     538A      3.868219   539A      3.871226   540A      3.876398  
     541A      3.885833   542A      3.894740   543A      3.899394  
     544A      3.904522   545A      3.920723   546A      3.923153  
     547A      3.932541   548A      3.939093   549A      3.952160  
     550A      3.962134   551A      3.969495   552A      3.974773  
     553A      3.990170   554A      3.993925   555A      4.003041  
     556A      4.006974   557A      4.013041   558A      4.032531  
     559A      4.036630   560A      4.038907   561A      4.043138  
     562A      4.044933   563A      4.049457   564A      4.060974  
     565A      4.066237   566A      4.078574   567A      4.079957  
     568A      4.087644   569A      4.094340   570A      4.104840  
     571A      4.111904   572A      4.121798   573A      4.127669  
     574A      4.144062   575A      4.150355   576A      4.161612  
     577A      4.164326   578A      4.177051   579A      4.180969  
     580A      4.188462   581A      4.201815   582A      4.202933  
     583A      4.223031   584A      4.229702   585A      4.243498  
     586A      4.247064   587A      4.255314   588A      4.270756  
     589A      4.273662   590A      4.277996   591A      4.287343  
     592A      4.299471   593A      4.300193   594A      4.310510  
     595A      4.327768   596A      4.349309   597A      4.357328  
     598A      4.363978   599A      4.372169   600A      4.380523  
     601A      4.386837   602A      4.404783   603A      4.418307  
     604A      4.422309   605A      4.436363   606A      4.442269  
     607A      4.453379   608A      4.459304   609A      4.472919  
     610A      4.479285   611A      4.502320   612A      4.515395  
     613A      4.533613   614A      4.543081   615A      4.570826  
     616A      4.574962   617A      4.588930   618A      4.615177  
     619A      4.620673   620A      4.638057   621A      4.641758  
     622A      4.647271   623A      4.669703   624A      4.682348  
     625A      4.698356   626A      4.701390   627A      4.704741  
     628A      4.711818   629A      4.736129   630A      4.737269  
     631A      4.746392   632A      4.763633   633A      4.779872  
     634A      4.789251   635A      4.803437   636A      4.810324  
     637A      4.811655   638A      4.824902   639A      4.831805  
     640A      4.844680   641A      4.864976   642A      4.871170  
     643A      4.879380   644A      4.897030   645A      4.900193  
     646A      4.902852   647A      4.918124   648A      4.930669  
     649A      4.946666   650A      4.955087   651A      4.959776  
     652A      4.972399   653A      4.985260   654A      4.991651  
     655A      4.996901   656A      5.019590   657A      5.034670  
     658A      5.039357   659A      5.056442   660A      5.075034  
     661A      5.082856   662A      5.107685   663A      5.121331  
     664A      5.131595   665A      5.140893   666A      5.143338  
     667A      5.166089   668A      5.172128   669A      5.177355  
     670A      5.188657   671A      5.199959   672A      5.208869  
     673A      5.210166   674A      5.216913   675A      5.243653  
     676A      5.267885   677A      5.271960   678A      5.275746  
     679A      5.284825   680A      5.307546   681A      5.309736  
     682A      5.328055   683A      5.333144   684A      5.350300  
     685A      5.356232   686A      5.369496   687A      5.389031  
     688A      5.393247   689A      5.401415   690A      5.409517  
     691A      5.417066   692A      5.422475   693A      5.429189  
     694A      5.446536   695A      5.452740   696A      5.474310  
     697A      5.479475   698A      5.499257   699A      5.509337  
     700A      5.512064   701A      5.526907   702A      5.528993  
     703A      5.553737   704A      5.571418   705A      5.593499  
     706A      5.600941   707A      5.622970   708A      5.626141  
     709A      5.631338   710A      5.646456   711A      5.657902  
     712A      5.661402   713A      5.683213   714A      5.691939  
     715A      5.703079   716A      5.715481   717A      5.727266  
     718A      5.734083   719A      5.741136   720A      5.744100  
     721A      5.763498   722A      5.784924   723A      5.786671  
     724A      5.816182   725A      5.828289   726A      5.845562  
     727A      5.848779   728A      5.878299   729A      5.896220  
     730A      5.919038   731A      5.959487   732A      5.980248  
     733A      6.005216   734A      6.010789   735A      6.022088  
     736A      6.051749   737A      6.069179   738A      6.077121  
     739A      6.102749   740A      6.133655   741A      6.157796  
     742A      6.164448   743A      6.179240   744A      6.185386  
     745A      6.223863   746A      6.263751   747A      6.265563  
     748A      6.298328   749A      6.305465   750A      6.320566  
     751A      6.330879   752A      6.340287   753A      6.355321  
     754A      6.364183   755A      6.384377   756A      6.415209  
     757A      6.420773   758A      6.468588   759A      6.616589  
     760A      6.656381   761A      6.672756   762A      6.707477  
     763A      6.761142   764A      6.790451   765A      6.858330  
     766A      6.863547   767A      6.914539   768A      6.931250  
     769A      6.955424   770A      7.015932   771A      7.043625  
     772A      7.067386   773A      7.079854   774A      7.164583  
     775A     17.960207   776A     18.093895   777A     18.329042  
     778A     18.609967   779A     18.905129   780A     19.251958  
     781A     19.336652   782A     19.919033  

    Final Occupation by Irrep:
              A 
    DOCC [    33 ]

  Energy converged.

  @DF-RHF Final Energy:  -313.53672819658789

   => Energetics <=

    Nuclear Repulsion Energy =            401.8325604451956679
    One-Electron Energy =               -1218.8044391908356374
    Two-Electron Energy =                 503.4351505490521390
    DFT Exchange-Correlation Energy =       0.0000000000000000
    Empirical Dispersion Energy =           0.0000000000000000
    PCM Polarization Energy =               0.0000000000000000
    EFP Energy =                            0.0000000000000000
    Total Energy =                       -313.5367281965878306


  Saving occupied orbitals to File 180.

*** tstop() called on wr24 at Tue Sep 20 22:53:14 2016
Module time:
	user time   =     784.11 seconds =      13.07 minutes
	system time =       7.68 seconds =       0.13 minutes
	total time  =         74 seconds =       1.23 minutes
Total time:
	user time   =     784.11 seconds =      13.07 minutes
	system time =       7.68 seconds =       0.13 minutes
	total time  =         74 seconds =       1.23 minutes


Properties will be evaluated at   0.000000,   0.000000,   0.000000 Bohr

Properties computed using the SCF density matrix

  Nuclear Dipole Moment: (a.u.)
     X:     0.2737      Y:     1.8603      Z:     0.2172

  Electronic Dipole Moment: (a.u.)
     X:    -0.2895      Y:    -1.8935      Z:    -0.2416

  Dipole Moment: (a.u.)
     X:    -0.0159      Y:    -0.0332      Z:    -0.0245     Total:     0.0442

  Dipole Moment: (Debye)
     X:    -0.0403      Y:    -0.0843      Z:    -0.0622     Total:     0.1123


  //>>>>>>>>>>>>>>>>>>>>>>>>>>>>>>>>>>>//
  //               DFMP2               //
  //<<<<<<<<<<<<<<<<<<<<<<<<<<<<<<<<<<<//


*** tstart() called on wr24
*** at Tue Sep 20 22:53:14 2016


*** tstop() called on wr24 at Tue Sep 20 22:53:15 2016
Module time:
	user time   =       5.16 seconds =       0.09 minutes
	system time =       0.12 seconds =       0.00 minutes
	total time  =          1 seconds =       0.02 minutes
Total time:
	user time   =     790.62 seconds =      13.18 minutes
	system time =       7.83 seconds =       0.13 minutes
	total time  =         75 seconds =       1.25 minutes
	 --------------------------------------------------------
	                          DF-MP2                         
	      2nd-Order Density-Fitted Moller-Plesset Theory     
	              RMP2 Wavefunction,  12 Threads             
	                                                         
	        Rob Parrish, Justin Turney, Andy Simmonett,      
	           Ed Hohenstein, and C. David Sherrill          
	 --------------------------------------------------------

   => Auxiliary Basis Set <=

  Basis Set: 
    Number of shells: 476
    Number of basis function: 1676
    Number of Cartesian functions: 2078
    Spherical Harmonics?: true
    Max angular momentum: 4

	 --------------------------------------------------------
	                 NBF =   782, NAUX =  1676
	 --------------------------------------------------------
	   CLASS    FOCC     OCC    AOCC    AVIR     VIR    FVIR
	   PAIRS       8      33      25     749     749       0
	 --------------------------------------------------------

DGAS Warning! /src/lib/libfock/apps.cc:80 is not currently checking restricted

         ------------------------------------------------------------
                                     CPHF                           
                                  Rob Parrish                       
         ------------------------------------------------------------

  ==> Geometry <==

    Molecular point group: c1
    Full point group: C1

    Geometry (in Angstrom), charge = 0, multiplicity = 1:

       Center              X                  Y                   Z               Mass       
    ------------   -----------------  -----------------  -----------------  -----------------
           C         -2.440094026885     1.421368812819    -0.504652099447    12.000000000000
           H         -1.417922890533     1.638677062205    -0.815409181118     1.007825032070
           H         -2.636103888382     1.985204136236     0.409115314334     1.007825032070
           H         -3.107021687979     1.797427753789    -1.280085835815     1.007825032070
           C          2.783433007808     0.974192401991     0.791213079449    12.000000000000
           H          1.952335772856     0.963030973147     1.494076914574     1.007825032070
           H          3.171663372259     1.991939583258     0.745013871877     1.007825032070
           H          3.568660887764     0.336018991499     1.198755717269     1.007825032070
           C         -2.649232498678    -0.071156846867    -0.274092546821    12.000000000000
           H         -2.409501270371    -0.620401078122    -1.186988036164     1.007825032070
           H         -3.705925673479    -0.261242565754    -0.073638016752     1.007825032070
           C          2.364976426853     0.477991758883    -0.590420794938    12.000000000000
           H          1.626963678755     1.159922310568    -1.023772553816     1.007825032070
           H          3.236374284162     0.519017120406    -1.246783542461     1.007825032070
           C         -1.825951492004    -0.618491478761     0.891934048438    12.000000000000
           H         -2.015231014024    -1.691275687039     0.990759398386     1.007825032070
           H         -2.176065884072    -0.152963406055     1.817974493973     1.007825032070
           C         -0.320050392360    -0.392229557665     0.760159455924    12.000000000000
           H          0.180131691320    -0.820438577871     1.633984071543     1.007825032070
           H         -0.109537398966     0.679270918268     0.780506508841     1.007825032070
           C          0.268951331147    -1.010967390893    -0.502554392750    12.000000000000
           H         -0.050297893614    -2.056632570222    -0.562298404178     1.007825032070
           H         -0.146802317626    -0.511461760388    -1.382635331383     1.007825032070
           C          1.793451553893    -0.947365214682    -0.591043381841    12.000000000000
           H          2.231137477391    -1.511538150673     0.238742175139     1.007825032070
           H          2.099051640863    -1.460192571227    -1.505650780438     1.007825032070

  Nuclear repulsion =  401.832560445195668
  Reference energy  = -313.536728196587887

  ==> Basis Set <==

  Basis Set: AUG-CC-PVTZ
    Number of shells: 274
    Number of basis function: 782
    Number of Cartesian functions: 890
    Spherical Harmonics?: true
    Max angular momentum: 3

  ==> CGRSolver (by Rob Parrish) <==

   Number of roots    =         1
   Preconditioning    =    JACOBI
   Convergence cutoff =     1E-06
   Maximum iterations =       100

  ==> CPHFRHamiltonian (by Rob Parrish) <== 

  ==> DFJK: Density-Fitted J/K Matrices <==

    J tasked:                  Yes
    K tasked:                  Yes
    wK tasked:                  No
    OpenMP threads:             12
    Integrals threads:          12
    Memory (MB):             42915
    Algorithm:                Core
    Integral Cache:           NONE
    Schwarz Cutoff:          1E-12
    Fitting Condition:       1E-12

   => Auxiliary Basis Set <=

  Basis Set: 
    Number of shells: 492
    Number of basis function: 1660
    Number of Cartesian functions: 2038
    Spherical Harmonics?: true
    Max angular momentum: 4

  ==> CPHF Iterations <==

  => Iterations <=

             Iter  Converged  Remaining    Residual
  CGR           1          0          1   9.318E-02
  CGR           2          0          1   1.340E-02
  CGR           3          0          1   3.810E-03
  CGR           4          0          1   8.442E-04
  CGR           5          0          1   2.053E-04
  CGR           6          0          1   4.519E-05
  CGR           7          0          1   1.277E-05
  CGR           8          0          1   3.255E-06
  CGR           9          1          0   8.429E-07

    CGRSolver converged.

  ==> DFCorrGrad: Density-Fitted Correlated Gradients <==

    OpenMP threads:             12
    Integrals threads:          12
    Memory (MB):             42915
    Schwarz Cutoff:          0E+00
    Fitting Condition:       1E-12

   => Auxiliary Basis Set <=

  Basis Set: 
    Number of shells: 492
    Number of basis function: 1660
    Number of Cartesian functions: 2038
    Spherical Harmonics?: true
    Max angular momentum: 4

	-----------------------------------------------------------
	 ==================> DF-MP2 Energies <==================== 
	-----------------------------------------------------------
	 Reference Energy          =    -313.5367281965878874 [Eh]
	 Singles Energy            =      -0.0000000000000001 [Eh]
	 Same-Spin Energy          =      -0.3171136522658244 [Eh]
	 Opposite-Spin Energy      =      -1.1267016644314443 [Eh]
	 Correlation Energy        =      -1.4438153166972689 [Eh]
	 Total Energy              =    -314.9805435132851699 [Eh]
	-----------------------------------------------------------
	 ================> DF-SCS-MP2 Energies <================== 
	-----------------------------------------------------------
	 SCS Same-Spin Scale       =       0.3333333333333333 [-]
	 SCS Opposite-Spin Scale   =       1.2000000000000000 [-]
	 SCS Same-Spin Energy      =      -0.1057045507552748 [Eh]
	 SCS Opposite-Spin Energy  =      -1.3520419973177331 [Eh]
	 SCS Correlation Energy    =      -1.4577465480730081 [Eh]
	 SCS Total Energy          =    -314.9944747446609199 [Eh]
	-----------------------------------------------------------


  -Total Gradient:
     Atom            X                  Y                   Z
    ------   -----------------  -----------------  -----------------
       1       -0.000000143773    -0.000000592497     0.000000057541
       2        0.000000602145     0.000000104716    -0.000000140821
       3       -0.000000116260     0.000000389923     0.000000607578
       4       -0.000000365572     0.000000133395    -0.000000363870
       5       -0.000000249073     0.000000005955    -0.000000414168
       6       -0.000000491980     0.000000007762     0.000000393908
       7        0.000000202235     0.000000534547    -0.000000068658
       8        0.000000366058    -0.000000280881     0.000000210171
       9        0.000000260177     0.000000495797     0.000000272824
      10        0.000000140940    -0.000000324089    -0.000000449046
      11       -0.000000343527     0.000000046857     0.000000128128
      12        0.000000079781    -0.000000550838     0.000000488346
      13       -0.000000547340     0.000000481367    -0.000000266861
      14        0.000000472414    -0.000000022160    -0.000000116381
      15        0.000000039544     0.000000320388    -0.000000892609
      16       -0.000000071352    -0.000000728248     0.000000010816
      17       -0.000000427012     0.000000385753     0.000000664020
      18       -0.000000189988    -0.000000658520     0.000000119154
      19        0.000000148673    -0.000000393674     0.000000376729
      20        0.000000376185     0.000000822235    -0.000000251081
      21        0.000000310935     0.000000516297     0.000000519295
      22       -0.000000027946    -0.000000321745     0.000000003801
      23       -0.000000192687    -0.000000036532    -0.000000411640
      24       -0.000000052921    -0.000000113336    -0.000000427210
      25        0.000000149973    -0.000000249387     0.000000164184
      26        0.000000070371     0.000000026915    -0.000000214150


			-----------------------------------------
			 OPTKING 2.0: for geometry optimizations 
			  - R.A. King,  Bethel University        
			-----------------------------------------

	Internal coordinates to be generated automatically.
	Detected frag 1 with atoms:  1 2 3 4 5 6 7 8 9 10 11 12 13 14 15 16 17 18 19 20
	 21 22 23 24 25 26
	---Fragment 1 Bond Connectivity---
	 1 : 2 3 4 9
	 2 : 1
	 3 : 1
	 4 : 1
	 5 : 6 7 8 12
	 6 : 5
	 7 : 5
	 8 : 5
	 9 : 1 10 11 15
	 10 : 9
	 11 : 9
	 12 : 5 13 14 24
	 13 : 12
	 14 : 12
	 15 : 9 16 17 18
	 16 : 15
	 17 : 15
	 18 : 15 19 20 21
	 19 : 18
	 20 : 18
	 21 : 18 22 23 24
	 22 : 21
	 23 : 21
	 24 : 12 21 25 26
	 25 : 24
	 26 : 24

	---Fragment 1 Geometry and Gradient---
	 C          -4.6111094493        2.6859977901       -0.9536542603
	 H          -2.6794859407        3.0966508678       -1.5409000386
	 H          -4.9815144069        3.7514921354        0.7731159009
	 H          -5.8714200792        3.3966461983       -2.4190116563
	 C           5.2599260940        1.8409568405        1.4951760329
	 H           3.6893799301        1.8198647967        2.8233961900
	 H           5.9935751593        3.7642202856        1.4078721830
	 H           6.7437917390        0.6349838694        2.2653200059
	 C          -5.0063238848       -0.1344669531       -0.5179598486
	 H          -4.5532975178       -1.1723881302       -2.2430823114
	 H          -7.0031845917       -0.4936769035       -0.1391556846
	 C           4.4691577575        0.9032735181       -1.1157336056
	 H           3.0745157810        2.1919355024       -1.9346497491
	 H           6.1158610606        0.9808002158       -2.3560794422
	 C          -3.4505482518       -1.1687795104        1.6855110801
	 H          -3.8082347110       -3.1960478637        1.8722639265
	 H          -4.1121685680       -0.2890589458        3.4354739102
	 C          -0.6048075903       -0.7412064452        1.4364931890
	 H           0.3403995644       -1.5504042210        3.0877824007
	 H          -0.2069956854        1.2836360056        1.4749435466
	 C           0.5082443589       -1.9104514981       -0.9496901692
	 H          -0.0950492440       -3.8864723137       -1.0625899889
	 H          -0.2774161760       -0.9665226546       -2.6128021180
	 C           3.3891322695       -1.7902608036       -1.1169101243
	 H           4.2162387971       -2.8563931442        0.4511573274
	 H           3.9666327400       -2.7593640609       -2.8452676268
	            -0.0000001438       -0.0000005925        0.0000000575
	             0.0000006021        0.0000001047       -0.0000001408
	            -0.0000001163        0.0000003899        0.0000006076
	            -0.0000003656        0.0000001334       -0.0000003639
	            -0.0000002491        0.0000000060       -0.0000004142
	            -0.0000004920        0.0000000078        0.0000003939
	             0.0000002022        0.0000005345       -0.0000000687
	             0.0000003661       -0.0000002809        0.0000002102
	             0.0000002602        0.0000004958        0.0000002728
	             0.0000001409       -0.0000003241       -0.0000004490
	            -0.0000003435        0.0000000469        0.0000001281
	             0.0000000798       -0.0000005508        0.0000004883
	            -0.0000005473        0.0000004814       -0.0000002669
	             0.0000004724       -0.0000000222       -0.0000001164
	             0.0000000395        0.0000003204       -0.0000008926
	            -0.0000000714       -0.0000007282        0.0000000108
	            -0.0000004270        0.0000003858        0.0000006640
	            -0.0000001900       -0.0000006585        0.0000001192
	             0.0000001487       -0.0000003937        0.0000003767
	             0.0000003762        0.0000008222       -0.0000002511
	             0.0000003109        0.0000005163        0.0000005193
	            -0.0000000279       -0.0000003217        0.0000000038
	            -0.0000001927       -0.0000000365       -0.0000004116
	            -0.0000000529       -0.0000001133       -0.0000004272
	             0.0000001500       -0.0000002494        0.0000001642
	             0.0000000704        0.0000000269       -0.0000002142

	Previous optimization step data not found.  Starting new optimization.

	---Fragment 1 Intrafragment Coordinates---
	 - Coordinate -           - BOHR/RAD -       - ANG/DEG -
	 R(1,2)           =         2.060258	       1.090242
	 R(1,3)           =         2.062574	       1.091467
	 R(1,4)           =         2.059290	       1.089729
	 R(1,9)           =         2.881153	       1.524641
	 R(5,6)           =         2.056995	       1.088515
	 R(5,7)           =         2.060293	       1.090260
	 R(5,8)           =         2.061395	       1.090843
	 R(5,12)          =         2.884686	       1.526510
	 R(9,10)          =         2.063628	       1.092025
	 R(9,11)          =         2.063971	       1.092207
	 R(9,15)          =         2.888862	       1.528720
	 R(12,13)         =         2.067922	       1.094297
	 R(12,14)         =         2.063032	       1.091709
	 R(12,24)         =         2.901996	       1.535670
	 R(15,16)         =         2.067035	       1.093828
	 R(15,17)         =         2.067370	       1.094005
	 R(15,18)         =         2.888437	       1.528495
	 R(18,19)         =         2.067601	       1.094127
	 R(18,20)         =         2.063909	       1.092174
	 R(18,21)         =         2.880953	       1.524535
	 R(21,22)         =         2.069147	       1.094945
	 R(21,23)         =         2.067415	       1.094029
	 R(21,24)         =         2.888239	       1.528390
	 R(24,25)         =         2.068714	       1.094716
	 R(24,26)         =         2.063950	       1.092195
	 B(1,9,10)        =         1.913288	     109.623331
	 B(1,9,11)        =         1.907988	     109.319676
	 B(1,9,15)        =         1.973562	     113.076766
	 B(2,1,3)         =         1.879721	     107.700057
	 B(2,1,4)         =         1.877785	     107.589167
	 B(2,1,9)         =         1.946400	     111.520501
	 B(3,1,4)         =         1.883418	     107.911903
	 B(3,1,9)         =         1.933141	     110.760807
	 B(4,1,9)         =         1.940652	     111.191173
	 B(5,12,13)       =         1.918497	     109.921761
	 B(5,12,14)       =         1.889297	     108.248727
	 B(5,12,24)       =         1.986783	     113.834306
	 B(6,5,7)         =         1.884741	     107.987724
	 B(6,5,8)         =         1.877972	     107.599850
	 B(6,5,12)        =         1.951737	     111.826314
	 B(7,5,8)         =         1.881389	     107.795638
	 B(7,5,12)        =         1.941957	     111.265921
	 B(8,5,12)        =         1.923360	     110.200426
	 B(9,15,16)       =         1.903784	     109.078796
	 B(9,15,17)       =         1.897516	     108.719662
	 B(9,15,18)       =         1.995252	     114.319502
	 B(10,9,11)       =         1.852802	     106.157761
	 B(10,9,15)       =         1.916998	     109.835922
	 B(11,9,15)       =         1.895188	     108.586252
	 B(12,24,21)      =         1.993053	     114.193543
	 B(12,24,25)      =         1.906288	     109.222280
	 B(12,24,26)      =         1.909236	     109.391150
	 B(13,12,14)      =         1.851267	     106.069812
	 B(13,12,24)      =         1.904185	     109.101771
	 B(14,12,24)      =         1.908899	     109.371836
	 B(15,18,19)      =         1.900335	     108.881181
	 B(15,18,20)      =         1.910830	     109.482494
	 B(15,18,21)      =         1.973563	     113.076855
	 B(16,15,17)      =         1.860308	     106.587784
	 B(16,15,18)      =         1.900176	     108.872048
	 B(17,15,18)      =         1.902109	     108.982821
	 B(18,21,22)      =         1.896667	     108.671027
	 B(18,21,23)      =         1.911515	     109.521731
	 B(18,21,24)      =         2.000311	     114.609395
	 B(19,18,20)      =         1.855600	     106.318053
	 B(19,18,21)      =         1.902900	     109.028126
	 B(20,18,21)      =         1.916793	     109.824145
	 B(21,24,25)      =         1.910776	     109.479387
	 B(21,24,26)      =         1.883923	     107.940860
	 B(22,21,23)      =         1.855977	     106.339665
	 B(22,21,24)      =         1.904353	     109.111417
	 B(23,21,24)      =         1.889651	     108.269024
	 B(25,24,26)      =         1.855521	     106.313501
	 D(1,9,15,16)     =        -3.129424	    -179.302764
	 D(1,9,15,17)     =         1.131648	      64.838664
	 D(1,9,15,18)     =        -0.997796	     -57.169477
	 D(2,1,9,10)      =        -1.008650	     -57.791395
	 D(2,1,9,11)      =        -3.032896	    -173.772139
	 D(2,1,9,15)      =         1.136739	      65.130336
	 D(3,1,9,10)      =        -3.101883	    -177.724797
	 D(3,1,9,11)      =         1.157057	      66.294458
	 D(3,1,9,15)      =        -0.956494	     -54.803066
	 D(4,1,9,10)      =         1.087214	      62.292789
	 D(4,1,9,11)      =        -0.937032	     -53.687955
	 D(4,1,9,15)      =        -3.050582	    -174.785480
	 D(5,12,24,21)    =         1.653525	      94.739994
	 D(5,12,24,25)    =        -0.492248	     -28.203747
	 D(5,12,24,26)    =        -2.516522	    -144.186070
	 D(6,5,12,13)     =         1.120933	      64.224718
	 D(6,5,12,14)     =         3.135690	     179.661830
	 D(6,5,12,24)     =        -1.021057	     -58.502246
	 D(7,5,12,13)     =        -0.988356	     -56.628636
	 D(7,5,12,14)     =         1.026402	      58.808475
	 D(7,5,12,24)     =        -3.130346	    -179.355601
	 D(8,5,12,13)     =        -3.074284	    -176.143485
	 D(8,5,12,14)     =        -1.059526	     -60.706373
	 D(8,5,12,24)     =         1.066912	      61.129551
	 D(9,15,18,19)    =        -3.136496	    -179.707978
	 D(9,15,18,20)    =         1.124770	      64.444576
	 D(9,15,18,21)    =        -1.018544	     -58.358256
	 D(10,9,15,16)    =        -0.986095	     -56.499055
	 D(10,9,15,17)    =        -3.008208	    -172.357626
	 D(10,9,15,18)    =         1.145533	      65.634232
	 D(11,9,15,16)    =         1.032983	      59.185538
	 D(11,9,15,17)    =        -0.989131	     -56.673034
	 D(11,9,15,18)    =        -3.118575	    -178.681175
	 D(12,24,21,18)   =        -1.062096	     -60.853590
	 D(12,24,21,22)   =         3.090079	     177.048491
	 D(12,24,21,23)   =         1.077078	      61.712018
	 D(13,12,24,21)   =        -0.496289	     -28.435241
	 D(13,12,24,25)   =        -2.642062	    -151.378982
	 D(13,12,24,26)   =         1.616850	      92.638694
	 D(14,12,24,21)   =        -2.514108	    -144.047792
	 D(14,12,24,25)   =         1.623304	      93.008467
	 D(14,12,24,26)   =        -0.400969	     -22.973857
	 D(15,18,21,22)   =        -0.888776	     -50.923136
	 D(15,18,21,23)   =         1.131923	      64.854431
	 D(15,18,21,24)   =        -3.023961	    -173.260206
	 D(16,15,18,19)   =        -1.002897	     -57.461757
	 D(16,15,18,20)   =        -3.024816	    -173.309203
	 D(16,15,18,21)   =         1.115055	      63.887965
	 D(17,15,18,19)   =         1.019761	      58.428028
	 D(17,15,18,20)   =        -1.002158	     -57.419419
	 D(17,15,18,21)   =         3.137714	     179.777749
	 D(18,21,24,25)   =         1.081239	      61.950438
	 D(18,21,24,26)   =         3.093982	     177.272128
	 D(19,18,21,22)   =         1.227728	      70.343609
	 D(19,18,21,23)   =        -3.034758	    -173.878824
	 D(19,18,21,24)   =        -0.907457	     -51.993462
	 D(20,18,21,22)   =        -3.028774	    -173.535966
	 D(20,18,21,23)   =        -1.008074	     -57.758399
	 D(20,18,21,24)   =         1.119227	      64.126963
	 D(22,21,24,25)   =        -1.049772	     -60.147481
	 D(22,21,24,26)   =         0.962972	      55.174210
	 D(23,21,24,25)   =        -3.062773	    -175.483954
	 D(23,21,24,26)   =        -1.050030	     -60.162263
	 R(1,21)          =         6.880054	       3.640768
	 R(5,18)          =         6.408285	       3.391118

	Current energy   :      -314.9805435133

	Generating empirical Hessian (Schlegel '84) for each fragment.
	Taking RFO optimization step.
	Going to follow RFO solution 1.
	Using RFO vector 1.
	Norm of target step-size    0.00043
	Projected energy change by RFO approximation:         0.0000000005

	Back-transformation to cartesian coordinates...
	Successfully converged to displaced geometry.

	--- Internal Coordinate Step in ANG or DEG, aJ/ANG or AJ/DEG ---
	 ---------------------------------------------------------------------------
	   Coordinate                Previous        Force       Change         New 
	   ----------                --------       ------       ------       ------
	    1 R(1,2)          =      1.090242    -0.000005    -0.000001     1.090241
	    2 R(1,3)          =      1.091467    -0.000006    -0.000001     1.091466
	    3 R(1,4)          =      1.089729    -0.000004    -0.000001     1.089729
	    4 R(1,9)          =      1.524641     0.000001     0.000000     1.524641
	    5 R(5,6)          =      1.088515    -0.000005    -0.000001     1.088514
	    6 R(5,7)          =      1.090260    -0.000005    -0.000001     1.090259
	    7 R(5,8)          =      1.090843    -0.000004    -0.000001     1.090843
	    8 R(5,12)         =      1.526510    -0.000001    -0.000001     1.526510
	    9 R(9,10)         =      1.092025    -0.000005    -0.000001     1.092024
	   10 R(9,11)         =      1.092207    -0.000003    -0.000001     1.092206
	   11 R(9,15)         =      1.528720     0.000001     0.000000     1.528720
	   12 R(12,13)        =      1.094297    -0.000006    -0.000001     1.094296
	   13 R(12,14)        =      1.091709    -0.000004    -0.000001     1.091709
	   14 R(12,24)        =      1.535670    -0.000002    -0.000001     1.535669
	   15 R(15,16)        =      1.093828    -0.000006    -0.000001     1.093827
	   16 R(15,17)        =      1.094005    -0.000007    -0.000001     1.094004
	   17 R(15,18)        =      1.528495    -0.000003    -0.000001     1.528495
	   18 R(18,19)        =      1.094127    -0.000004    -0.000001     1.094126
	   19 R(18,20)        =      1.092174    -0.000007    -0.000001     1.092172
	   20 R(18,21)        =      1.524535    -0.000001    -0.000000     1.524534
	   21 R(21,22)        =      1.094945    -0.000003    -0.000000     1.094945
	   22 R(21,23)        =      1.094029    -0.000003    -0.000001     1.094028
	   23 R(21,24)        =      1.528390    -0.000001    -0.000001     1.528389
	   24 R(24,25)        =      1.094716    -0.000003    -0.000000     1.094716
	   25 R(24,26)        =      1.092195    -0.000002    -0.000000     1.092195
	   26 B(1,9,10)       =    109.623331    -0.000000    -0.000042   109.623289
	   27 B(1,9,11)       =    109.319676     0.000000     0.000018   109.319694
	   28 B(1,9,15)       =    113.076766     0.000000     0.000065   113.076831
	   29 B(2,1,3)        =    107.700057     0.000000    -0.000000   107.700057
	   30 B(2,1,4)        =    107.589167    -0.000000    -0.000029   107.589137
	   31 B(2,1,9)        =    111.520501     0.000000     0.000007   111.520508
	   32 B(3,1,4)        =    107.911903    -0.000000    -0.000006   107.911898
	   33 B(3,1,9)        =    110.760807    -0.000000    -0.000012   110.760795
	   34 B(4,1,9)        =    111.191173     0.000000     0.000038   111.191212
	   35 B(5,12,13)      =    109.921761     0.000000     0.000059   109.921821
	   36 B(5,12,14)      =    108.248727     0.000000     0.000147   108.248875
	   37 B(5,12,24)      =    113.834306    -0.000000    -0.000320   113.833986
	   38 B(6,5,7)        =    107.987724    -0.000000     0.000002   107.987726
	   39 B(6,5,8)        =    107.599850    -0.000000    -0.000022   107.599828
	   40 B(6,5,12)       =    111.826314     0.000000    -0.000000   111.826313
	   41 B(7,5,8)        =    107.795638    -0.000000    -0.000001   107.795637
	   42 B(7,5,12)       =    111.265921     0.000000     0.000049   111.265970
	   43 B(8,5,12)       =    110.200426    -0.000000    -0.000030   110.200396
	   44 B(9,15,16)      =    109.078796    -0.000000    -0.000090   109.078706
	   45 B(9,15,17)      =    108.719662     0.000000     0.000111   108.719774
	   46 B(9,15,18)      =    114.319502     0.000000     0.000079   114.319581
	   47 B(10,9,11)      =    106.157761    -0.000000    -0.000048   106.157713
	   48 B(10,9,15)      =    109.835922    -0.000000    -0.000006   109.835916
	   49 B(11,9,15)      =    108.586252    -0.000000     0.000006   108.586258
	   50 B(12,24,21)     =    114.193543     0.000000    -0.000053   114.193490
	   51 B(12,24,25)     =    109.222280    -0.000000    -0.000169   109.222111
	   52 B(12,24,26)     =    109.391150     0.000000     0.000217   109.391367
	   53 B(13,12,14)     =    106.069812    -0.000000     0.000003   106.069815
	   54 B(13,12,24)     =    109.101771     0.000000     0.000048   109.101818
	   55 B(14,12,24)     =    109.371836     0.000000     0.000085   109.371922
	   56 B(15,18,19)     =    108.881181    -0.000000    -0.000114   108.881067
	   57 B(15,18,20)     =    109.482494    -0.000000     0.000031   109.482525
	   58 B(15,18,21)     =    113.076855    -0.000000    -0.000003   113.076851
	   59 B(16,15,17)     =    106.587784     0.000000    -0.000034   106.587751
	   60 B(16,15,18)     =    108.872048     0.000000    -0.000046   108.872002
	   61 B(17,15,18)     =    108.982821    -0.000000    -0.000028   108.982793
	   62 B(18,21,22)     =    108.671027     0.000000     0.000121   108.671149
	   63 B(18,21,23)     =    109.521731    -0.000000    -0.000088   109.521643
	   64 B(18,21,24)     =    114.609395     0.000000    -0.000223   114.609172
	   65 B(19,18,20)     =    106.318053    -0.000000    -0.000093   106.317959
	   66 B(19,18,21)     =    109.028126     0.000000    -0.000010   109.028116
	   67 B(20,18,21)     =    109.824145     0.000000     0.000181   109.824326
	   68 B(21,24,25)     =    109.479387    -0.000000    -0.000099   109.479287
	   69 B(21,24,26)     =    107.940860    -0.000000     0.000096   107.940957
	   70 B(22,21,23)     =    106.339665     0.000000     0.000094   106.339759
	   71 B(22,21,24)     =    109.111417    -0.000000     0.000020   109.111437
	   72 B(23,21,24)     =    108.269024     0.000000     0.000097   108.269121
	   73 B(25,24,26)     =    106.313501     0.000000     0.000017   106.313518
	   74 D(1,9,15,16)    =   -179.302764     0.000000    -0.001409  -179.304174
	   75 D(1,9,15,17)    =     64.838664     0.000000    -0.001381    64.837283
	   76 D(1,9,15,18)    =    -57.169477     0.000000    -0.001482   -57.170959
	   77 D(2,1,9,10)     =    -57.791395    -0.000000    -0.000083   -57.791478
	   78 D(2,1,9,11)     =   -173.772139     0.000000    -0.000013  -173.772152
	   79 D(2,1,9,15)     =     65.130336    -0.000000    -0.000076    65.130260
	   80 D(3,1,9,10)     =   -177.724797    -0.000000    -0.000079  -177.724877
	   81 D(3,1,9,11)     =     66.294458     0.000000    -0.000009    66.294450
	   82 D(3,1,9,15)     =    -54.803066    -0.000000    -0.000072   -54.803138
	   83 D(4,1,9,10)     =     62.292789    -0.000000    -0.000090    62.292700
	   84 D(4,1,9,11)     =    -53.687955     0.000000    -0.000019   -53.687974
	   85 D(4,1,9,15)     =   -174.785480    -0.000000    -0.000082  -174.785562
	   86 D(5,12,24,21)   =     94.739994     0.000000     0.003936    94.743930
	   87 D(5,12,24,25)   =    -28.203747     0.000000     0.004231   -28.199515
	   88 D(5,12,24,26)   =   -144.186070     0.000000     0.004185  -144.181886
	   89 D(6,5,12,13)    =     64.224718     0.000000     0.000097    64.224815
	   90 D(6,5,12,14)    =    179.661830     0.000000     0.000214   179.662044
	   91 D(6,5,12,24)    =    -58.502246     0.000000     0.000218   -58.502028
	   92 D(7,5,12,13)    =    -56.628636    -0.000000     0.000060   -56.628577
	   93 D(7,5,12,14)    =     58.808475     0.000000     0.000177    58.808653
	   94 D(7,5,12,24)    =   -179.355601    -0.000000     0.000181  -179.355419
	   95 D(8,5,12,13)    =   -176.143485    -0.000000     0.000049  -176.143436
	   96 D(8,5,12,14)    =    -60.706373     0.000000     0.000167   -60.706206
	   97 D(8,5,12,24)    =     61.129551    -0.000000     0.000171    61.129722
	   98 D(9,15,18,19)   =   -179.707978     0.000000     0.002220  -179.705758
	   99 D(9,15,18,20)   =     64.444576     0.000000     0.002378    64.446953
	  100 D(9,15,18,21)   =    -58.358256     0.000000     0.002124   -58.356132
	  101 D(10,9,15,16)   =    -56.499055    -0.000000    -0.001422   -56.500477
	  102 D(10,9,15,17)   =   -172.357626    -0.000000    -0.001394  -172.359020
	  103 D(10,9,15,18)   =     65.634232    -0.000000    -0.001494    65.632738
	  104 D(11,9,15,16)   =     59.185538    -0.000000    -0.001479    59.184059
	  105 D(11,9,15,17)   =    -56.673034    -0.000000    -0.001451   -56.674485
	  106 D(11,9,15,18)   =   -178.681175    -0.000000    -0.001551  -178.682727
	  107 D(12,24,21,18)  =    -60.853590     0.000000     0.003967   -60.849624
	  108 D(12,24,21,22)  =    177.048491     0.000000     0.003948   177.052440
	  109 D(12,24,21,23)  =     61.712018     0.000000     0.003774    61.715792
	  110 D(13,12,24,21)  =    -28.435241     0.000000     0.004048   -28.431193
	  111 D(13,12,24,25)  =   -151.378982     0.000000     0.004343  -151.374638
	  112 D(13,12,24,26)  =     92.638694     0.000000     0.004297    92.642991
	  113 D(14,12,24,21)  =   -144.047792     0.000000     0.003971  -144.043822
	  114 D(14,12,24,25)  =     93.008467     0.000000     0.004266    93.012733
	  115 D(14,12,24,26)  =    -22.973857     0.000000     0.004219   -22.969638
	  116 D(15,18,21,22)  =    -50.923136     0.000000     0.005355   -50.917781
	  117 D(15,18,21,23)  =     64.854431     0.000000     0.005487    64.859918
	  118 D(15,18,21,24)  =   -173.260206     0.000000     0.005391  -173.254816
	  119 D(16,15,18,19)  =    -57.461757     0.000000     0.002123   -57.459633
	  120 D(16,15,18,20)  =   -173.309203     0.000000     0.002281  -173.306922
	  121 D(16,15,18,21)  =     63.887965    -0.000000     0.002028    63.889993
	  122 D(17,15,18,19)  =     58.428028    -0.000000     0.002043    58.430070
	  123 D(17,15,18,20)  =    -57.419419     0.000000     0.002201   -57.417219
	  124 D(17,15,18,21)  =    179.777749    -0.000000     0.001947   179.779696
	  125 D(18,21,24,25)  =     61.950438     0.000000     0.003633    61.954070
	  126 D(18,21,24,26)  =    177.272128     0.000000     0.003653   177.275781
	  127 D(19,18,21,22)  =     70.343609     0.000000     0.005201    70.348810
	  128 D(19,18,21,23)  =   -173.878824     0.000000     0.005333  -173.873491
	  129 D(19,18,21,24)  =    -51.993462     0.000000     0.005236   -51.988225
	  130 D(20,18,21,22)  =   -173.535966     0.000000     0.005184  -173.530782
	  131 D(20,18,21,23)  =    -57.758399     0.000000     0.005316   -57.753083
	  132 D(20,18,21,24)  =     64.126963     0.000000     0.005220    64.132183
	  133 D(22,21,24,25)  =    -60.147481     0.000000     0.003614   -60.143866
	  134 D(22,21,24,26)  =     55.174210    -0.000000     0.003634    55.177844
	  135 D(23,21,24,25)  =   -175.483954    -0.000000     0.003440  -175.480514
	  136 D(23,21,24,26)  =    -60.162263    -0.000000     0.003460   -60.158804
	  137 R(1,21)         =      3.640768    -0.000001    -0.000009     3.640759
	  138 R(5,18)         =      3.391118     0.000001     0.000024     3.391142
	 ---------------------------------------------------------------------------

  ==> Convergence Check <==

  Measures of convergence in internal coordinates in au.
  Criteria marked as inactive (o), active & met (*), and active & unmet ( ).
  --------------------------------------------------------------------------------------------- ~
   Step     Total Energy     Delta E     MAX Force     RMS Force      MAX Disp      RMS Disp    ~
  --------------------------------------------------------------------------------------------- ~
    Convergence Criteria             o    2.00e-06 *    1.00e-06 *    6.00e-06 *    4.00e-06 *  ~
  --------------------------------------------------------------------------------------------- ~
      1    -314.98054351   -3.15e+02 o    8.79e-07 *    2.48e-07 *    9.58e-05      3.64e-05    ~
  ---------------------------------------------------------------------------------------------

	Writing optimization data to binary file.
	Structure for next step:
	Cartesian Geometry (in Angstrom)
	    C    -2.4402389655   1.4213040267  -0.5047382661
	    H    -1.4180903605   1.6386596219  -0.8155330417
	    H    -2.6362640536   1.9851837318   0.4089971677
	    H    -3.1072087960   1.7972702811  -1.2801795487
	    C     2.7835772169   0.9740590368   0.7912975533
	    H     1.9525242048   0.9628583782   1.4942115991
	    H     3.1718411555   1.9917959041   0.7451743702
	    H     3.5688068120   0.3358176521   1.1987284075
	    C    -2.6492739867  -0.0712209132  -0.2740789471
	    H    -2.4095296850  -0.6205061276  -1.1869453089
	    H    -3.7059493141  -0.2613635153  -0.0735872201
	    C     2.3650169228   0.4780083458  -0.5903581252
	    H     1.6270032887   1.1600068740  -1.0235983404
	    H     3.2363740707   0.5190623312  -1.2467719820
	    C    -1.8259286078  -0.6184294633   0.8919616972
	    H    -2.0151563577  -1.6912137249   0.9908731854
	    H    -2.1760318617  -0.1528494314   1.8179786483
	    C    -0.3200424059  -0.3921108350   0.7601205794
	    H     0.1801885871  -0.8202663363   1.6339424071
	    H    -0.1095720268   0.6793975170   0.7804214417
	    C     0.2689363052  -1.0108744896  -0.5025909189
	    H    -0.0503495305  -2.0565280907  -0.5623329571
	    H    -0.1467984660  -0.5113547011  -1.3826720085
	    C     1.7934381573  -0.9473259387  -0.5910749735
	    H     2.2310997672  -1.5115658131   0.2386772557
	    H     2.0990207258  -1.4601093535  -1.5057125224
			--------------------------
			 OPTKING Finished Execution 
			--------------------------

    Structure for next step:
    Molecular point group: c1
    Full point group: C1

    Geometry (in Angstrom), charge = 0, multiplicity = 1:

    C           -2.440239035474     1.421297546986    -0.504737806854
    H           -1.418090430438     1.638653142181    -0.815532582379
    H           -2.636264123545     1.985177252004     0.408997626967
    H           -3.107208865922     1.797263801379    -1.280179089465
    C            2.783577146904     0.974052557027     0.791298012561
    H            1.952524134883     0.962851898424     1.494212058339
    H            3.171841085550     1.991789424342     0.745174829476
    H            3.568806742026     0.335811172361     1.198728866754
    C           -2.649274056689    -0.071227392974    -0.274078487853
    H           -2.409529754940    -0.620512607394    -1.186944849670
    H           -3.705949384071    -0.261369995056    -0.073586760815
    C            2.365016852800     0.478001866032    -0.590357665897
    H            1.627003218768     1.160000394236    -1.023597881162
    H            3.236374000750     0.519055851436    -1.246771522742
    C           -1.825928677727    -0.618435943102     0.891962156432
    H           -2.015156427628    -1.691220204704     0.990873644716
    H           -2.176031931666    -0.152855911185     1.817979107560
    C           -0.320042475846    -0.392117314715     0.760121038659
    H            0.180188517102    -0.820272816106     1.633942866397
    H           -0.109572096796     0.679391037287     0.780421901011
    C            0.268936235201    -1.010880969332    -0.502590459675
    H           -0.050349600475    -2.056534570508    -0.562332497865
    H           -0.146798535962    -0.511361180907    -1.382671549237
    C            1.793438087364    -0.947332418467    -0.591074514186
    H            2.231099697251    -1.511572292839     0.238677714969
    H            2.099020655846    -1.460115833274    -1.505712063115

gradient() will perform analytic gradient computation.

*** tstart() called on wr24
*** at Tue Sep 20 22:57:52 2016


         ---------------------------------------------------------
                                   SCF
            by Justin Turney, Rob Parrish, and Andy Simmonett
                              RHF Reference
                       12 Threads,  60000 MiB Core
         ---------------------------------------------------------

  ==> Geometry <==

    Molecular point group: c1
    Full point group: C1

    Geometry (in Angstrom), charge = 0, multiplicity = 1:

       Center              X                  Y                   Z               Mass       
    ------------   -----------------  -----------------  -----------------  -----------------
           C         -2.440239035474     1.421297546986    -0.504737806854    12.000000000000
           H         -1.418090430438     1.638653142181    -0.815532582379     1.007825032070
           H         -2.636264123545     1.985177252004     0.408997626967     1.007825032070
           H         -3.107208865922     1.797263801379    -1.280179089465     1.007825032070
           C          2.783577146904     0.974052557027     0.791298012561    12.000000000000
           H          1.952524134883     0.962851898424     1.494212058339     1.007825032070
           H          3.171841085550     1.991789424342     0.745174829476     1.007825032070
           H          3.568806742026     0.335811172361     1.198728866754     1.007825032070
           C         -2.649274056689    -0.071227392974    -0.274078487853    12.000000000000
           H         -2.409529754940    -0.620512607394    -1.186944849670     1.007825032070
           H         -3.705949384071    -0.261369995056    -0.073586760815     1.007825032070
           C          2.365016852800     0.478001866032    -0.590357665897    12.000000000000
           H          1.627003218768     1.160000394236    -1.023597881162     1.007825032070
           H          3.236374000750     0.519055851436    -1.246771522742     1.007825032070
           C         -1.825928677727    -0.618435943102     0.891962156432    12.000000000000
           H         -2.015156427628    -1.691220204704     0.990873644716     1.007825032070
           H         -2.176031931666    -0.152855911185     1.817979107560     1.007825032070
           C         -0.320042475846    -0.392117314715     0.760121038659    12.000000000000
           H          0.180188517102    -0.820272816106     1.633942866397     1.007825032070
           H         -0.109572096796     0.679391037287     0.780421901011     1.007825032070
           C          0.268936235201    -1.010880969332    -0.502590459675    12.000000000000
           H         -0.050349600475    -2.056534570508    -0.562332497865     1.007825032070
           H         -0.146798535962    -0.511361180907    -1.382671549237     1.007825032070
           C          1.793438087364    -0.947332418467    -0.591074514186    12.000000000000
           H          2.231099697251    -1.511572292839     0.238677714969     1.007825032070
           H          2.099020655846    -1.460115833274    -1.505712063115     1.007825032070

  Running in c1 symmetry.

  Rotational constants: A =      0.10514  B =      0.03033  C =      0.02851 [cm^-1]
  Rotational constants: A =   3151.92488  B =    909.37316  C =    854.60042 [MHz]
  Nuclear repulsion =  401.831512549215404

  Charge       = 0
  Multiplicity = 1
  Electrons    = 66
  Nalpha       = 33
  Nbeta        = 33

  ==> Algorithm <==

  SCF Algorithm Type is DF.
  DIIS enabled.
  MOM disabled.
  Fractional occupation disabled.
  Guess Type is READ.
  Energy threshold   = 1.00e-10
  Density threshold  = 1.00e-10
  Integral threshold = 0.00e+00

  ==> Primary Basis <==

  Basis Set: AUG-CC-PVTZ
    Number of shells: 274
    Number of basis function: 782
    Number of Cartesian functions: 890
    Spherical Harmonics?: true
    Max angular momentum: 3

  ==> Pre-Iterations <==

   -------------------------------------------------------
    Irrep   Nso     Nmo     Nalpha   Nbeta   Ndocc  Nsocc
   -------------------------------------------------------
     A        782     782       0       0       0       0
   -------------------------------------------------------
    Total     782     782      33      33      33       0
   -------------------------------------------------------

  ==> Integral Setup <==

  ==> DFJK: Density-Fitted J/K Matrices <==

    J tasked:                  Yes
    K tasked:                  Yes
    wK tasked:                  No
    OpenMP threads:             12
    Integrals threads:          12
    Memory (MB):             42915
    Algorithm:                Core
    Integral Cache:           NONE
    Schwarz Cutoff:          1E-12
    Fitting Condition:       1E-12

   => Auxiliary Basis Set <=

  Basis Set: 
    Number of shells: 492
    Number of basis function: 1660
    Number of Cartesian functions: 2038
    Spherical Harmonics?: true
    Max angular momentum: 4

  Minimum eigenvalue in the overlap matrix is 1.8073132603E-06.
  Using Symmetric Orthogonalization.
  SCF Guess: Reading in previously saved MOs, projecting if necessary.

  Using orbitals from previous SCF, no projection.
  Recomputing DOCC and SOCC from number of alpha and beta electrons from previous calculation.
              A 
    DOCC [    33 ]

  ==> Iterations <==

                           Total Energy        Delta E     RMS |[F,P]|

   @DF-RHF iter   0:  -313.53680509552453   -3.13537e+02   3.66088e-07 
   @DF-RHF iter   1:  -313.53672862391329    7.64716e-05   7.50672e-08 
   @DF-RHF iter   2:  -313.53672862670385   -2.79056e-09   3.14594e-08 DIIS
   @DF-RHF iter   3:  -313.53672862710437   -4.00519e-10   1.18037e-08 DIIS
   @DF-RHF iter   4:  -313.53672862718520   -8.08313e-11   1.30036e-09 DIIS
   @DF-RHF iter   5:  -313.53672862718668   -1.47793e-12   4.54208e-10 DIIS
   @DF-RHF iter   6:  -313.53672862718702   -3.41061e-13   1.11482e-10 DIIS
   @DF-RHF iter   7:  -313.53672862718622    7.95808e-13   2.82311e-11 DIIS

  ==> Post-Iterations <==

    Orbital Energies (a.u.)
    -----------------------

    Doubly Occupied:                                                      

       1A    -11.213097     2A    -11.212201     3A    -11.210857  
       4A    -11.210721     5A    -11.210231     6A    -11.209051  
       7A    -11.207302     8A    -11.205821     9A     -1.095078  
      10A     -1.058968    11A     -1.003766    12A     -0.950395  
      13A     -0.886601    14A     -0.835140    15A     -0.784622  
      16A     -0.752108    17A     -0.644637    18A     -0.632418  
      19A     -0.610491    20A     -0.599316    21A     -0.576725  
      22A     -0.552376    23A     -0.545666    24A     -0.533610  
      25A     -0.521328    26A     -0.498677    27A     -0.488935  
      28A     -0.472064    29A     -0.469648    30A     -0.461429  
      31A     -0.445972    32A     -0.436474    33A     -0.431346  

    Virtual:                                                              

      34A      0.029283    35A      0.032818    36A      0.033886  
      37A      0.035367    38A      0.046666    39A      0.048776  
      40A      0.049522    41A      0.053570    42A      0.054159  
      43A      0.068856    44A      0.070494    45A      0.071130  
      46A      0.072798    47A      0.077738    48A      0.083892  
      49A      0.090882    50A      0.097667    51A      0.103191  
      52A      0.114328    53A      0.117007    54A      0.121907  
      55A      0.123145    56A      0.129024    57A      0.131811  
      58A      0.133695    59A      0.137945    60A      0.138210  
      61A      0.144636    62A      0.145870    63A      0.150208  
      64A      0.150814    65A      0.155393    66A      0.160484  
      67A      0.162899    68A      0.170819    69A      0.173297  
      70A      0.176315    71A      0.180046    72A      0.182411  
      73A      0.187514    74A      0.190325    75A      0.196106  
      76A      0.200781    77A      0.211190    78A      0.219097  
      79A      0.227229    80A      0.228818    81A      0.237137  
      82A      0.244201    83A      0.251221    84A      0.261993  
      85A      0.265726    86A      0.273801    87A      0.282318  
      88A      0.285243    89A      0.290799    90A      0.297472  
      91A      0.301579    92A      0.302696    93A      0.307198  
      94A      0.310489    95A      0.318422    96A      0.320106  
      97A      0.324453    98A      0.327256    99A      0.329228  
     100A      0.333743   101A      0.341371   102A      0.346657  
     103A      0.349527   104A      0.356712   105A      0.357132  
     106A      0.359107   107A      0.363557   108A      0.367462  
     109A      0.373049   110A      0.374807   111A      0.379770  
     112A      0.380578   113A      0.384494   114A      0.387660  
     115A      0.388795   116A      0.393211   117A      0.399835  
     118A      0.405315   119A      0.406289   120A      0.414920  
     121A      0.417634   122A      0.420979   123A      0.423747  
     124A      0.429824   125A      0.435084   126A      0.441060  
     127A      0.443397   128A      0.445165   129A      0.451919  
     130A      0.453473   131A      0.460279   132A      0.462853  
     133A      0.468601   134A      0.470753   135A      0.474357  
     136A      0.476666   137A      0.477909   138A      0.484600  
     139A      0.484903   140A      0.490396   141A      0.495290  
     142A      0.500438   143A      0.503126   144A      0.505976  
     145A      0.509836   146A      0.515518   147A      0.521195  
     148A      0.524899   149A      0.531228   150A      0.533792  
     151A      0.538399   152A      0.541056   153A      0.545810  
     154A      0.548547   155A      0.554391   156A      0.558345  
     157A      0.564025   158A      0.568265   159A      0.572665  
     160A      0.575237   161A      0.578744   162A      0.582361  
     163A      0.587363   164A      0.591670   165A      0.596922  
     166A      0.597712   167A      0.603532   168A      0.608294  
     169A      0.615914   170A      0.622401   171A      0.630547  
     172A      0.632031   173A      0.639481   174A      0.644641  
     175A      0.647184   176A      0.651967   177A      0.653678  
     178A      0.659569   179A      0.661477   180A      0.671667  
     181A      0.673466   182A      0.680020   183A      0.681555  
     184A      0.687332   185A      0.691278   186A      0.704686  
     187A      0.705997   188A      0.713562   189A      0.717410  
     190A      0.726013   191A      0.728349   192A      0.733972  
     193A      0.738867   194A      0.751011   195A      0.754092  
     196A      0.762484   197A      0.767537   198A      0.774625  
     199A      0.777548   200A      0.784237   201A      0.797863  
     202A      0.803048   203A      0.807571   204A      0.816037  
     205A      0.834349   206A      0.837529   207A      0.844628  
     208A      0.858433   209A      0.862263   210A      0.867406  
     211A      0.868589   212A      0.873844   213A      0.880621  
     214A      0.885986   215A      0.888131   216A      0.892770  
     217A      0.900658   218A      0.904794   219A      0.910372  
     220A      0.915643   221A      0.919780   222A      0.925859  
     223A      0.929190   224A      0.935983   225A      0.936392  
     226A      0.947019   227A      0.956146   228A      0.957090  
     229A      0.964666   230A      0.967399   231A      0.971365  
     232A      0.977505   233A      0.984274   234A      0.988557  
     235A      0.994506   236A      0.996425   237A      0.999332  
     238A      1.006730   239A      1.011918   240A      1.019078  
     241A      1.020571   242A      1.030876   243A      1.032069  
     244A      1.036684   245A      1.042605   246A      1.045065  
     247A      1.050537   248A      1.057327   249A      1.065760  
     250A      1.071849   251A      1.075442   252A      1.077902  
     253A      1.083689   254A      1.091013   255A      1.094540  
     256A      1.110028   257A      1.112062   258A      1.116165  
     259A      1.121618   260A      1.126123   261A      1.133832  
     262A      1.136868   263A      1.140196   264A      1.150637  
     265A      1.158072   266A      1.161960   267A      1.169580  
     268A      1.170315   269A      1.177110   270A      1.180312  
     271A      1.187359   272A      1.192988   273A      1.194199  
     274A      1.198920   275A      1.201978   276A      1.205539  
     277A      1.210661   278A      1.217170   279A      1.229786  
     280A      1.230800   281A      1.237484   282A      1.245692  
     283A      1.246373   284A      1.250192   285A      1.256646  
     286A      1.261528   287A      1.267690   288A      1.275642  
[...]
	Denominators (dg)(dq) or (dq)(dq) are very small.
	 Skipping Hessian update for step 3.
	Denominators (dg)(dq) or (dq)(dq) are very small.
	 Skipping Hessian update for step 2.
	Steps to be used in Hessian update: 1
	Taking RFO optimization step.
	Going to follow RFO solution 1.
	Using RFO vector 1.
	Norm of target step-size    0.00002
	Projected energy change by RFO approximation:        -0.0000000000

	Back-transformation to cartesian coordinates...
	Successfully converged to displaced geometry.

	--- Internal Coordinate Step in ANG or DEG, aJ/ANG or AJ/DEG ---
	 ---------------------------------------------------------------------------
	   Coordinate                Previous        Force       Change         New 
	   ----------                --------       ------       ------       ------
	    1 R(1,2)          =      1.090242     0.000001    -0.000000     1.090242
	    2 R(1,3)          =      1.091467     0.000001     0.000000     1.091467
	    3 R(1,4)          =      1.089730     0.000001    -0.000000     1.089729
	    4 R(1,9)          =      1.524641    -0.000001    -0.000000     1.524641
	    5 R(5,6)          =      1.088515    -0.000000    -0.000000     1.088515
	    6 R(5,7)          =      1.090260     0.000000    -0.000000     1.090260
	    7 R(5,8)          =      1.090843     0.000000    -0.000000     1.090843
	    8 R(5,12)         =      1.526510    -0.000001    -0.000000     1.526510
	    9 R(9,10)         =      1.092026     0.000001    -0.000000     1.092025
	   10 R(9,11)         =      1.092207     0.000001    -0.000000     1.092207
	   11 R(9,15)         =      1.528720    -0.000001    -0.000000     1.528720
	   12 R(12,13)        =      1.094297     0.000002     0.000000     1.094297
	   13 R(12,14)        =      1.091709     0.000001     0.000000     1.091709
	   14 R(12,24)        =      1.535671    -0.000001    -0.000000     1.535671
	   15 R(15,16)        =      1.093828     0.000002     0.000000     1.093828
	   16 R(15,17)        =      1.094005     0.000002    -0.000000     1.094005
	   17 R(15,18)        =      1.528494     0.000001     0.000000     1.528495
	   18 R(18,19)        =      1.094127     0.000002     0.000000     1.094127
	   19 R(18,20)        =      1.092174     0.000004     0.000000     1.092174
	   20 R(18,21)        =      1.524534     0.000001     0.000000     1.524534
	   21 R(21,22)        =      1.094945     0.000002     0.000000     1.094945
	   22 R(21,23)        =      1.094029     0.000003     0.000000     1.094029
	   23 R(21,24)        =      1.528390     0.000001    -0.000000     1.528390
	   24 R(24,25)        =      1.094717     0.000001    -0.000000     1.094717
	   25 R(24,26)        =      1.092195     0.000001    -0.000000     1.092195
	   26 B(1,9,10)       =    109.623312     0.000000     0.000003   109.623315
	   27 B(1,9,11)       =    109.319649    -0.000000     0.000002   109.319651
	   28 B(1,9,15)       =    113.076916    -0.000000    -0.000043   113.076873
	   29 B(2,1,3)        =    107.700058    -0.000000     0.000001   107.700059
	   30 B(2,1,4)        =    107.589172     0.000000     0.000007   107.589178
	   31 B(2,1,9)        =    111.520558     0.000000    -0.000000   111.520557
	   32 B(3,1,4)        =    107.911905     0.000000    -0.000004   107.911900
	   33 B(3,1,9)        =    110.760834     0.000000    -0.000011   110.760823
	   34 B(4,1,9)        =    111.191082    -0.000000     0.000008   111.191090
	   35 B(5,12,13)      =    109.921810    -0.000000    -0.000003   109.921807
	   36 B(5,12,14)      =    108.248818    -0.000000    -0.000011   108.248807
	   37 B(5,12,24)      =    113.834110     0.000000     0.000037   113.834147
	   38 B(6,5,7)        =    107.987723    -0.000000    -0.000003   107.987719
	   39 B(6,5,8)        =    107.599836    -0.000000     0.000004   107.599840
	   40 B(6,5,12)       =    111.826235     0.000000     0.000039   111.826274
	   41 B(7,5,8)        =    107.795650     0.000000    -0.000004   107.795646
	   42 B(7,5,12)       =    111.265999    -0.000000    -0.000027   111.265971
	   43 B(8,5,12)       =    110.200430    -0.000000    -0.000009   110.200421
	   44 B(9,15,16)      =    109.078716    -0.000000     0.000008   109.078725
	   45 B(9,15,17)      =    108.719756    -0.000000    -0.000014   108.719741
	   46 B(9,15,18)      =    114.319493    -0.000000    -0.000005   114.319488
	   47 B(10,9,11)      =    106.157717     0.000000     0.000012   106.157729
	   48 B(10,9,15)      =    109.835863     0.000000     0.000023   109.835886
	   49 B(11,9,15)      =    108.586241    -0.000000     0.000006   108.586246
	   50 B(12,24,21)     =    114.193584    -0.000000    -0.000017   114.193567
	   51 B(12,24,25)     =    109.222202     0.000000     0.000012   109.222214
	   52 B(12,24,26)     =    109.391260    -0.000000    -0.000033   109.391227
	   53 B(13,12,14)     =    106.069796     0.000000     0.000013   106.069809
	   54 B(13,12,24)     =    109.101802    -0.000000    -0.000012   109.101790
	   55 B(14,12,24)     =    109.371891    -0.000000    -0.000025   109.371865
	   56 B(15,18,19)     =    108.881140     0.000000     0.000012   108.881152
	   57 B(15,18,20)     =    109.482463    -0.000000    -0.000013   109.482449
	   58 B(15,18,21)     =    113.076926    -0.000000    -0.000024   113.076901
	   59 B(16,15,17)     =    106.587774     0.000000     0.000011   106.587785
	   60 B(16,15,18)     =    108.872126     0.000000     0.000000   108.872126
	   61 B(17,15,18)     =    108.982748     0.000000     0.000001   108.982749
	   62 B(18,21,22)     =    108.671056    -0.000000     0.000005   108.671061
	   63 B(18,21,23)     =    109.521701     0.000000    -0.000006   109.521695
	   64 B(18,21,24)     =    114.609293     0.000000     0.000023   114.609316
	   65 B(19,18,20)     =    106.317979    -0.000000     0.000005   106.317984
	   66 B(19,18,21)     =    109.028147    -0.000000     0.000010   109.028157
	   67 B(20,18,21)     =    109.824192     0.000000     0.000012   109.824204
	   68 B(21,24,25)     =    109.479357     0.000000     0.000018   109.479375
	   69 B(21,24,26)     =    107.940861     0.000000     0.000000   107.940861
	   70 B(22,21,23)     =    106.339691     0.000000     0.000001   106.339692
	   71 B(22,21,24)     =    109.111466     0.000000    -0.000020   109.111447
	   72 B(23,21,24)     =    108.269060    -0.000000    -0.000004   108.269056
	   73 B(25,24,26)     =    106.313451    -0.000000     0.000024   106.313475
	   74 D(1,9,15,16)    =   -179.302689    -0.000000    -0.000211  -179.302900
	   75 D(1,9,15,17)    =     64.838745    -0.000000    -0.000221    64.838523
	   76 D(1,9,15,18)    =    -57.169366    -0.000000    -0.000208   -57.169574
	   77 D(2,1,9,10)     =    -57.791729    -0.000000     0.000141   -57.791587
	   78 D(2,1,9,11)     =   -173.772394    -0.000000     0.000124  -173.772270
	   79 D(2,1,9,15)     =     65.130017     0.000000     0.000143    65.130160
	   80 D(3,1,9,10)     =   -177.725189    -0.000000     0.000148  -177.725041
	   81 D(3,1,9,11)     =     66.294146    -0.000000     0.000130    66.294276
	   82 D(3,1,9,15)     =    -54.803444     0.000000     0.000149   -54.803294
	   83 D(4,1,9,10)     =     62.292438     0.000000     0.000155    62.292593
	   84 D(4,1,9,11)     =    -53.688226     0.000000     0.000137   -53.688089
	   85 D(4,1,9,15)     =   -174.785816     0.000000     0.000157  -174.785660
	   86 D(5,12,24,21)   =     94.740796    -0.000000    -0.000152    94.740644
	   87 D(5,12,24,25)   =    -28.202876    -0.000000    -0.000172   -28.203048
	   88 D(5,12,24,26)   =   -144.185158    -0.000000    -0.000188  -144.185346
	   89 D(6,5,12,13)    =     64.224790    -0.000000    -0.000017    64.224773
	   90 D(6,5,12,14)    =    179.661959    -0.000000    -0.000009   179.661950
	   91 D(6,5,12,24)    =    -58.502112    -0.000000    -0.000025   -58.502137
	   92 D(7,5,12,13)    =    -56.628563    -0.000000    -0.000021   -56.628584
	   93 D(7,5,12,14)    =     58.808606    -0.000000    -0.000013    58.808593
	   94 D(7,5,12,24)    =   -179.355464    -0.000000    -0.000029  -179.355493
	   95 D(8,5,12,13)    =   -176.143478     0.000000     0.000007  -176.143471
	   96 D(8,5,12,14)    =    -60.706309     0.000000     0.000015   -60.706294
	   97 D(8,5,12,24)    =     61.129620     0.000000    -0.000001    61.129619
	   98 D(9,15,18,19)   =   -179.707648    -0.000000    -0.000009  -179.707657
	   99 D(9,15,18,20)   =     64.445035    -0.000000    -0.000015    64.445019
	  100 D(9,15,18,21)   =    -58.357882    -0.000000    -0.000004   -58.357887
	  101 D(10,9,15,16)   =    -56.498942    -0.000000    -0.000221   -56.499163
	  102 D(10,9,15,17)   =   -172.357509    -0.000000    -0.000231  -172.357740
	  103 D(10,9,15,18)   =     65.634380     0.000000    -0.000218    65.634162
	  104 D(11,9,15,16)   =     59.185558    -0.000000    -0.000190    59.185368
	  105 D(11,9,15,17)   =    -56.673008     0.000000    -0.000200   -56.673209
	  106 D(11,9,15,18)   =   -178.681119     0.000000    -0.000187  -178.681307
	  107 D(12,24,21,18)  =    -60.853185    -0.000000    -0.000206   -60.853391
	  108 D(12,24,21,22)  =    177.048892    -0.000000    -0.000213   177.048679
	  109 D(12,24,21,23)  =     61.712343    -0.000000    -0.000201    61.712141
	  110 D(13,12,24,21)  =    -28.434388    -0.000000    -0.000165   -28.434553
	  111 D(13,12,24,25)  =   -151.378061    -0.000000    -0.000184  -151.378245
	  112 D(13,12,24,26)  =     92.639657    -0.000000    -0.000201    92.639457
	  113 D(14,12,24,21)  =   -144.046967     0.000000    -0.000160  -144.047127
	  114 D(14,12,24,25)  =     93.009360    -0.000000    -0.000179    93.009181
	  115 D(14,12,24,26)  =    -22.972922    -0.000000    -0.000196   -22.973117
	  116 D(15,18,21,22)  =    -50.922948    -0.000000    -0.000075   -50.923024
	  117 D(15,18,21,23)  =     64.854649    -0.000000    -0.000075    64.854574
	  118 D(15,18,21,24)  =   -173.260035    -0.000000    -0.000069  -173.260104
	  119 D(16,15,18,19)  =    -57.461478    -0.000000    -0.000002   -57.461480
	  120 D(16,15,18,20)  =   -173.308796    -0.000000    -0.000008  -173.308803
	  121 D(16,15,18,21)  =     63.888288    -0.000000     0.000003    63.888291
	  122 D(17,15,18,19)  =     58.428297    -0.000000     0.000012    58.428309
	  123 D(17,15,18,20)  =    -57.419021     0.000000     0.000006   -57.419014
	  124 D(17,15,18,21)  =    179.778062     0.000000     0.000017   179.778080
	  125 D(18,21,24,25)  =     61.950748    -0.000000    -0.000189    61.950559
	  126 D(18,21,24,26)  =    177.272364     0.000000    -0.000152   177.272213
	  127 D(19,18,21,22)  =     70.343805    -0.000000    -0.000069    70.343736
	  128 D(19,18,21,23)  =   -173.878597    -0.000000    -0.000069  -173.878666
	  129 D(19,18,21,24)  =    -51.993282    -0.000000    -0.000062   -51.993345
	  130 D(20,18,21,22)  =   -173.535821    -0.000000    -0.000050  -173.535872
	  131 D(20,18,21,23)  =    -57.758224    -0.000000    -0.000050   -57.758274
	  132 D(20,18,21,24)  =     64.127092    -0.000000    -0.000044    64.127048
	  133 D(22,21,24,25)  =    -60.147175    -0.000000    -0.000196   -60.147371
	  134 D(22,21,24,26)  =     55.174441     0.000000    -0.000159    55.174283
	  135 D(23,21,24,25)  =   -175.483724    -0.000000    -0.000185  -175.483909
	  136 D(23,21,24,26)  =    -60.162108     0.000000    -0.000147   -60.162255
	  137 R(1,21)         =      3.640762     0.000000     0.000003     3.640764
	  138 R(5,18)         =      3.391125    -0.000000    -0.000001     3.391124
	 ---------------------------------------------------------------------------

  ==> Convergence Check <==

  Measures of convergence in internal coordinates in au.
  Criteria marked as inactive (o), active & met (*), and active & unmet ( ).
  ---------------------------------------------------------------------------------------------
   Step     Total Energy     Delta E     MAX Force     RMS Force      MAX Disp      RMS Disp   
  ---------------------------------------------------------------------------------------------
    Convergence Criteria             o    2.00e-06 *    1.00e-06 *    6.00e-06 *    4.00e-06 *
  ---------------------------------------------------------------------------------------------
     27    -314.98054351    7.99e-10 o    4.83e-07 *    9.56e-08 *    4.80e-06 *    1.70e-06 *  ~
  ---------------------------------------------------------------------------------------------


  **** Optimization is complete! (in 27 steps) ****

  ==> Optimization Summary <==

  Measures of convergence in internal coordinates in au.
  --------------------------------------------------------------------------------------------------------------- ~
   Step         Total Energy             Delta E       MAX Force       RMS Force        MAX Disp        RMS Disp  ~
  --------------------------------------------------------------------------------------------------------------- ~
      1    -314.980543513285   -314.980543513285      0.00000088      0.00000025      0.00009576      0.00003642  ~
      2    -314.980543508955      0.000000004330      0.00000173      0.00000033      0.00009914      0.00002979  ~
      3    -314.980543511229     -0.000000002275      0.00000107      0.00000027      0.00004208      0.00001864  ~
      4    -314.980543512157     -0.000000000927      0.00000096      0.00000023      0.00045814      0.00013543  ~
      5    -314.980543507742      0.000000004415      0.00001110      0.00000270      0.00046294      0.00013585  ~
      6    -314.980543512909     -0.000000005167      0.00000069      0.00000017      0.00001088      0.00000359  ~
      7    -314.980543507444      0.000000005465      0.00000081      0.00000022      0.00011095      0.00003239  ~
      8    -314.980543513720     -0.000000006276      0.00000171      0.00000048      0.00010452      0.00003127  ~
      9    -314.980543516228     -0.000000002509      0.00000060      0.00000018      0.00001227      0.00000345  ~
     10    -314.980543508054      0.000000008174      0.00000214      0.00000042      0.00002132      0.00000668  ~
     11    -314.980543509793     -0.000000001739      0.00000160      0.00000037      0.00000665      0.00000223  ~
     12    -314.980543507764      0.000000002030      0.00000130      0.00000028      0.00017143      0.00005230  ~
     13    -314.980543510817     -0.000000003054      0.00000595      0.00000137      0.00015836      0.00005017  ~
     14    -314.980543509517      0.000000001301      0.00000098      0.00000025      0.00001694      0.00000738  ~
     15    -314.980543508825      0.000000000692      0.00000026      0.00000008      0.00000906      0.00000456  ~
     16    -314.980543509259     -0.000000000434      0.00000190      0.00000049      0.00000922      0.00000339  ~
     17    -314.980543508824      0.000000000434      0.00000057      0.00000016      0.00000897      0.00000265  ~
     18    -314.980543508915     -0.000000000091      0.00000096      0.00000022      0.00001897      0.00000590  ~
     19    -314.980543510888     -0.000000001972      0.00000236      0.00000050      0.00016140      0.00004872  ~
     20    -314.980543510107      0.000000000781      0.00000285      0.00000092      0.00016548      0.00005081  ~
     21    -314.980543514164     -0.000000004057      0.00000094      0.00000022      0.00001355      0.00000367  ~
     22    -314.980543513187      0.000000000978      0.00000221      0.00000050      0.00000711      0.00000259  ~
     23    -314.980543516365     -0.000000003178      0.00000125      0.00000026      0.00000771      0.00000226  ~
     24    -314.980543511827      0.000000004537      0.00000061      0.00000017      0.00007840      0.00002245  ~
     25    -314.980543509386      0.000000002441      0.00000198      0.00000052      0.00006771      0.00001943  ~
     26    -314.980543511463     -0.000000002076      0.00000093      0.00000020      0.00000827      0.00000278  ~
     27    -314.980543510664      0.000000000799      0.00000048      0.00000010      0.00000480      0.00000170  ~
  --------------------------------------------------------------------------------------------------------------- ~

	Writing optimization data to binary file.
	Final energy is   -314.9805435106636
	Final (previous) structure:
	Cartesian Geometry (in Angstrom)
	    C    -2.4401014612   1.4213623945  -0.5046620958
	    H    -1.4179305901   1.6386724450  -0.8154194422
	    H    -2.6361153114   1.9852047982   0.4091000559
	    H    -3.1070296013   1.7974115627  -1.2801002423
	    C     2.7834487727   0.9741750292   0.7912263606
	    H     1.9523595715   0.9629982712   1.4940995996
	    H     3.1716776006   1.9919232899   0.7450438398
	    H     3.5686816216   0.3359938048   1.1987468049
	    C    -2.6492357319  -0.0711623978  -0.2740910990
	    H    -2.4095069057  -0.6204125316  -1.1869844223
	    H    -3.7059285474  -0.2612488003  -0.0736321459
	    C     2.3649751340   0.4780014604  -0.5904116732
	    H     1.6269572992   1.1599397505  -1.0237416199
	    H     3.2363639835   0.5190379366  -1.2467853053
	    C    -1.8259503020  -0.6184906600   0.8919356449
	    H    -2.0152287880  -1.6912747138   0.9907650849
	    H    -2.1760615769  -0.1529600506   1.8179760463
	    C    -0.3200506251  -0.3922261354   0.7601558843
	    H     0.1801346869  -0.8204359433   1.6339782355
	    H    -0.1095396773   0.6792747682   0.7805062341
	    C     0.2689487898  -1.0109592677  -0.5025607995
	    H    -0.0503007818  -2.0566241414  -0.5623088214
	    H    -0.1468058303  -0.5114492905  -1.3826390035
	    C     1.7934491215  -0.9473559185  -0.5910495316
	    H     2.2311349702  -1.5115367057   0.2387311662
	    H     2.0990492875  -1.4601760185  -1.5056612150
	Saving final (previous) structure.
			--------------------------
			 OPTKING Finished Execution 
			--------------------------

    Final optimized geometry and variables:
    Molecular point group: c1
    Full point group: C1

    Geometry (in Angstrom), charge = 0, multiplicity = 1:

    C           -2.440101461244     1.421362394486    -0.504662095781
    H           -1.417930590140     1.638672445041    -0.815419442228
    H           -2.636115311391     1.985204798180     0.409100055869
    H           -3.107029601291     1.797411562654    -1.280100242320
    C            2.783448772710     0.974175029174     0.791226360640
    H            1.952359571524     0.962998271212     1.494099599646
    H            3.171677600555     1.991923289940     0.745043839770
    H            3.568681621569     0.335993804826     1.198746804939
    C           -2.649235731896    -0.071162397791    -0.274091099001
    H           -2.409506905747    -0.620412531615    -1.186984422348
    H           -3.705928547448    -0.261248800308    -0.073632145936
    C            2.364975133979     0.478001460439    -0.590411673247
    H            1.626957299249     1.159939750496    -1.023741619858
    H            3.236363983544     0.519037936648    -1.246785305350
    C           -1.825950302043    -0.618490660018     0.891935644858
    H           -2.015228787983    -1.691274713750     0.990765084931
    H           -2.176061576898    -0.152960050552     1.817976046281
    C           -0.320050625105    -0.392226135383     0.760155884270
    H            0.180134686875    -0.820435943273     1.633978235486
    H           -0.109539677321     0.679274768204     0.780506234138
    C            0.268948789847    -1.010959267733    -0.502560799531
    H           -0.050300781794    -2.056624141362    -0.562308821400
    H           -0.146805830289    -0.511449290545    -1.382639003461
    C            1.793449121515    -0.947355918462    -0.591049531585
    H            2.231134970185    -1.511536705737     0.238731166218
    H            2.099049287491    -1.460176018459    -1.505661214966

	Cleaning optimization helper files.

*** Psi4 exiting successfully. Buy a developer a beer!
