    -----------------------------------------------------------------------
          Psi4: An Open-Source Ab Initio Electronic Structure Package
                              Psi4 1.0.0 Driver

                          Git: Rev {master} 6a9a71b dirty

    J. M. Turney, A. C. Simmonett, R. M. Parrish, E. G. Hohenstein,
    F. A. Evangelista, J. T. Fermann, B. J. Mintz, L. A. Burns, J. J. Wilke,
    M. L. Abrams, N. J. Russ, M. L. Leininger, C. L. Janssen, E. T. Seidl,
    W. D. Allen, H. F. Schaefer, R. A. King, E. F. Valeev, C. D. Sherrill,
    and T. D. Crawford, WIREs Comput. Mol. Sci. 2, 556-565 (2012)
    (doi: 10.1002/wcms.93)

                         Additional Contributions by
    A. E. DePrince, U. Bozkaya, A. Yu. Sokolov, D. G. A. Smith, R. Di Remigio,
    R. M. Richard, J. F. Gonthier, H. R. McAlexander, M. Saitow, and
    B. P. Pritchard
    -----------------------------------------------------------------------


    Psi4 started on: Tue Sep 20 16:43:05 2016

    Process ID:   2707
    PSI4DATADIR: /usr/local/hpc5/psi4conda/share/psi4
    Memory level set to 256.000 MB

  ==> Input File <==

--------------------------------------------------------------------------
memory 30 Gb

molecule molecule_30_psi {
0 1
symmetry c1
    C           -4.043958726254    -0.260548940365    -0.139899140762
    H           -4.345145647250     0.522541594324     0.553580168893
    H           -4.724639990912    -1.099573313161    -0.015397950373
    H           -4.167787757830     0.125849821436    -1.149953874992
    C            2.758148285602    -1.544840682132     0.165429890971
    H            3.160738110458    -2.333940565297    -0.466523238601
    H            1.740949953572    -1.814646897429     0.434516946652
    H            3.345518831276    -1.518012741499     1.081769158295
    C           -2.602609969275    -0.666401708757     0.104407913241
    H           -2.322724507236    -1.465750451689    -0.583527270552
    H           -2.499315210390    -1.073400125410     1.111513644462
    C            2.813361776468    -0.194533428124    -0.530530535249
    H            3.852726007761     0.029465527116    -0.768218567216
    H            2.287345507763    -0.247842501749    -1.485786819936
    C           -1.635401730592     0.489659895946    -0.062432229266
    H           -1.910265334267     1.292421850007     0.626159061767
    H           -1.733974058297     0.899330026487    -1.070913850213
    C           -0.190365162113     0.096872131187     0.177298412033
    H            0.070098808960    -0.715870674503    -0.502706482652
    H           -0.085456639173    -0.296907101858     1.191526840121
    C            0.768177022987     1.257101251093    -0.016474431552
    H            0.700445342623     1.597589637742    -1.052662180456
    H            0.437819111349     2.091791091555     0.605377713297
    C            2.222792635068     0.944979816460     0.300939598850
    H            2.806670354602     1.852198853386     0.144682785015
    H            2.313666381731     0.698689712011     1.361572732838
}

set globals {
  reference rhf
  g_convergence gau_verytight
  basis aug-cc-pvtz
  freeze_core true
  scf_type df
  mp_type df
}
optimize('mp2')
--------------------------------------------------------------------------
/usr/local/hpc5/psi4conda/lib/python2.7/site-packages/v2rdm_casscf/v2rdm_casscf.so loaded.

  Memory set to  30.000 GiB by Python script.
gradient() will perform analytic gradient computation.

*** tstart() called on wr32
*** at Tue Sep 20 16:43:06 2016


         ---------------------------------------------------------
                                   SCF
            by Justin Turney, Rob Parrish, and Andy Simmonett
                              RHF Reference
                       12 Threads,  30000 MiB Core
         ---------------------------------------------------------

  ==> Geometry <==

    Molecular point group: c1
    Full point group: C1

    Geometry (in Angstrom), charge = 0, multiplicity = 1:

       Center              X                  Y                   Z               Mass       
    ------------   -----------------  -----------------  -----------------  -----------------
           C         -4.043958726254    -0.260548940365    -0.139899140762    12.000000000000
           H         -4.345145647250     0.522541594324     0.553580168893     1.007825032070
           H         -4.724639990912    -1.099573313161    -0.015397950373     1.007825032070
           H         -4.167787757830     0.125849821436    -1.149953874992     1.007825032070
           C          2.758148285602    -1.544840682132     0.165429890971    12.000000000000
           H          3.160738110458    -2.333940565297    -0.466523238601     1.007825032070
           H          1.740949953572    -1.814646897429     0.434516946652     1.007825032070
           H          3.345518831276    -1.518012741499     1.081769158295     1.007825032070
           C         -2.602609969275    -0.666401708757     0.104407913241    12.000000000000
           H         -2.322724507236    -1.465750451689    -0.583527270552     1.007825032070
           H         -2.499315210390    -1.073400125410     1.111513644462     1.007825032070
           C          2.813361776468    -0.194533428124    -0.530530535249    12.000000000000
           H          3.852726007761     0.029465527116    -0.768218567216     1.007825032070
           H          2.287345507763    -0.247842501749    -1.485786819936     1.007825032070
           C         -1.635401730592     0.489659895946    -0.062432229266    12.000000000000
           H         -1.910265334267     1.292421850007     0.626159061767     1.007825032070
           H         -1.733974058297     0.899330026487    -1.070913850213     1.007825032070
           C         -0.190365162113     0.096872131187     0.177298412033    12.000000000000
           H          0.070098808960    -0.715870674503    -0.502706482652     1.007825032070
           H         -0.085456639173    -0.296907101858     1.191526840121     1.007825032070
           C          0.768177022987     1.257101251093    -0.016474431552    12.000000000000
           H          0.700445342623     1.597589637742    -1.052662180456     1.007825032070
           H          0.437819111349     2.091791091555     0.605377713297     1.007825032070
           C          2.222792635068     0.944979816460     0.300939598850    12.000000000000
           H          2.806670354602     1.852198853386     0.144682785015     1.007825032070
           H          2.313666381731     0.698689712011     1.361572732838     1.007825032070

  Running in c1 symmetry.

  Rotational constants: A =      0.14310  B =      0.02346  C =      0.02116 [cm^-1]
  Rotational constants: A =   4289.92766  B =    703.21216  C =    634.25313 [MHz]
  Nuclear repulsion =  390.327522117775743

  Charge       = 0
  Multiplicity = 1
  Electrons    = 66
  Nalpha       = 33
  Nbeta        = 33

  ==> Algorithm <==

  SCF Algorithm Type is DF.
  DIIS enabled.
  MOM disabled.
  Fractional occupation disabled.
  Guess Type is SAD.
  Energy threshold   = 1.00e-10
  Density threshold  = 1.00e-10
  Integral threshold = 0.00e+00

  ==> Primary Basis <==

  Basis Set: AUG-CC-PVTZ
    Number of shells: 274
    Number of basis function: 782
    Number of Cartesian functions: 890
    Spherical Harmonics?: true
    Max angular momentum: 3

  ==> Pre-Iterations <==

   -------------------------------------------------------
    Irrep   Nso     Nmo     Nalpha   Nbeta   Ndocc  Nsocc
   -------------------------------------------------------
     A        782     782       0       0       0       0
   -------------------------------------------------------
    Total     782     782      33      33      33       0
   -------------------------------------------------------

  ==> Integral Setup <==

  ==> DFJK: Density-Fitted J/K Matrices <==

    J tasked:                  Yes
    K tasked:                  Yes
    wK tasked:                  No
    OpenMP threads:             12
    Integrals threads:          12
    Memory (MB):             21457
    Algorithm:                Core
    Integral Cache:           NONE
    Schwarz Cutoff:          1E-12
    Fitting Condition:       1E-12

   => Auxiliary Basis Set <=

  Basis Set: 
    Number of shells: 492
    Number of basis function: 1660
    Number of Cartesian functions: 2038
    Spherical Harmonics?: true
    Max angular momentum: 4

  Minimum eigenvalue in the overlap matrix is 2.1932148429E-06.
  Using Symmetric Orthogonalization.
  SCF Guess: Superposition of Atomic Densities via on-the-fly atomic UHF.

  ==> Iterations <==

                           Total Energy        Delta E     RMS |[F,P]|

   @DF-RHF iter   0:  -316.89712470220331   -3.16897e+02   6.99507e-03 
   @DF-RHF iter   1:  -313.26421440224067    3.63291e+00   7.93900e-04 
   @DF-RHF iter   2:  -313.49847657543444   -2.34262e-01   3.17672e-04 DIIS
   @DF-RHF iter   3:  -313.53494755035501   -3.64710e-02   1.00598e-04 DIIS
   @DF-RHF iter   4:  -313.54051960326058   -5.57205e-03   1.50701e-05 DIIS
   @DF-RHF iter   5:  -313.54066632692229   -1.46724e-04   4.90106e-06 DIIS
   @DF-RHF iter   6:  -313.54067850403430   -1.21771e-05   1.29216e-06 DIIS
   @DF-RHF iter   7:  -313.54067950494687   -1.00091e-06   2.57825e-07 DIIS
   @DF-RHF iter   8:  -313.54067954973061   -4.47837e-08   7.43383e-08 DIIS
   @DF-RHF iter   9:  -313.54067955300411   -3.27350e-09   2.06114e-08 DIIS
   @DF-RHF iter  10:  -313.54067955330515   -3.01043e-10   5.73307e-09 DIIS
   @DF-RHF iter  11:  -313.54067955333005   -2.48974e-11   1.35611e-09 DIIS
   @DF-RHF iter  12:  -313.54067955333107   -1.02318e-12   4.32770e-10 DIIS
   @DF-RHF iter  13:  -313.54067955333096    1.13687e-13   1.21450e-10 DIIS
   @DF-RHF iter  14:  -313.54067955333062    3.41061e-13   2.81642e-11 DIIS

  ==> Post-Iterations <==

    Orbital Energies (a.u.)
    -----------------------

    Doubly Occupied:                                                      

       1A    -11.210742     2A    -11.210733     3A    -11.209027  
       4A    -11.208406     5A    -11.208246     6A    -11.207582  
       7A    -11.205716     8A    -11.204208     9A     -1.097014  
      10A     -1.063351    11A     -1.011210    12A     -0.952963  
      13A     -0.881807    14A     -0.821293    15A     -0.787945  
      16A     -0.769581    17A     -0.654119    18A     -0.627058  
      19A     -0.611321    20A     -0.594318    21A     -0.579677  
      22A     -0.556254    23A     -0.547567    24A     -0.531530  
      25A     -0.514914    26A     -0.502513    27A     -0.481458  
      28A     -0.477550    29A     -0.467775    30A     -0.461427  
      31A     -0.453915    32A     -0.441541    33A     -0.429681  

    Virtual:                                                              

      34A      0.029731    35A      0.031773    36A      0.034196  
      37A      0.036084    38A      0.045722    39A      0.046573  
      40A      0.049932    41A      0.054225    42A      0.056704  
      43A      0.065624    44A      0.067106    45A      0.068563  
      46A      0.074946    47A      0.082323    48A      0.084843  
      49A      0.092271    50A      0.095854    51A      0.103595  
      52A      0.110606    53A      0.113282    54A      0.116747  
      55A      0.123137    56A      0.127612    57A      0.128855  
      58A      0.133184    59A      0.136595    60A      0.140996  
      61A      0.148934    62A      0.150349    63A      0.153267  
      64A      0.156418    65A      0.159019    66A      0.164111  
      67A      0.165498    68A      0.167610    69A      0.173785  
      70A      0.178312    71A      0.183656    72A      0.186069  
      73A      0.191343    74A      0.195263    75A      0.198229  
      76A      0.211997    77A      0.214307    78A      0.218144  
      79A      0.227814    80A      0.231665    81A      0.241811  
      82A      0.250742    83A      0.251590    84A      0.258207  
      85A      0.262894    86A      0.267320    87A      0.270349  
      88A      0.273533    89A      0.283788    90A      0.297705  
      91A      0.298942    92A      0.304587    93A      0.308938  
      94A      0.309437    95A      0.313978    96A      0.318743  
      97A      0.324034    98A      0.327500    99A      0.331567  
     100A      0.334289   101A      0.339310   102A      0.348370  
     103A      0.350363   104A      0.354941   105A      0.356624  
     106A      0.359027   107A      0.363868   108A      0.368774  
     109A      0.370886   110A      0.376004   111A      0.379062  
     112A      0.382177   113A      0.383672   114A      0.387155  
     115A      0.391205   116A      0.397471   117A      0.399434  
     118A      0.400254   119A      0.409682   120A      0.410783  
     121A      0.412403   122A      0.415220   123A      0.419871  
     124A      0.422379   125A      0.434110   126A      0.435934  
     127A      0.437721   128A      0.439574   129A      0.442202  
     130A      0.449604   131A      0.451121   132A      0.457502  
     133A      0.460286   134A      0.464898   135A      0.466858  
     136A      0.468922   137A      0.472797   138A      0.479250  
     139A      0.482539   140A      0.484707   141A      0.489046  
     142A      0.491187   143A      0.495102   144A      0.498013  
     145A      0.501220   146A      0.505298   147A      0.506831  
     148A      0.512075   149A      0.519330   150A      0.522308  
     151A      0.529948   152A      0.535166   153A      0.538376  
     154A      0.540504   155A      0.547570   156A      0.551260  
     157A      0.553475   158A      0.554223   159A      0.561832  
     160A      0.566311   161A      0.572149   162A      0.573956  
     163A      0.583061   164A      0.588291   165A      0.590335  
     166A      0.594209   167A      0.596792   168A      0.602986  
     169A      0.605484   170A      0.615374   171A      0.620002  
     172A      0.621831   173A      0.625443   174A      0.631192  
     175A      0.642314   176A      0.644116   177A      0.648227  
     178A      0.653711   179A      0.655995   180A      0.661444  
     181A      0.665979   182A      0.670913   183A      0.680110  
     184A      0.685750   185A      0.686494   186A      0.691875  
     187A      0.696658   188A      0.704944   189A      0.709304  
     190A      0.722380   191A      0.725566   192A      0.732389  
     193A      0.738612   194A      0.744742   195A      0.751675  
     196A      0.755302   197A      0.766411   198A      0.777058  
     199A      0.785882   200A      0.794243   201A      0.800992  
     202A      0.813125   203A      0.822538   204A      0.827928  
     205A      0.833241   206A      0.836769   207A      0.844483  
     208A      0.849560   209A      0.853775   210A      0.859763  
     211A      0.860836   212A      0.866386   213A      0.873077  
     214A      0.877304   215A      0.883219   216A      0.887254  
     217A      0.892665   218A      0.901492   219A      0.903812  
     220A      0.908812   221A      0.913531   222A      0.917723  
     223A      0.922043   224A      0.923616   225A      0.927991  
     226A      0.937298   227A      0.941389   228A      0.944993  
     229A      0.946667   230A      0.951698   231A      0.958249  
     232A      0.960585   233A      0.967619   234A      0.976679  
     235A      0.977357   236A      0.985611   237A      0.989472  
     238A      0.996974   239A      1.001369   240A      1.006422  
     241A      1.009824   242A      1.016733   243A      1.019251  
     244A      1.027321   245A      1.029109   246A      1.034152  
     247A      1.036097   248A      1.044388   249A      1.050556  
     250A      1.056865   251A      1.061541   252A      1.069070  
     253A      1.072966   254A      1.083768   255A      1.085337  
     256A      1.089656   257A      1.098857   258A      1.103753  
     259A      1.115170   260A      1.116709   261A      1.123065  
     262A      1.124879   263A      1.133406   264A      1.137383  
     265A      1.146719   266A      1.148041   267A      1.154472  
     268A      1.158507   269A      1.168516   270A      1.171613  
     271A      1.175695   272A      1.178252   273A      1.180558  
     274A      1.184866   275A      1.194775   276A      1.199061  
     277A      1.202950   278A      1.209378   279A      1.214449  
     280A      1.217824   281A      1.224717   282A      1.229781  
     283A      1.232844   284A      1.238019   285A      1.244530  
     286A      1.246492   287A      1.252143   288A      1.258415  
     289A      1.266979   290A      1.271781   291A      1.281473  
     292A      1.285217   293A      1.286424   294A      1.291384  
     295A      1.299030   296A      1.309446   297A      1.313663  
     298A      1.319705   299A      1.325024   300A      1.327209  
     301A      1.335033   302A      1.342782   303A      1.343303  
     304A      1.348377   305A      1.355345   306A      1.357675  
     307A      1.369286   308A      1.370807   309A      1.376756  
     310A      1.385642   311A      1.396121   312A      1.400694  
     313A      1.407540   314A      1.417248   315A      1.424520  
     316A      1.434264   317A      1.441661   318A      1.444480  
     319A      1.447872   320A      1.462779   321A      1.468120  
     322A      1.475905   323A      1.483411   324A      1.492739  
     325A      1.496817   326A      1.519613   327A      1.525082  
     328A      1.528430   329A      1.535350   330A      1.545437  
     331A      1.553638   332A      1.556029   333A      1.565385  
     334A      1.579079   335A      1.585674   336A      1.593346  
     337A      1.609784   338A      1.611955   339A      1.612827  
     340A      1.620110   341A      1.628758   342A      1.631089  
     343A      1.638241   344A      1.642622   345A      1.646926  
     346A      1.658033   347A      1.667703   348A      1.670454  
     349A      1.672130   350A      1.683405   351A      1.686716  
     352A      1.695742   353A      1.698992   354A      1.700032  
     355A      1.706084   356A      1.707421   357A      1.722790  
     358A      1.729060   359A      1.734965   360A      1.738355  
     361A      1.744762   362A      1.757158   363A      1.759563  
     364A      1.763261   365A      1.765526   366A      1.773776  
     367A      1.774597   368A      1.783349   369A      1.787573  
     370A      1.790924   371A      1.794072   372A      1.795271  
     373A      1.800892   374A      1.804792   375A      1.817381  
     376A      1.822332   377A      1.837391   378A      1.841800  
     379A      1.848349   380A      1.854479   381A      1.860179  
     382A      1.862833   383A      1.866571   384A      1.870507  
     385A      1.878130   386A      1.883513   387A      1.890858  
     388A      1.900524   389A      1.906723   390A      1.909038  
     391A      1.911878   392A      1.932377   393A      1.937751  
     394A      1.947299   395A      1.955027   396A      1.959331  
     397A      1.966128   398A      1.974410   399A      1.983170  
     400A      1.987398   401A      1.995418   402A      1.999787  
     403A      2.011018   404A      2.013041   405A      2.028301  
     406A      2.029455   407A      2.036564   408A      2.051026  
     409A      2.052671   410A      2.055194   411A      2.068442  
     412A      2.081995   413A      2.088472   414A      2.095400  
     415A      2.097754   416A      2.106435   417A      2.109596  
     418A      2.121449   419A      2.134240   420A      2.136334  
     421A      2.148936   422A      2.152147   423A      2.158712  
     424A      2.169992   425A      2.178350   426A      2.194507  
     427A      2.198927   428A      2.202216   429A      2.210464  
     430A      2.219742   431A      2.235954   432A      2.243568  
     433A      2.246612   434A      2.254156   435A      2.267896  
     436A      2.276183   437A      2.278865   438A      2.299780  
     439A      2.302098   440A      2.311337   441A      2.320610  
     442A      2.329508   443A      2.336973   444A      2.344687  
     445A      2.349104   446A      2.361160   447A      2.365154  
     448A      2.369336   449A      2.374540   450A      2.385198  
     451A      2.394468   452A      2.399153   453A      2.415042  
     454A      2.416392   455A      2.434901   456A      2.443216  
     457A      2.450490   458A      2.464187   459A      2.477373  
     460A      2.497131   461A      2.500767   462A      2.505959  
     463A      2.517409   464A      2.521948   465A      2.537865  
     466A      2.545149   467A      2.550980   468A      2.564724  
     469A      2.578019   470A      2.593985   471A      2.607263  
     472A      2.616806   473A      2.640943   474A      2.646022  
     475A      2.661454   476A      2.675099   477A      2.688005  
     478A      2.712128   479A      2.754128   480A      2.790112  
     481A      2.845441   482A      2.857014   483A      2.886293  
     484A      2.910708   485A      2.947197   486A      2.959337  
     487A      3.013006   488A      3.030218   489A      3.057616  
     490A      3.124820   491A      3.151065   492A      3.215541  
     493A      3.269097   494A      3.302780   495A      3.341483  
     496A      3.405157   497A      3.415955   498A      3.438857  
     499A      3.459113   500A      3.474114   501A      3.481074  
     502A      3.501721   503A      3.520995   504A      3.531798  
     505A      3.541233   506A      3.549839   507A      3.563784  
     508A      3.569049   509A      3.571859   510A      3.576418  
     511A      3.592748   512A      3.607678   513A      3.622761  
     514A      3.627522   515A      3.643380   516A      3.650268  
     517A      3.659509   518A      3.669197   519A      3.687054  
     520A      3.696436   521A      3.702368   522A      3.711597  
     523A      3.717106   524A      3.719042   525A      3.732047  
     526A      3.743623   527A      3.751197   528A      3.761596  
     529A      3.769300   530A      3.770582   531A      3.782622  
     532A      3.791666   533A      3.804102   534A      3.811568  
     535A      3.827665   536A      3.838353   537A      3.842656  
     538A      3.847688   539A      3.852649   540A      3.854913  
     541A      3.862758   542A      3.867988   543A      3.879107  
     544A      3.895107   545A      3.896114   546A      3.903999  
     547A      3.910590   548A      3.916984   549A      3.930547  
     550A      3.940969   551A      3.942854   552A      3.952435  
     553A      3.961862   554A      3.962892   555A      3.965778  
     556A      3.984609   557A      3.991509   558A      3.996916  
     559A      3.998196   560A      4.002558   561A      4.020812  
     562A      4.029066   563A      4.029650   564A      4.039538  
     565A      4.047203   566A      4.053381   567A      4.058508  
     568A      4.068346   569A      4.075235   570A      4.078201  
     571A      4.093252   572A      4.097490   573A      4.106766  
     574A      4.111980   575A      4.127305   576A      4.140164  
     577A      4.148737   578A      4.160008   579A      4.166087  
     580A      4.177708   581A      4.191229   582A      4.198441  
     583A      4.206082   584A      4.221179   585A      4.242273  
     586A      4.246606   587A      4.253813   588A      4.260004  
     589A      4.265971   590A      4.274813   591A      4.284230  
     592A      4.291355   593A      4.305790   594A      4.317792  
     595A      4.328992   596A      4.339109   597A      4.345096  
     598A      4.356491   599A      4.365026   600A      4.371341  
     601A      4.379169   602A      4.398543   603A      4.407610  
     604A      4.417217   605A      4.425398   606A      4.438073  
     607A      4.453434   608A      4.465615   609A      4.485358  
     610A      4.492581   611A      4.502273   612A      4.520493  
     613A      4.531258   614A      4.543302   615A      4.565923  
     616A      4.576907   617A      4.581603   618A      4.600385  
     619A      4.604018   620A      4.619620   621A      4.635253  
     622A      4.653070   623A      4.663994   624A      4.672671  
     625A      4.682142   626A      4.696199   627A      4.705706  
     628A      4.720487   629A      4.733361   630A      4.743172  
     631A      4.747640   632A      4.752849   633A      4.762180  
     634A      4.778596   635A      4.789063   636A      4.802534  
     637A      4.817193   638A      4.837839   639A      4.839650  
     640A      4.853679   641A      4.854324   642A      4.873814  
     643A      4.878439   644A      4.882177   645A      4.886611  
     646A      4.890698   647A      4.911117   648A      4.914535  
     649A      4.925615   650A      4.945418   651A      4.955813  
     652A      4.958811   653A      4.972820   654A      4.990213  
     655A      4.995935   656A      5.002456   657A      5.021909  
     658A      5.042715   659A      5.050773   660A      5.059363  
     661A      5.075477   662A      5.092278   663A      5.107400  
     664A      5.112618   665A      5.126500   666A      5.136095  
     667A      5.151661   668A      5.164658   669A      5.171769  
     670A      5.188548   671A      5.197765   672A      5.199557  
     673A      5.217781   674A      5.225426   675A      5.239756  
     676A      5.252849   677A      5.264027   678A      5.269582  
     679A      5.276353   680A      5.297501   681A      5.304360  
     682A      5.324545   683A      5.338755   684A      5.345920  
     685A      5.355647   686A      5.362760   687A      5.373185  
     688A      5.386392   689A      5.397337   690A      5.404295  
     691A      5.411942   692A      5.415212   693A      5.424893  
     694A      5.438336   695A      5.447121   696A      5.453361  
     697A      5.467038   698A      5.486598   699A      5.494196  
     700A      5.514530   701A      5.521193   702A      5.527109  
     703A      5.536352   704A      5.555318   705A      5.570889  
     706A      5.578757   707A      5.596442   708A      5.614934  
     709A      5.623312   710A      5.638048   711A      5.640813  
     712A      5.654209   713A      5.670562   714A      5.679589  
     715A      5.687255   716A      5.713705   717A      5.722900  
     718A      5.728703   719A      5.745342   720A      5.753925  
     721A      5.778866   722A      5.789173   723A      5.813364  
     724A      5.814768   725A      5.841236   726A      5.853154  
     727A      5.865761   728A      5.877175   729A      5.894532  
     730A      5.909178   731A      5.947713   732A      5.978099  
     733A      5.997450   734A      6.015592   735A      6.044704  
     736A      6.055508   737A      6.073346   738A      6.088347  
     739A      6.108749   740A      6.137443   741A      6.159002  
     742A      6.171788   743A      6.189334   744A      6.208219  
     745A      6.218908   746A      6.232955   747A      6.254564  
     748A      6.271012   749A      6.287783   750A      6.291807  
     751A      6.309743   752A      6.330728   753A      6.333562  
     754A      6.366737   755A      6.409797   756A      6.416513  
     757A      6.419251   758A      6.470663   759A      6.557741  
     760A      6.624386   761A      6.650127   762A      6.695307  
     763A      6.734808   764A      6.770983   765A      6.797931  
     766A      6.841175   767A      6.862720   768A      6.876135  
     769A      6.895782   770A      6.936249   771A      6.975023  
     772A      7.032422   773A      7.061039   774A      7.135984  
     775A     18.064030   776A     18.206220   777A     18.388770  
     778A     18.580123   779A     18.898329   780A     19.105927  
     781A     19.424753   782A     19.984917  

    Final Occupation by Irrep:
              A 
    DOCC [    33 ]

  Energy converged.

  @DF-RHF Final Energy:  -313.54067955333062

   => Energetics <=

    Nuclear Repulsion Energy =            390.3275221177757430
    One-Electron Energy =               -1195.7715252801986026
    Two-Electron Energy =                 491.9033236090921264
    DFT Exchange-Correlation Energy =       0.0000000000000000
    Empirical Dispersion Energy =           0.0000000000000000
    PCM Polarization Energy =               0.0000000000000000
    EFP Energy =                            0.0000000000000000
    Total Energy =                       -313.5406795533307331


  Saving occupied orbitals to File 180.

*** tstop() called on wr32 at Tue Sep 20 16:44:26 2016
Module time:
	user time   =     879.09 seconds =      14.65 minutes
	system time =       9.54 seconds =       0.16 minutes
	total time  =         80 seconds =       1.33 minutes
Total time:
	user time   =     879.09 seconds =      14.65 minutes
	system time =       9.54 seconds =       0.16 minutes
	total time  =         80 seconds =       1.33 minutes


Properties will be evaluated at   0.000000,   0.000000,   0.000000 Bohr

Properties computed using the SCF density matrix

  Nuclear Dipole Moment: (a.u.)
     X:    -1.0062      Y:    -1.3650      Z:     0.0141

  Electronic Dipole Moment: (a.u.)
     X:     1.0257      Y:     1.3799      Z:    -0.0210

  Dipole Moment: (a.u.)
     X:     0.0194      Y:     0.0149      Z:    -0.0069     Total:     0.0255

  Dipole Moment: (Debye)
     X:     0.0494      Y:     0.0380      Z:    -0.0176     Total:     0.0648


  //>>>>>>>>>>>>>>>>>>>>>>>>>>>>>>>>>>>//
  //               DFMP2               //
  //<<<<<<<<<<<<<<<<<<<<<<<<<<<<<<<<<<<//


*** tstart() called on wr32
*** at Tue Sep 20 16:44:26 2016


*** tstop() called on wr32 at Tue Sep 20 16:44:27 2016
Module time:
	user time   =       4.24 seconds =       0.07 minutes
	system time =       0.21 seconds =       0.00 minutes
	total time  =          1 seconds =       0.02 minutes
Total time:
	user time   =     884.81 seconds =      14.75 minutes
	system time =       9.83 seconds =       0.16 minutes
	total time  =         81 seconds =       1.35 minutes
	 --------------------------------------------------------
	                          DF-MP2                         
	      2nd-Order Density-Fitted Moller-Plesset Theory     
	              RMP2 Wavefunction,  12 Threads             
	                                                         
	        Rob Parrish, Justin Turney, Andy Simmonett,      
	           Ed Hohenstein, and C. David Sherrill          
	 --------------------------------------------------------

   => Auxiliary Basis Set <=

  Basis Set: 
    Number of shells: 476
    Number of basis function: 1676
    Number of Cartesian functions: 2078
    Spherical Harmonics?: true
    Max angular momentum: 4

	 --------------------------------------------------------
	                 NBF =   782, NAUX =  1676
	 --------------------------------------------------------
	   CLASS    FOCC     OCC    AOCC    AVIR     VIR    FVIR
	   PAIRS       8      33      25     749     749       0
	 --------------------------------------------------------

DGAS Warning! /src/lib/libfock/apps.cc:80 is not currently checking restricted

         ------------------------------------------------------------
                                     CPHF                           
                                  Rob Parrish                       
         ------------------------------------------------------------

  ==> Geometry <==

    Molecular point group: c1
    Full point group: C1

    Geometry (in Angstrom), charge = 0, multiplicity = 1:

       Center              X                  Y                   Z               Mass       
    ------------   -----------------  -----------------  -----------------  -----------------
           C         -4.043958726254    -0.260548940365    -0.139899140762    12.000000000000
           H         -4.345145647250     0.522541594324     0.553580168893     1.007825032070
           H         -4.724639990912    -1.099573313161    -0.015397950373     1.007825032070
           H         -4.167787757830     0.125849821436    -1.149953874992     1.007825032070
           C          2.758148285602    -1.544840682132     0.165429890971    12.000000000000
           H          3.160738110458    -2.333940565297    -0.466523238601     1.007825032070
           H          1.740949953572    -1.814646897429     0.434516946652     1.007825032070
           H          3.345518831276    -1.518012741499     1.081769158295     1.007825032070
           C         -2.602609969275    -0.666401708757     0.104407913241    12.000000000000
           H         -2.322724507236    -1.465750451689    -0.583527270552     1.007825032070
           H         -2.499315210390    -1.073400125410     1.111513644462     1.007825032070
           C          2.813361776468    -0.194533428124    -0.530530535249    12.000000000000
           H          3.852726007761     0.029465527116    -0.768218567216     1.007825032070
           H          2.287345507763    -0.247842501749    -1.485786819936     1.007825032070
           C         -1.635401730592     0.489659895946    -0.062432229266    12.000000000000
           H         -1.910265334267     1.292421850007     0.626159061767     1.007825032070
           H         -1.733974058297     0.899330026487    -1.070913850213     1.007825032070
           C         -0.190365162113     0.096872131187     0.177298412033    12.000000000000
           H          0.070098808960    -0.715870674503    -0.502706482652     1.007825032070
           H         -0.085456639173    -0.296907101858     1.191526840121     1.007825032070
           C          0.768177022987     1.257101251093    -0.016474431552    12.000000000000
           H          0.700445342623     1.597589637742    -1.052662180456     1.007825032070
           H          0.437819111349     2.091791091555     0.605377713297     1.007825032070
           C          2.222792635068     0.944979816460     0.300939598850    12.000000000000
           H          2.806670354602     1.852198853386     0.144682785015     1.007825032070
           H          2.313666381731     0.698689712011     1.361572732838     1.007825032070

  Nuclear repulsion =  390.327522117775743
  Reference energy  = -313.540679553330619

  ==> Basis Set <==

  Basis Set: AUG-CC-PVTZ
    Number of shells: 274
    Number of basis function: 782
    Number of Cartesian functions: 890
    Spherical Harmonics?: true
    Max angular momentum: 3

  ==> CGRSolver (by Rob Parrish) <==

   Number of roots    =         1
   Preconditioning    =    JACOBI
   Convergence cutoff =     1E-06
   Maximum iterations =       100

  ==> CPHFRHamiltonian (by Rob Parrish) <== 

  ==> DFJK: Density-Fitted J/K Matrices <==

    J tasked:                  Yes
    K tasked:                  Yes
    wK tasked:                  No
    OpenMP threads:             12
    Integrals threads:          12
    Memory (MB):             21457
    Algorithm:                Core
    Integral Cache:           NONE
    Schwarz Cutoff:          1E-12
    Fitting Condition:       1E-12

   => Auxiliary Basis Set <=

  Basis Set: 
    Number of shells: 492
    Number of basis function: 1660
    Number of Cartesian functions: 2038
    Spherical Harmonics?: true
    Max angular momentum: 4

  ==> CPHF Iterations <==

  => Iterations <=

             Iter  Converged  Remaining    Residual
  CGR           1          0          1   8.963E-02
  CGR           2          0          1   1.272E-02
  CGR           3          0          1   3.446E-03
  CGR           4          0          1   8.346E-04
  CGR           5          0          1   2.007E-04
  CGR           6          0          1   4.663E-05
  CGR           7          0          1   1.347E-05
  CGR           8          0          1   3.392E-06
  CGR           9          1          0   8.410E-07

    CGRSolver converged.

  ==> DFCorrGrad: Density-Fitted Correlated Gradients <==

    OpenMP threads:             12
    Integrals threads:          12
    Memory (MB):             21457
    Schwarz Cutoff:          0E+00
    Fitting Condition:       1E-12

   => Auxiliary Basis Set <=

  Basis Set: 
    Number of shells: 492
    Number of basis function: 1660
    Number of Cartesian functions: 2038
    Spherical Harmonics?: true
    Max angular momentum: 4

	-----------------------------------------------------------
	 ==================> DF-MP2 Energies <==================== 
	-----------------------------------------------------------
	 Reference Energy          =    -313.5406795533306195 [Eh]
	 Singles Energy            =      -0.0000000000000000 [Eh]
	 Same-Spin Energy          =      -0.3160131100108893 [Eh]
	 Opposite-Spin Energy      =      -1.1243015571300148 [Eh]
	 Correlation Energy        =      -1.4403146671409042 [Eh]
	 Total Energy              =    -314.9809942204715298 [Eh]
	-----------------------------------------------------------
	 ================> DF-SCS-MP2 Energies <================== 
	-----------------------------------------------------------
	 SCS Same-Spin Scale       =       0.3333333333333333 [-]
	 SCS Opposite-Spin Scale   =       1.2000000000000000 [-]
	 SCS Same-Spin Energy      =      -0.1053377033369631 [Eh]
	 SCS Opposite-Spin Energy  =      -1.3491618685560176 [Eh]
	 SCS Correlation Energy    =      -1.4544995718929807 [Eh]
	 SCS Total Energy          =    -314.9951791252236148 [Eh]
	-----------------------------------------------------------


  -Total Gradient:
     Atom            X                  Y                   Z
    ------   -----------------  -----------------  -----------------
       1        0.001461938850    -0.000450463530     0.000244948552
       2        0.000705878202    -0.001048978223    -0.000859099580
       3        0.001064998406     0.000954216433    -0.000110240820
       4        0.000481558252    -0.000549889902     0.001351577589
       5       -0.000395251787     0.001404076819    -0.000562418399
       6       -0.000515511055     0.001143149386     0.000653534532
       7        0.001390048589     0.000759620364    -0.000508911006
       8       -0.000695572209     0.000275766322    -0.001236968068
       9       -0.000484359873     0.002053093291    -0.000547710051
      10       -0.000332309692     0.001333968454     0.000740412203
      11       -0.000122195104     0.000868735108    -0.001285866215
      12       -0.000633912913    -0.000403314335     0.001707058266
      13       -0.001372393694    -0.000090317951     0.000458754433
      14        0.000309388412     0.000014199239     0.001573994625
      15        0.000602633292    -0.002029425142     0.000519825259
      16        0.000462215441    -0.001240217063    -0.000655184553
      17        0.000266710417    -0.000771991944     0.001209172631
      18       -0.000591067695     0.001702139815    -0.000604507722
      19       -0.000356881654     0.001316270000     0.000743232798
      20       -0.000084727821     0.000686939038    -0.001297825950
      21        0.000624231995    -0.001820032756     0.000771928444
      22        0.000252378789    -0.000768910441     0.001324232595
      23        0.000394321904    -0.001279807514    -0.000648947791
      24       -0.001227604536    -0.000910559353    -0.001497347403
      25       -0.000632728977    -0.001176509089    -0.000048494535
      26       -0.000571785533     0.000028242978    -0.001435149831


			-----------------------------------------
			 OPTKING 2.0: for geometry optimizations 
			  - R.A. King,  Bethel University        
			-----------------------------------------

	Internal coordinates to be generated automatically.
	Detected frag 1 with atoms:  1 2 3 4 5 6 7 8 9 10 11 12 13 14 15 16 17 18 19 20
	 21 22 23 24 25 26
	---Fragment 1 Bond Connectivity---
	 1 : 2 3 4 9
	 2 : 1
	 3 : 1
	 4 : 1
	 5 : 6 7 8 12
	 6 : 5
	 7 : 5
	 8 : 5
	 9 : 1 10 11 15
	 10 : 9
	 11 : 9
	 12 : 5 13 14 24
	 13 : 12
	 14 : 12
	 15 : 9 16 17 18
	 16 : 15
	 17 : 15
	 18 : 15 19 20 21
	 19 : 18
	 20 : 18
	 21 : 18 22 23 24
	 22 : 21
	 23 : 21
	 24 : 12 21 25 26
	 25 : 24
	 26 : 24

	---Fragment 1 Geometry and Gradient---
	 C          -7.6419744853       -0.4923661415       -0.2643710623
	 H          -8.2111352808        0.9874605063        1.0461149118
	 H          -8.9282756593       -2.0778924249       -0.0290979092
	 H          -7.8759774423        0.2378216964       -2.1730978892
	 C           5.2121448937       -2.9193258082        0.3126171881
	 H           5.9729294065       -4.4105084788       -0.8816011556
	 H           3.2899186233       -3.4291856640        0.8211180293
	 H           6.3221143635       -2.8686283477        2.0442474482
	 C          -4.9182200726       -1.2593167240        0.1973023621
	 H          -4.3893132008       -2.7698669328       -1.1027067324
	 H          -4.7230212674       -2.0284322680        2.1004563810
	 C           5.3164832703       -0.3676149028       -1.0025574168
	 H           7.2805970197        0.0556817766       -1.4517227022
	 H           4.3224565810       -0.4683544524       -2.8077301815
	 C          -3.0904613881        0.9253231016       -0.1179798152
	 H          -3.6098783229        2.4423233447        1.1832691424
	 H          -3.2767360917        1.6994874531       -2.0237338888
	 C          -0.3597380216        0.1830617979        0.3350454425
	 H           0.1324675512       -1.3527995214       -0.9499775774
	 H          -0.1614896443       -0.5610731094        2.2516594078
	 C           1.4516441950        2.3755770859       -0.0311321638
	 H           1.3236498686        3.0190068881       -1.9892432315
	 H           0.8273582162        3.9529122902        1.1439980851
	 C           4.2004693305        1.7857530542        0.5686934244
	 H           5.3038383155        3.5001485765        0.2734108398
	 H           4.3721958243        1.3203322076        2.5729995751
	             0.0014619388       -0.0004504635        0.0002449486
	             0.0007058782       -0.0010489782       -0.0008590996
	             0.0010649984        0.0009542164       -0.0001102408
	             0.0004815583       -0.0005498899        0.0013515776
	            -0.0003952518        0.0014040768       -0.0005624184
	            -0.0005155111        0.0011431494        0.0006535345
	             0.0013900486        0.0007596204       -0.0005089110
	            -0.0006955722        0.0002757663       -0.0012369681
	            -0.0004843599        0.0020530933       -0.0005477101
	            -0.0003323097        0.0013339685        0.0007404122
	            -0.0001221951        0.0008687351       -0.0012858662
	            -0.0006339129       -0.0004033143        0.0017070583
	            -0.0013723937       -0.0000903180        0.0004587544
	             0.0003093884        0.0000141992        0.0015739946
	             0.0006026333       -0.0020294251        0.0005198253
	             0.0004622154       -0.0012402171       -0.0006551846
	             0.0002667104       -0.0007719919        0.0012091726
	            -0.0005910677        0.0017021398       -0.0006045077
	            -0.0003568817        0.0013162700        0.0007432328
	            -0.0000847278        0.0006869390       -0.0012978260
	             0.0006242320       -0.0018200328        0.0007719284
	             0.0002523788       -0.0007689104        0.0013242326
	             0.0003943219       -0.0012798075       -0.0006489478
	            -0.0012276045       -0.0009105594       -0.0014973474
	            -0.0006327290       -0.0011765091       -0.0000484945
	            -0.0005717855        0.0000282430       -0.0014351498

	Previous optimization step data not found.  Starting new optimization.

	---Fragment 1 Intrafragment Coordinates---
	 - Coordinate -           - BOHR/RAD -       - ANG/DEG -
	 R(1,2)           =         2.056989	       1.088512
	 R(1,3)           =         2.055193	       1.087561
	 R(1,4)           =         2.056981	       1.088507
	 R(1,9)           =         2.867088	       1.517198
	 R(5,6)           =         2.056350	       1.088174
	 R(5,7)           =         2.052677	       1.086230
	 R(5,8)           =         2.057461	       1.088761
	 R(5,12)          =         2.872595	       1.520112
	 R(9,10)          =         2.061923	       1.091123
	 R(9,11)          =         2.061950	       1.091137
	 R(9,15)          =         2.865791	       1.516511
	 R(12,13)         =         2.058804	       1.089472
	 R(12,14)         =         2.063222	       1.091810
	 R(12,24)         =         2.889863	       1.529250
	 R(15,16)         =         2.065026	       1.092765
	 R(15,17)         =         2.065412	       1.092969
	 R(15,18)         =         2.865839	       1.516537
	 R(18,19)         =         2.062140	       1.091237
	 R(18,20)         =         2.065538	       1.093036
	 R(18,21)         =         2.867458	       1.517393
	 R(21,22)         =         2.065087	       1.092797
	 R(21,23)         =         2.063650	       1.092036
	 R(21,24)         =         2.874669	       1.521209
	 R(24,25)         =         2.060041	       1.090126
	 R(24,26)         =         2.064788	       1.092639
	 B(1,9,10)        =         1.915729	     109.763208
	 B(1,9,11)        =         1.915946	     109.775640
	 B(1,9,15)        =         1.965207	     112.598075
	 B(2,1,3)         =         1.884831	     107.992838
	 B(2,1,4)         =         1.880018	     107.717090
	 B(2,1,9)         =         1.931273	     110.653784
	 B(3,1,4)         =         1.884816	     107.992005
	 B(3,1,9)         =         1.949574	     111.702366
	 B(4,1,9)         =         1.930985	     110.637276
	 B(5,12,13)       =         1.893543	     108.492031
	 B(5,12,14)       =         1.917396	     109.858697
	 B(5,12,24)       =         1.981170	     113.512663
	 B(6,5,7)         =         1.886201	     108.071360
	 B(6,5,8)         =         1.882891	     107.881689
	 B(6,5,12)        =         1.944248	     111.397221
	 B(7,5,8)         =         1.878453	     107.627412
	 B(7,5,12)        =         1.947732	     111.596806
	 B(8,5,12)        =         1.921806	     110.111390
	 B(9,15,16)       =         1.907378	     109.284695
	 B(9,15,17)       =         1.906809	     109.252088
	 B(9,15,18)       =         1.974560	     113.133948
	 B(10,9,11)       =         1.859162	     106.522114
	 B(10,9,15)       =         1.902342	     108.996194
	 B(11,9,15)       =         1.902351	     108.996664
	 B(12,24,21)      =         1.991842	     114.124135
	 B(12,24,25)      =         1.912767	     109.593503
	 B(12,24,26)      =         1.904669	     109.129488
	 B(13,12,14)      =         1.853322	     106.187546
	 B(13,12,24)      =         1.911167	     109.501823
	 B(14,12,24)      =         1.902903	     109.028291
	 B(15,18,19)      =         1.898458	     108.773647
	 B(15,18,20)      =         1.908629	     109.356400
	 B(15,18,21)      =         1.964590	     112.562723
	 B(16,15,17)      =         1.858124	     106.462686
	 B(16,15,18)      =         1.907448	     109.288727
	 B(17,15,18)      =         1.905907	     109.200454
	 B(18,21,22)      =         1.896705	     108.673175
	 B(18,21,23)      =         1.897173	     108.700001
	 B(18,21,24)      =         2.004813	     114.867335
	 B(19,18,20)      =         1.861883	     106.678015
	 B(19,18,21)      =         1.916783	     109.823580
	 B(20,18,21)      =         1.910627	     109.470845
	 B(21,24,25)      =         1.887563	     108.149406
	 B(21,24,26)      =         1.905325	     109.167105
	 B(22,21,23)      =         1.857763	     106.441981
	 B(22,21,24)      =         1.897630	     108.726182
	 B(23,21,24)      =         1.904221	     109.103801
	 B(25,24,26)      =         1.856864	     106.390477
	 D(1,9,15,16)     =         1.013476	      58.067873
	 D(1,9,15,17)     =        -1.013170	     -58.050385
	 D(1,9,15,18)     =        -3.140247	    -179.922927
	 D(2,1,9,10)      =         3.120734	     178.804862
	 D(2,1,9,11)      =         1.082830	      62.041589
	 D(2,1,9,15)      =        -1.039893	     -59.581489
	 D(3,1,9,10)      =         1.020181	      58.452063
	 D(3,1,9,11)      =        -1.017723	     -58.311210
	 D(3,1,9,15)      =        -3.140446	    -179.934287
	 D(4,1,9,10)      =        -1.080157	     -61.888425
	 D(4,1,9,11)      =        -3.118060	    -178.651698
	 D(4,1,9,15)      =         1.042402	      59.725224
	 D(5,12,24,21)    =        -1.666538	     -95.485568
	 D(5,12,24,25)    =         2.497021	     143.068786
	 D(5,12,24,26)    =         0.470071	      26.933100
	 D(6,5,12,13)     =        -1.040946	     -59.641784
	 D(6,5,12,14)     =         0.978046	      56.037898
	 D(6,5,12,24)     =         3.113560	     178.393823
	 D(7,5,12,13)     =         3.132260	     179.465283
	 D(7,5,12,14)     =        -1.131934	     -64.855034
	 D(7,5,12,24)     =         1.003580	      57.500891
	 D(8,5,12,13)     =         1.047316	      60.006771
	 D(8,5,12,14)     =         3.066307	     175.686454
	 D(8,5,12,24)     =        -1.081364	     -61.957622
	 D(9,15,18,19)    =         0.995903	      57.061013
	 D(9,15,18,20)    =        -1.031263	     -59.087042
	 D(9,15,18,21)    =         3.124241	     179.005823
	 D(10,9,15,16)    =        -3.139565	    -179.883850
	 D(10,9,15,17)    =         1.116974	      63.997891
	 D(10,9,15,18)    =        -1.010103	     -57.874651
	 D(11,9,15,16)    =        -1.116950	     -63.996549
	 D(11,9,15,17)    =         3.139589	     179.885192
	 D(11,9,15,18)    =         1.012512	      58.012650
	 D(12,24,21,18)   =         1.027254	      58.857330
	 D(12,24,21,22)   =        -1.101827	     -63.130021
	 D(12,24,21,23)   =        -3.121213	    -178.832304
	 D(13,12,24,21)   =         2.497798	     143.113303
	 D(13,12,24,25)   =         0.378172	      21.667658
	 D(13,12,24,26)   =        -1.648778	     -94.468028
	 D(14,12,24,21)   =         0.476981	      27.328994
	 D(14,12,24,25)   =        -1.642645	     -94.116652
	 D(14,12,24,26)   =         2.613590	     149.747663
	 D(15,18,21,22)   =        -1.079803	     -61.868167
	 D(15,18,21,23)   =         0.935282	      53.587693
	 D(15,18,21,24)   =         3.073800	     176.115772
	 D(16,15,18,19)   =         3.125325	     179.067955
	 D(16,15,18,20)   =         1.098159	      62.919900
	 D(16,15,18,21)   =        -1.029521	     -58.987235
	 D(17,15,18,19)   =        -1.131680	     -64.840474
	 D(17,15,18,20)   =         3.124340	     179.011471
	 D(17,15,18,21)   =         0.996659	      57.104336
	 D(18,21,24,25)   =        -3.122432	    -178.902200
	 D(18,21,24,26)   =        -1.108996	     -63.540763
	 D(19,18,21,22)   =         1.038124	      59.480107
	 D(19,18,21,23)   =         3.053209	     174.935966
	 D(19,18,21,24)   =        -1.091458	     -62.535955
	 D(20,18,21,22)   =         3.076833	     176.289560
	 D(20,18,21,23)   =        -1.191267	     -68.254581
	 D(20,18,21,24)   =         0.947251	      54.273498
	 D(22,21,24,25)   =         1.031672	      59.110449
	 D(22,21,24,26)   =         3.045109	     174.471885
	 D(23,21,24,25)   =        -0.987714	     -56.591833
	 D(23,21,24,26)   =         1.025723	      58.769603
	 R(5,18)          =         6.377397	       3.374773

	Current energy   :      -314.9809942205

	Generating empirical Hessian (Schlegel '84) for each fragment.
	Taking RFO optimization step.
	Going to follow RFO solution 1.
	Using RFO vector 1.
	Norm of target step-size    0.12821
	Projected energy change by RFO approximation:        -0.0008992440

	Back-transformation to cartesian coordinates...
	Successfully converged to displaced geometry.

	--- Internal Coordinate Step in ANG or DEG, aJ/ANG or AJ/DEG ---
	 ---------------------------------------------------------------------------
	   Coordinate                Previous        Force       Change         New 
	   ----------                --------       ------       ------       ------
	    1 R(1,2)          =      1.088512     0.012336     0.002261     1.090773
	    2 R(1,3)          =      1.087561     0.011661     0.002131     1.089692
	    3 R(1,4)          =      1.088507     0.012392     0.002271     1.090779
	    4 R(1,9)          =      1.517198     0.032317     0.006763     1.523960
	    5 R(5,6)          =      1.088174     0.011528     0.002111     1.090284
	    6 R(5,7)          =      1.086230     0.013318     0.002423     1.088653
	    7 R(5,8)          =      1.088761     0.011613     0.002130     1.090892
	    8 R(5,12)         =      1.520112     0.029010     0.006674     1.526785
	    9 R(9,10)         =      1.091123     0.012600     0.002330     1.093452
	   10 R(9,11)         =      1.091137     0.012543     0.002319     1.093456
	   11 R(9,15)         =      1.516511     0.034857     0.007278     1.523789
	   12 R(12,13)        =      1.089472     0.011764     0.002163     1.091635
	   13 R(12,14)        =      1.091810     0.012580     0.002331     1.094141
	   14 R(12,24)        =      1.529250     0.028519     0.007190     1.536439
	   15 R(15,16)        =      1.092765     0.011865     0.002206     1.094970
	   16 R(15,17)        =      1.092969     0.011774     0.002190     1.095159
	   17 R(15,18)        =      1.516537     0.034913     0.007290     1.523827
	   18 R(18,19)        =      1.091237     0.012594     0.002329     1.093567
	   19 R(18,20)        =      1.093036     0.012027     0.002238     1.095274
	   20 R(18,21)        =      1.517393     0.032841     0.007122     1.524515
	   21 R(21,22)        =      1.092797     0.012447     0.002314     1.095111
	   22 R(21,23)        =      1.092036     0.012087     0.002241     1.094278
	   23 R(21,24)        =      1.521209     0.029604     0.007560     1.528769
	   24 R(24,25)        =      1.090126     0.010801     0.001990     1.092117
	   25 R(24,26)        =      1.092639     0.011922     0.002215     1.094854
	   26 B(1,9,10)       =    109.763208     0.000001    -0.005560   109.757647
	   27 B(1,9,11)       =    109.775640    -0.000001    -0.012768   109.762873
	   28 B(1,9,15)       =    112.598075    -0.000008     0.007171   112.605245
	   29 B(2,1,3)        =    107.992838    -0.000022    -0.113143   107.879695
	   30 B(2,1,4)        =    107.717090    -0.000022    -0.080835   107.636255
	   31 B(2,1,9)        =    110.653784     0.000024     0.117423   110.771207
	   32 B(3,1,4)        =    107.992005    -0.000022    -0.111886   107.880119
	   33 B(3,1,9)        =    111.702366     0.000013     0.044500   111.746866
	   34 B(4,1,9)        =    110.637276     0.000026     0.128425   110.765701
	   35 B(5,12,13)      =    108.492031     0.000018    -0.137760   108.354271
	   36 B(5,12,14)      =    109.858697    -0.000000     0.057716   109.916413
	   37 B(5,12,24)      =    113.512663    -0.000039     0.151576   113.664240
	   38 B(6,5,7)        =    108.071360    -0.000024    -0.112179   107.959181
	   39 B(6,5,8)        =    107.881689    -0.000021    -0.104381   107.777308
	   40 B(6,5,12)       =    111.397221     0.000008    -0.007452   111.389769
	   41 B(7,5,8)        =    107.627412    -0.000027    -0.094418   107.532994
	   42 B(7,5,12)       =    111.596806     0.000035     0.191445   111.788251
	   43 B(8,5,12)       =    110.111390     0.000025     0.110417   110.221807
	   44 B(9,15,16)      =    109.284695    -0.000005    -0.003293   109.281402
	   45 B(9,15,17)      =    109.252088    -0.000005     0.000451   109.252540
	   46 B(9,15,18)      =    113.133948     0.000017     0.100845   113.234793
	   47 B(10,9,11)      =    106.522114    -0.000013    -0.174056   106.348058
	   48 B(10,9,15)      =    108.996194     0.000010     0.088016   109.084210
	   49 B(11,9,15)      =    108.996664     0.000011     0.087880   109.084544
	   50 B(12,24,21)     =    114.124135    -0.000071     0.203900   114.328036
	   51 B(12,24,25)     =    109.593503     0.000030    -0.075310   109.518193
	   52 B(12,24,26)     =    109.129488     0.000017     0.061867   109.191355
	   53 B(13,12,14)     =    106.187546    -0.000019    -0.216649   105.970897
	   54 B(13,12,24)     =    109.501823     0.000018    -0.027540   109.474284
	   55 B(14,12,24)     =    109.028291     0.000023     0.144502   109.172793
	   56 B(15,18,19)     =    108.773647    -0.000002     0.015325   108.788971
	   57 B(15,18,20)     =    109.356400    -0.000006    -0.048774   109.307626
	   58 B(15,18,21)     =    112.562723     0.000008     0.056571   112.619294
	   59 B(16,15,17)     =    106.462686    -0.000010    -0.196926   106.265760
	   60 B(16,15,18)     =    109.288727    -0.000000     0.030531   109.319258
	   61 B(17,15,18)     =    109.200454     0.000001     0.049341   109.249795
	   62 B(18,21,22)     =    108.673175     0.000023     0.081245   108.754420
	   63 B(18,21,23)     =    108.700001     0.000030    -0.060349   108.639651
	   64 B(18,21,24)     =    114.867335    -0.000076     0.175044   115.042379
	   65 B(19,18,20)     =    106.678015    -0.000007    -0.130719   106.547296
	   66 B(19,18,21)     =    109.823580     0.000005     0.083310   109.906890
	   67 B(20,18,21)     =    109.470845     0.000002     0.013329   109.484173
	   68 B(21,24,25)     =    108.149406     0.000030    -0.137520   108.011886
	   69 B(21,24,26)     =    109.167105     0.000022     0.163711   109.330816
	   70 B(22,21,23)     =    106.441981    -0.000023    -0.204976   106.237005
	   71 B(22,21,24)     =    108.726182     0.000029     0.076601   108.802783
	   72 B(23,21,24)     =    109.103801     0.000020    -0.097564   109.006237
	   73 B(25,24,26)     =    106.390477    -0.000025    -0.251760   106.138717
	   74 D(1,9,15,16)    =     58.067873    -0.000002    -0.268852    57.799021
	   75 D(1,9,15,17)    =    -58.050385     0.000002    -0.031352   -58.081738
	   76 D(1,9,15,18)    =   -179.922927    -0.000000    -0.163368  -180.086295
	   77 D(2,1,9,10)     =    178.804862    -0.000002    -0.194772   178.610090
	   78 D(2,1,9,11)     =     62.041589     0.000001     0.026812    62.068400
	   79 D(2,1,9,15)     =    -59.581489    -0.000001    -0.081339   -59.662828
	   80 D(3,1,9,10)     =     58.452063    -0.000002    -0.161301    58.290763
	   81 D(3,1,9,11)     =    -58.311210     0.000002     0.060283   -58.250927
	   82 D(3,1,9,15)     =   -179.934287    -0.000000    -0.047868  -179.982155
	   83 D(4,1,9,10)     =    -61.888425    -0.000001    -0.136913   -62.025338
	   84 D(4,1,9,11)     =   -178.651698     0.000002     0.084671  -178.567028
	   85 D(4,1,9,15)     =     59.725224     0.000000    -0.023480    59.701744
	   86 D(5,12,24,21)   =    -95.485568     0.000007     1.586125   -93.899443
	   87 D(5,12,24,25)   =    143.068786     0.000004     1.679528   144.748314
	   88 D(5,12,24,26)   =     26.933100     0.000005     1.988797    28.921897
	   89 D(6,5,12,13)    =    -59.641784     0.000002     0.430017   -59.211767
	   90 D(6,5,12,14)    =     56.037898    -0.000001     0.125575    56.163473
	   91 D(6,5,12,24)    =    178.393823    -0.000000     0.463936   178.857760
	   92 D(7,5,12,13)    =    179.465283     0.000002     0.445952   179.911235
	   93 D(7,5,12,14)    =    -64.855034    -0.000000     0.141510   -64.713524
	   94 D(7,5,12,24)    =     57.500891     0.000000     0.479872    57.980762
	   95 D(8,5,12,13)    =     60.006771     0.000001     0.367243    60.374014
	   96 D(8,5,12,14)    =    175.686454    -0.000002     0.062801   175.749254
	   97 D(8,5,12,24)    =    -61.957622    -0.000001     0.401163   -61.556459
	   98 D(9,15,18,19)   =     57.061013    -0.000002     0.054418    57.115431
	   99 D(9,15,18,20)   =    -59.087042     0.000001     0.228799   -58.858242
	  100 D(9,15,18,21)   =    179.005823     0.000001     0.208331   179.214154
	  101 D(10,9,15,16)   =   -179.883850    -0.000002    -0.208856  -180.092707
	  102 D(10,9,15,17)   =     63.997891     0.000002     0.028644    64.026535
	  103 D(10,9,15,18)   =    -57.874651     0.000000    -0.103371   -57.978023
	  104 D(11,9,15,16)   =    -63.996549    -0.000003    -0.319594   -64.316143
	  105 D(11,9,15,17)   =    179.885192     0.000001    -0.082094   179.803098
	  106 D(11,9,15,18)   =     58.012650    -0.000001    -0.214109    57.798541
	  107 D(12,24,21,18)  =     58.857330    -0.000002     1.358490    60.215819
	  108 D(12,24,21,22)  =    -63.130021    -0.000002     1.072822   -62.057200
	  109 D(12,24,21,23)  =   -178.832304    -0.000002     1.327564  -177.504740
	  110 D(13,12,24,21)  =    143.113303     0.000005     1.680158   144.793462
	  111 D(13,12,24,25)  =     21.667658     0.000002     1.773561    23.441218
	  112 D(13,12,24,26)  =    -94.468028     0.000003     2.082830   -92.385198
	  113 D(14,12,24,21)  =     27.328994     0.000005     1.873933    29.202927
	  114 D(14,12,24,25)  =    -94.116652     0.000002     1.967335   -92.149316
	  115 D(14,12,24,26)  =    149.747663     0.000003     2.276605   152.024267
	  116 D(15,18,21,22)  =    -61.868167    -0.000000     0.471254   -61.396913
	  117 D(15,18,21,23)  =     53.587693     0.000000     0.239836    53.827529
	  118 D(15,18,21,24)  =    176.115772    -0.000001     0.188270   176.304042
	  119 D(16,15,18,19)  =    179.067955    -0.000000     0.141030   179.208985
	  120 D(16,15,18,20)  =     62.919900     0.000003     0.315411    63.235311
	  121 D(16,15,18,21)  =    -58.987235     0.000002     0.294943   -58.692292
	  122 D(17,15,18,19)  =    -64.840474    -0.000003    -0.050186   -64.890659
	  123 D(17,15,18,20)  =    179.011471     0.000000     0.124195   179.135667
	  124 D(17,15,18,21)  =     57.104336    -0.000001     0.103727    57.208063
	  125 D(18,21,24,25)  =   -178.902200     0.000001     1.296796  -177.605404
	  126 D(18,21,24,26)  =    -63.540763     0.000000     1.010908   -62.529855
	  127 D(19,18,21,22)  =     59.480107     0.000001     0.588142    60.068249
	  128 D(19,18,21,23)  =    174.935966     0.000002     0.356724   175.292690
	  129 D(19,18,21,24)  =    -62.535955     0.000001     0.305158   -62.230796
	  130 D(20,18,21,22)  =    176.289560     0.000000     0.485872   176.775432
	  131 D(20,18,21,23)  =    -68.254581     0.000000     0.254454   -68.000127
	  132 D(20,18,21,24)  =     54.273498    -0.000001     0.202889    54.476387
	  133 D(22,21,24,25)  =     59.110449     0.000001     1.011128    60.121577
	  134 D(22,21,24,26)  =    174.471885     0.000000     0.725240   175.197125
	  135 D(23,21,24,25)  =    -56.591833     0.000001     1.265870   -55.325963
	  136 D(23,21,24,26)  =     58.769603     0.000001     0.979982    59.749585
	  137 R(5,18)         =      3.374773     0.008490     0.010107     3.384880
	 ---------------------------------------------------------------------------

  ==> Convergence Check <==

  Measures of convergence in internal coordinates in au.
  Criteria marked as inactive (o), active & met (*), and active & unmet ( ).
  --------------------------------------------------------------------------------------------- ~
   Step     Total Energy     Delta E     MAX Force     RMS Force      MAX Disp      RMS Disp    ~
  --------------------------------------------------------------------------------------------- ~
    Convergence Criteria             o    2.00e-06 *    1.00e-06 *    6.00e-06 *    4.00e-06 *  ~
  --------------------------------------------------------------------------------------------- ~
      1    -314.98099422   -3.15e+02 o    4.24e-03      1.05e-03      3.97e-02      1.10e-02    ~
  ---------------------------------------------------------------------------------------------

	Writing optimization data to binary file.
	Structure for next step:
	Cartesian Geometry (in Angstrom)
	    C    -4.0636472691  -0.2920735125  -0.1255092476
	    H    -4.3717166752   0.5009624574   0.5571126254
	    H    -4.7420520760  -1.1337454917   0.0115435586
	    H    -4.1920772151   0.0793400590  -1.1430336822
	    C     2.7744635016  -1.5320418767   0.1283547136
	    H     3.2039815199  -2.3060429147  -0.5081643681
	    H     1.7493909185  -1.8173510790   0.3585490323
	    H     3.3319696133  -1.5245862664   1.0659987194
	    C    -2.6138438520  -0.6886770653   0.1259471529
	    H    -2.3302068113  -1.5004197251  -0.5495245642
	    H    -2.5087946318  -1.0818937769   1.1408319756
	    C     2.8448086237  -0.1603280460  -0.5383735619
	    H     3.8923398442   0.0695276258  -0.7421187250
	    H     2.3488459629  -0.1937993292  -1.5130765787
	    C    -1.6476239812   0.4748326751  -0.0600579057
	    H    -1.9297807460   1.2904108209   0.6138709613
	    H    -1.7480736612   0.8685976470  -1.0770302843
	    C    -0.1933830539   0.0944553795   0.1900332987
	    H     0.0749067676  -0.7294753156  -0.4770852443
	    H    -0.0889592638  -0.2850813551   1.2121251893
	    C     0.7626461618   1.2635125549  -0.0184361691
	    H     0.6903722639   1.5961544240  -1.0592983334
	    H     0.4260034837   2.1043968905   0.5955909479
	    C     2.2274115896   0.9669352951   0.3034959419
	    H     2.7982466078   1.8863807555   0.1569118236
	    H     2.3215857749   0.7162312461   1.3650910187
			--------------------------
			 OPTKING Finished Execution 
			--------------------------

    Structure for next step:
    Molecular point group: c1
    Full point group: C1

    Geometry (in Angstrom), charge = 0, multiplicity = 1:

    C           -4.063713486315    -0.292490224775    -0.126155901664
    H           -4.371782892406     0.500545745130     0.556465971282
    H           -4.742118293271    -1.134162204007     0.010896904475
    H           -4.192143432337     0.078923346726    -1.143680336260
    C            2.774397284315    -1.532458589009     0.127708059512
    H            3.203915302678    -2.306459626960    -0.508811022184
    H            1.749324701213    -1.817767791290     0.357902378241
    H            3.331903396009    -1.525002978746     1.065352065335
    C           -2.613910069243    -0.689093777578     0.125300498866
    H           -2.330273028589    -1.500836437357    -0.550171218329
    H           -2.508860849097    -1.082310489231     1.140185321517
    C            2.844742406454    -0.160744758296    -0.539020215982
    H            3.892273626916     0.069110913529    -0.742765379092
    H            2.348779745600    -0.194216041521    -1.513723232826
    C           -1.647690198484     0.474415962760    -0.060704559780
    H           -1.929846963291     1.289994108638     0.613224307211
    H           -1.748139878449     0.868180934744    -1.077676938347
    C           -0.193449271142     0.094038667214     0.189386644609
    H            0.074840550371    -0.729892027906    -0.477731898397
    H           -0.089025481002    -0.285498067443     1.211478535266
    C            0.762579944516     1.263095842566    -0.019082823224
    H            0.690306046647     1.595737711734    -1.059944987492
    H            0.425937266462     2.103980178228     0.594944293803
    C            2.227345372302     0.966518582747     0.302849287820
    H            2.798180390596     1.885964043158     0.156265169480
    H            2.321519557671     0.715814533822     1.364444364643

gradient() will perform analytic gradient computation.

*** tstart() called on wr32
*** at Tue Sep 20 16:51:48 2016


         ---------------------------------------------------------
                                   SCF
            by Justin Turney, Rob Parrish, and Andy Simmonett
                              RHF Reference
                       12 Threads,  30000 MiB Core
         ---------------------------------------------------------

  ==> Geometry <==

    Molecular point group: c1
    Full point group: C1

    Geometry (in Angstrom), charge = 0, multiplicity = 1:

       Center              X                  Y                   Z               Mass       
    ------------   -----------------  -----------------  -----------------  -----------------
           C         -4.063713486315    -0.292490224775    -0.126155901664    12.000000000000
           H         -4.371782892406     0.500545745130     0.556465971282     1.007825032070
           H         -4.742118293271    -1.134162204007     0.010896904475     1.007825032070
           H         -4.192143432337     0.078923346726    -1.143680336260     1.007825032070
           C          2.774397284315    -1.532458589009     0.127708059512    12.000000000000
           H          3.203915302678    -2.306459626960    -0.508811022184     1.007825032070
           H          1.749324701213    -1.817767791290     0.357902378241     1.007825032070
           H          3.331903396009    -1.525002978746     1.065352065335     1.007825032070
           C         -2.613910069243    -0.689093777578     0.125300498866    12.000000000000
           H         -2.330273028589    -1.500836437357    -0.550171218329     1.007825032070
           H         -2.508860849097    -1.082310489231     1.140185321517     1.007825032070
           C          2.844742406454    -0.160744758296    -0.539020215982    12.000000000000
           H          3.892273626916     0.069110913529    -0.742765379092     1.007825032070
           H          2.348779745600    -0.194216041521    -1.513723232826     1.007825032070
           C         -1.647690198484     0.474415962760    -0.060704559780    12.000000000000
           H         -1.929846963291     1.289994108638     0.613224307211     1.007825032070
           H         -1.748139878449     0.868180934744    -1.077676938347     1.007825032070
           C         -0.193449271142     0.094038667214     0.189386644609    12.000000000000
           H          0.074840550371    -0.729892027906    -0.477731898397     1.007825032070
           H         -0.089025481002    -0.285498067443     1.211478535266     1.007825032070
           C          0.762579944516     1.263095842566    -0.019082823224    12.000000000000
           H          0.690306046647     1.595737711734    -1.059944987492     1.007825032070
           H          0.425937266462     2.103980178228     0.594944293803     1.007825032070
           C          2.227345372302     0.966518582747     0.302849287820    12.000000000000
           H          2.798180390596     1.885964043158     0.156265169480     1.007825032070
           H          2.321519557671     0.715814533822     1.364444364643     1.007825032070

  Running in c1 symmetry.

  Rotational constants: A =      0.14223  B =      0.02319  C =      0.02093 [cm^-1]
  Rotational constants: A =   4263.92431  B =    695.27427  C =    627.35539 [MHz]
  Nuclear repulsion =  388.555638994107369

  Charge       = 0
  Multiplicity = 1
  Electrons    = 66
  Nalpha       = 33
  Nbeta        = 33

  ==> Algorithm <==

  SCF Algorithm Type is DF.
  DIIS enabled.
  MOM disabled.
  Fractional occupation disabled.
  Guess Type is READ.
  Energy threshold   = 1.00e-10
  Density threshold  = 1.00e-10
  Integral threshold = 0.00e+00

  ==> Primary Basis <==

  Basis Set: AUG-CC-PVTZ
    Number of shells: 274
    Number of basis function: 782
    Number of Cartesian functions: 890
    Spherical Harmonics?: true
    Max angular momentum: 3

  ==> Pre-Iterations <==

   -------------------------------------------------------
    Irrep   Nso     Nmo     Nalpha   Nbeta   Ndocc  Nsocc
   -------------------------------------------------------
     A        782     782       0       0       0       0
   -------------------------------------------------------
    Total     782     782      33      33      33       0
   -------------------------------------------------------

  ==> Integral Setup <==

  ==> DFJK: Density-Fitted J/K Matrices <==

    J tasked:                  Yes
    K tasked:                  Yes
    wK tasked:                  No
    OpenMP threads:             12
    Integrals threads:          12
    Memory (MB):             21457
    Algorithm:                Core
    Integral Cache:           NONE
    Schwarz Cutoff:          1E-12
    Fitting Condition:       1E-12

   => Auxiliary Basis Set <=

  Basis Set: 
    Number of shells: 492
    Number of basis function: 1660
    Number of Cartesian functions: 2038
    Spherical Harmonics?: true
    Max angular momentum: 4

  Minimum eigenvalue in the overlap matrix is 2.2962443825E-06.
  Using Symmetric Orthogonalization.
  SCF Guess: Reading in previously saved MOs, projecting if necessary.

  Using orbitals from previous SCF, no projection.
  Recomputing DOCC and SOCC from number of alpha and beta electrons from previous calculation.
              A 
    DOCC [    33 ]

  ==> Iterations <==

                           Total Energy        Delta E     RMS |[F,P]|

   @DF-RHF iter   0:  -313.48966873645730   -3.13490e+02   9.69274e-05 
   @DF-RHF iter   1:  -313.54062302325013   -5.09543e-02   2.20321e-05 
   @DF-RHF iter   2:  -313.54087513128633   -2.52108e-04   9.52690e-06 DIIS
   @DF-RHF iter   3:  -313.54091468008818   -3.95488e-05   3.47625e-06 DIIS
   @DF-RHF iter   4:  -313.54092339477762   -8.71469e-06   4.51884e-07 DIIS
   @DF-RHF iter   5:  -313.54092354557662   -1.50799e-07   1.54948e-07 DIIS
   @DF-RHF iter   6:  -313.54092355798986   -1.24132e-08   3.58084e-08 DIIS
   @DF-RHF iter   7:  -313.54092355879339   -8.03539e-10   7.89595e-09 DIIS
   @DF-RHF iter   8:  -313.54092355883296   -3.95630e-11   2.58315e-09 DIIS
   @DF-RHF iter   9:  -313.54092355883625   -3.29692e-12   6.99717e-10 DIIS
   @DF-RHF iter  10:  -313.54092355883694   -6.82121e-13   1.77754e-10 DIIS
   @DF-RHF iter  11:  -313.54092355883648    4.54747e-13   4.66669e-11 DIIS

  ==> Post-Iterations <==

    Orbital Energies (a.u.)
    -----------------------

    Doubly Occupied:                                                      

       1A    -11.212946     2A    -11.212861     3A    -11.211231  
       4A    -11.210628     5A    -11.210374     6A    -11.209683  
       7A    -11.207309     8A    -11.205679     9A     -1.093126  
      10A     -1.060097    11A     -1.008807    12A     -0.951202  
      13A     -0.881121    14A     -0.820708    15A     -0.787237  
      16A     -0.769349    17A     -0.651640    18A     -0.624402  
      19A     -0.609045    20A     -0.592830    21A     -0.578138  
      22A     -0.555161    23A     -0.545613    24A     -0.530701  
      25A     -0.514489    26A     -0.501728    27A     -0.481390  
      28A     -0.477209    29A     -0.467498    30A     -0.461342  
      31A     -0.454272    32A     -0.441064    33A     -0.428971  

    Virtual:                                                              

      34A      0.029773    35A      0.031785    36A      0.034251  
      37A      0.036164    38A      0.045658    39A      0.046531  
      40A      0.050001    41A      0.054158    42A      0.056813  
      43A      0.065280    44A      0.067050    45A      0.068528  
      46A      0.074806    47A      0.082197    48A      0.084965  
      49A      0.092236    50A      0.095558    51A      0.103339  
      52A      0.110762    53A      0.113369    54A      0.116929  
      55A      0.122998    56A      0.128009    57A      0.129137  
      58A      0.133371    59A      0.136517    60A      0.140919  
      61A      0.148928    62A      0.150309    63A      0.152846  
      64A      0.156693    65A      0.159028    66A      0.163685  
      67A      0.165046    68A      0.167759    69A      0.173626  
      70A      0.178035    71A      0.183624    72A      0.185812  
      73A      0.191539    74A      0.194984    75A      0.197529  
      76A      0.212396    77A      0.213542    78A      0.217324  
      79A      0.227809    80A      0.231174    81A      0.241230  
      82A      0.250385    83A      0.251296    84A      0.258045  
      85A      0.262612    86A      0.267491    87A      0.269853  
      88A      0.273083    89A      0.283059    90A      0.297111  
      91A      0.298159    92A      0.303885    93A      0.307307  
      94A      0.309861    95A      0.314053    96A      0.318209  
      97A      0.323689    98A      0.327122    99A      0.330701  
     100A      0.334217   101A      0.339091   102A      0.348271  
     103A      0.350352   104A      0.354150   105A      0.355944  
     106A      0.358942   107A      0.362823   108A      0.368310  
     109A      0.370393   110A      0.375703   111A      0.378886  
     112A      0.382280   113A      0.383340   114A      0.386022  
     115A      0.391062   116A      0.397045   117A      0.398025  
     118A      0.399252   119A      0.408255   120A      0.409970  
     121A      0.411752   122A      0.414425   123A      0.418863  
     124A      0.421016   125A      0.432591   126A      0.434511  
     127A      0.436366   128A      0.439182   129A      0.441898  
     130A      0.448160   131A      0.449777   132A      0.456500  
     133A      0.459032   134A      0.464179   135A      0.465842  
     136A      0.468205   137A      0.471512   138A      0.477065  
     139A      0.481945   140A      0.483230   141A      0.486819  
     142A      0.491000   143A      0.494071   144A      0.495690  
     145A      0.499982   146A      0.503357   147A      0.505779  
     148A      0.511423   149A      0.518538   150A      0.521167  
     151A      0.528943   152A      0.532652   153A      0.536925  
     154A      0.540735   155A      0.545849   156A      0.549588  
     157A      0.552020   158A      0.552819   159A      0.559236  
     160A      0.566178   161A      0.569657   162A      0.572962  
     163A      0.582249   164A      0.586708   165A      0.588889  
     166A      0.592557   167A      0.595250   168A      0.601625  
     169A      0.603939   170A      0.613314   171A      0.618930  
     172A      0.620125   173A      0.625012   174A      0.630433  
     175A      0.641211   176A      0.642717   177A      0.647854  
     178A      0.652767   179A      0.654104   180A      0.660579  
     181A      0.663297   182A      0.669049   183A      0.678279  
     184A      0.683330   185A      0.685110   186A      0.691772  
     187A      0.695671   188A      0.703527   189A      0.707229  
     190A      0.721558   191A      0.722791   192A      0.730177  
     193A      0.736723   194A      0.742051   195A      0.750618  
     196A      0.753904   197A      0.764133   198A      0.773830  
     199A      0.783918   200A      0.794049   201A      0.800232  
     202A      0.812162   203A      0.823611   204A      0.828321  
     205A      0.831139   206A      0.836228   207A      0.843475  
     208A      0.848456   209A      0.852397   210A      0.856978  
     211A      0.860451   212A      0.863648   213A      0.870668  
     214A      0.877666   215A      0.881499   216A      0.885203  
     217A      0.891993   218A      0.901016   219A      0.903019  
     220A      0.907903   221A      0.913254   222A      0.917847  
     223A      0.920389   224A      0.922595   225A      0.925522  
     226A      0.934379   227A      0.939206   228A      0.942432  
     229A      0.945935   230A      0.949032   231A      0.955732  
     232A      0.959071   233A      0.965161   234A      0.974676  
     235A      0.976000   236A      0.983682   237A      0.990243  
     238A      0.996817   239A      1.001071   240A      1.003965  
     241A      1.009256   242A      1.014923   243A      1.019136  
     244A      1.026657   245A      1.027020   246A      1.033072  
     247A      1.034403   248A      1.043122   249A      1.047861  
     250A      1.054733   251A      1.058595   252A      1.066377  
     253A      1.072530   254A      1.079931   255A      1.084018  
     256A      1.085269   257A      1.097253   258A      1.102536  
     259A      1.112337   260A      1.114793   261A      1.120272  
     262A      1.123227   263A      1.128357   264A      1.135634  
     265A      1.143773   266A      1.147387   267A      1.151491  
     268A      1.156116   269A      1.167557   270A      1.170065  
     271A      1.174665   272A      1.175556   273A      1.178406  
[...]
	   23 R(21,24)        =      1.528343    -0.000001    -0.000000     1.528343
	   24 R(24,25)        =      1.092194     0.000000     0.000000     1.092194
	   25 R(24,26)        =      1.094693     0.000000     0.000000     1.094693
	   26 B(1,9,10)       =    109.755334    -0.000000    -0.000015   109.755319
	   27 B(1,9,11)       =    109.758085     0.000000    -0.000005   109.758079
	   28 B(1,9,15)       =    112.482632    -0.000000    -0.000019   112.482613
	   29 B(2,1,3)        =    107.918439     0.000000     0.000010   107.918449
	   30 B(2,1,4)        =    107.692844     0.000000     0.000013   107.692856
	   31 B(2,1,9)        =    110.733273    -0.000000    -0.000022   110.733251
	   32 B(3,1,4)        =    107.918845     0.000000     0.000009   107.918854
	   33 B(3,1,9)        =    111.694943    -0.000000    -0.000003   111.694940
	   34 B(4,1,9)        =    110.729032    -0.000000    -0.000004   110.729027
	   35 B(5,12,13)      =    108.260277    -0.000000    -0.000057   108.260220
	   36 B(5,12,14)      =    109.953008     0.000000     0.000027   109.953036
	   37 B(5,12,24)      =    113.713532     0.000000     0.000035   113.713567
	   38 B(6,5,7)        =    107.987618     0.000000     0.000005   107.987622
	   39 B(6,5,8)        =    107.797872    -0.000000    -0.000006   107.797865
	   40 B(6,5,12)       =    111.299034    -0.000000    -0.000020   111.299015
	   41 B(7,5,8)        =    107.582112    -0.000000     0.000003   107.582116
	   42 B(7,5,12)       =    111.820067     0.000000     0.000005   111.820072
	   43 B(8,5,12)       =    110.188055     0.000000     0.000013   110.188068
	   44 B(9,15,16)      =    109.277882    -0.000000     0.000003   109.277885
	   45 B(9,15,17)      =    109.240886    -0.000000    -0.000029   109.240857
	   46 B(9,15,18)      =    113.133089     0.000000     0.000021   113.133110
	   47 B(10,9,11)      =    106.457243     0.000000     0.000019   106.457263
	   48 B(10,9,15)      =    109.100863     0.000000     0.000025   109.100888
	   49 B(11,9,15)      =    109.101780     0.000000    -0.000003   109.101778
	   50 B(12,24,21)     =    114.386506    -0.000000     0.000022   114.386528
	   51 B(12,24,25)     =    109.448241     0.000000    -0.000010   109.448231
	   52 B(12,24,26)     =    109.158814     0.000000     0.000024   109.158838
	   53 B(13,12,14)     =    106.098371     0.000000     0.000005   106.098376
	   54 B(13,12,24)     =    109.380812     0.000000    -0.000024   109.380788
	   55 B(14,12,24)     =    109.151839    -0.000000     0.000012   109.151851
	   56 B(15,18,19)     =    108.805378     0.000000     0.000020   108.805398
	   57 B(15,18,20)     =    109.331009    -0.000000    -0.000010   109.330999
	   58 B(15,18,21)     =    112.468456     0.000000     0.000000   112.468456
	   59 B(16,15,17)     =    106.376317     0.000000     0.000000   106.376317
	   60 B(16,15,18)     =    109.325026    -0.000000     0.000012   109.325039
	   61 B(17,15,18)     =    109.263825    -0.000000    -0.000009   109.263816
	   62 B(18,21,22)     =    108.727941    -0.000000     0.000008   108.727949
	   63 B(18,21,23)     =    108.653440    -0.000000    -0.000035   108.653405
	   64 B(18,21,24)     =    115.110559     0.000000     0.000053   115.110612
	   65 B(19,18,20)     =    106.654846     0.000000     0.000012   106.654859
	   66 B(19,18,21)     =    109.894802    -0.000000    -0.000040   109.894762
	   67 B(20,18,21)     =    109.513918     0.000000     0.000018   109.513936
	   68 B(21,24,25)     =    107.894822     0.000000    -0.000018   107.894804
	   69 B(21,24,26)     =    109.383859    -0.000000    -0.000018   109.383840
	   70 B(22,21,23)     =    106.322131     0.000000    -0.000006   106.322124
	   71 B(22,21,24)     =    108.755405    -0.000000    -0.000000   108.755404
	   72 B(23,21,24)     =    108.916311    -0.000000    -0.000023   108.916288
	   73 B(25,24,26)     =    106.251457    -0.000000    -0.000001   106.251456
	   74 D(1,9,15,16)    =     57.830284    -0.000000     0.000064    57.830349
	   75 D(1,9,15,17)    =    -58.174397     0.000000     0.000079   -58.174319
	   76 D(1,9,15,18)    =    179.880530     0.000000     0.000096   179.880626
	   77 D(2,1,9,10)     =    178.626137    -0.000000    -0.000029   178.626108
	   78 D(2,1,9,11)     =     61.956318    -0.000000    -0.000041    61.956277
	   79 D(2,1,9,15)     =    -59.710331     0.000000    -0.000021   -59.710352
	   80 D(3,1,9,10)     =     58.318441    -0.000000    -0.000024    58.318417
	   81 D(3,1,9,11)     =    -58.351378    -0.000000    -0.000036   -58.351414
	   82 D(3,1,9,15)     =    179.981972     0.000000    -0.000016   179.981956
	   83 D(4,1,9,10)     =    -61.986877    -0.000000    -0.000030   -61.986908
	   84 D(4,1,9,11)     =   -178.656697    -0.000000    -0.000042  -178.656739
	   85 D(4,1,9,15)     =     59.676654     0.000000    -0.000022    59.676632
	   86 D(5,12,24,21)   =    -94.446080     0.000000     0.000073   -94.446006
	   87 D(5,12,24,25)   =    144.365189    -0.000000     0.000090   144.365279
	   88 D(5,12,24,26)   =     28.460962    -0.000000     0.000083    28.461045
	   89 D(6,5,12,13)    =    -59.109247     0.000000     0.000118   -59.109129
	   90 D(6,5,12,14)    =     56.385178    -0.000000     0.000107    56.385285
	   91 D(6,5,12,24)    =    179.114884     0.000000     0.000167   179.115051
	   92 D(7,5,12,13)    =   -179.981291     0.000000     0.000123  -179.981169
	   93 D(7,5,12,14)    =    -64.486866     0.000000     0.000111   -64.486755
	   94 D(7,5,12,24)    =     58.242840     0.000000     0.000172    58.243011
	   95 D(8,5,12,13)    =     60.421583    -0.000000     0.000106    60.421689
	   96 D(8,5,12,14)    =    175.916008    -0.000000     0.000095   175.916102
	   97 D(8,5,12,24)    =    -61.354286     0.000000     0.000155   -61.354131
	   98 D(9,15,18,19)   =     57.182769    -0.000000    -0.000215    57.182554
	   99 D(9,15,18,20)   =    -58.941318    -0.000000    -0.000235   -58.941553
	  100 D(9,15,18,21)   =    179.177917    -0.000000    -0.000251   179.177666
	  101 D(10,9,15,16)   =    179.865405    -0.000000     0.000050   179.865455
	  102 D(10,9,15,17)   =     63.860723    -0.000000     0.000064    63.860787
	  103 D(10,9,15,18)   =    -58.084350    -0.000000     0.000082   -58.084268
	  104 D(11,9,15,16)   =    -64.208980     0.000000     0.000085   -64.208895
	  105 D(11,9,15,17)   =    179.786338     0.000000     0.000100   179.786438
	  106 D(11,9,15,18)   =     57.841265     0.000000     0.000117    57.841383
	  107 D(12,24,21,18)  =     59.582557     0.000000     0.000047    59.582604
	  108 D(12,24,21,22)  =    -62.667050    -0.000000     0.000001   -62.667050
	  109 D(12,24,21,23)  =   -178.141390    -0.000000     0.000021  -178.141369
	  110 D(13,12,24,21)  =    144.402169     0.000000     0.000141   144.402311
	  111 D(13,12,24,25)  =     23.213438     0.000000     0.000157    23.213596
	  112 D(13,12,24,26)  =    -92.690790     0.000000     0.000151   -92.690639
	  113 D(14,12,24,21)  =     28.722627     0.000000     0.000142    28.722769
	  114 D(14,12,24,25)  =    -92.466104     0.000000     0.000159   -92.465946
	  115 D(14,12,24,26)  =    151.629668    -0.000000     0.000152   151.629820
	  116 D(15,18,21,22)  =    -61.921025    -0.000000    -0.000125   -61.921149
	  117 D(15,18,21,23)  =     53.397370    -0.000000    -0.000147    53.397223
	  118 D(15,18,21,24)  =    175.814603    -0.000000    -0.000167   175.814436
	  119 D(16,15,18,19)  =    179.206629     0.000000    -0.000188   179.206441
	  120 D(16,15,18,20)  =     63.082542    -0.000000    -0.000208    63.082334
	  121 D(16,15,18,21)  =    -58.798223    -0.000000    -0.000224   -58.798447
	  122 D(17,15,18,19)  =    -64.749452     0.000000    -0.000185   -64.749638
	  123 D(17,15,18,20)  =    179.126461    -0.000000    -0.000206   179.126256
	  124 D(17,15,18,21)  =     57.245696    -0.000000    -0.000222    57.245474
	  125 D(18,21,24,25)  =   -178.375897     0.000000     0.000036  -178.375862
	  126 D(18,21,24,26)  =    -63.202607     0.000000     0.000015   -63.202592
	  127 D(19,18,21,22)  =     59.454304     0.000000    -0.000127    59.454176
	  128 D(19,18,21,23)  =    174.772699    -0.000000    -0.000149   174.772549
	  129 D(19,18,21,24)  =    -62.810068    -0.000000    -0.000170   -62.810238
	  130 D(20,18,21,22)  =    176.302110     0.000000    -0.000125   176.301986
	  131 D(20,18,21,23)  =    -68.379495    -0.000000    -0.000147   -68.379642
	  132 D(20,18,21,24)  =     54.037738    -0.000000    -0.000167    54.037571
	  133 D(22,21,24,25)  =     59.374495    -0.000000    -0.000011    59.374484
	  134 D(22,21,24,26)  =    174.547785    -0.000000    -0.000032   174.547753
	  135 D(23,21,24,25)  =    -56.099845    -0.000000     0.000009   -56.099836
	  136 D(23,21,24,26)  =     59.073446    -0.000000    -0.000012    59.073434
	  137 R(5,18)         =      3.392357     0.000001     0.000002     3.392359
	 ---------------------------------------------------------------------------

  ==> Convergence Check <==

  Measures of convergence in internal coordinates in au.
  Criteria marked as inactive (o), active & met (*), and active & unmet ( ).
  ---------------------------------------------------------------------------------------------
   Step     Total Energy     Delta E     MAX Force     RMS Force      MAX Disp      RMS Disp   
  ---------------------------------------------------------------------------------------------
    Convergence Criteria             o    2.00e-06 *    1.00e-06 *    6.00e-06 *    4.00e-06 *
  ---------------------------------------------------------------------------------------------
     49    -314.98125518    3.38e-09 o    2.75e-07 *    6.82e-08 *    4.38e-06 *    1.54e-06 *  ~
  ---------------------------------------------------------------------------------------------


  **** Optimization is complete! (in 49 steps) ****

  ==> Optimization Summary <==

  Measures of convergence in internal coordinates in au.
  --------------------------------------------------------------------------------------------------------------- ~
   Step         Total Energy             Delta E       MAX Force       RMS Force        MAX Disp        RMS Disp  ~
  --------------------------------------------------------------------------------------------------------------- ~
      1    -314.980994220472   -314.980994220472      0.00423768      0.00104662      0.03973425      0.01095182  ~
      2    -314.981235820882     -0.000241600410      0.00092862      0.00016174      0.03507729      0.01242628  ~
      3    -314.981219354635      0.000016466247      0.00058314      0.00015640      0.02381488      0.00788821  ~
      4    -314.981254886030     -0.000035531395      0.00008929      0.00002264      0.00162640      0.00057899  ~
      5    -314.981255140909     -0.000000254879      0.00002566      0.00000542      0.00107955      0.00028091  ~
      6    -314.981255173635     -0.000000032726      0.00000990      0.00000200      0.00038493      0.00011027  ~
      7    -314.981255184782     -0.000000011147      0.00000639      0.00000097      0.00016685      0.00005150  ~
      8    -314.981255180275      0.000000004507      0.00000321      0.00000088      0.00012417      0.00002991  ~
      9    -314.981255179978      0.000000000298      0.00000140      0.00000032      0.00003891      0.00001248  ~
     10    -314.981255182206     -0.000000002229      0.00000082      0.00000019      0.00001457      0.00000490  ~
     11    -314.981255181542      0.000000000664      0.00000274      0.00000070      0.00005711      0.00001724  ~
     12    -314.981255179749      0.000000001793      0.00000098      0.00000028      0.00001982      0.00000591  ~
     13    -314.981255181441     -0.000000001691      0.00000493      0.00000119      0.00011050      0.00003394  ~
     14    -314.981255178687      0.000000002753      0.00000239      0.00000050      0.00006187      0.00001941  ~
     15    -314.981255180021     -0.000000001334      0.00000060      0.00000017      0.00001631      0.00000451  ~
     16    -314.981255181658     -0.000000001637      0.00000224      0.00000062      0.00005093      0.00001751  ~
     17    -314.981255183780     -0.000000002122      0.00000426      0.00000110      0.00009036      0.00003187  ~
     18    -314.981255179295      0.000000004485      0.00000161      0.00000033      0.00003925      0.00001090  ~
     19    -314.981255181360     -0.000000002065      0.00000057      0.00000014      0.00000734      0.00000288  ~
     20    -314.981255182769     -0.000000001409      0.00000099      0.00000026      0.00001795      0.00000552  ~
     21    -314.981255185572     -0.000000002803      0.00000107      0.00000021      0.00001699      0.00000554  ~
     22    -314.981255179432      0.000000006140      0.00000266      0.00000071      0.00004915      0.00001480  ~
     23    -314.981255179500     -0.000000000068      0.00000295      0.00000074      0.00006862      0.00002076  ~
     24    -314.981255180394     -0.000000000895      0.00000094      0.00000016      0.00001523      0.00000510  ~
     25    -314.981255182621     -0.000000002227      0.00000106      0.00000017      0.00000983      0.00000243  ~
     26    -314.981255179515      0.000000003106      0.00000271      0.00000067      0.00005839      0.00001792  ~
     27    -314.981255185229     -0.000000005714      0.00000222      0.00000056      0.00006227      0.00001691  ~
     28    -314.981255181619      0.000000003610      0.00000151      0.00000028      0.00002218      0.00000586  ~
     29    -314.981255177049      0.000000004571      0.00000141      0.00000034      0.00002171      0.00000808  ~
     30    -314.981255179344     -0.000000002295      0.00000122      0.00000029      0.00002007      0.00000861  ~
     31    -314.981255180558     -0.000000001214      0.00000153      0.00000038      0.00003076      0.00000880  ~
     32    -314.981255184401     -0.000000003843      0.00000095      0.00000020      0.00002378      0.00000724  ~
     33    -314.981255181461      0.000000002940      0.00000123      0.00000032      0.00002206      0.00000757  ~
     34    -314.981255180311      0.000000001150      0.00000059      0.00000014      0.00001085      0.00000294  ~
     35    -314.981255178671      0.000000001641      0.00000152      0.00000039      0.00003168      0.00000838  ~
     36    -314.981255177302      0.000000001368      0.00000058      0.00000015      0.00001291      0.00000463  ~
     37    -314.981255177225      0.000000000077      0.00000215      0.00000056      0.00004675      0.00001592  ~
     38    -314.981255180490     -0.000000003265      0.00000233      0.00000063      0.00005364      0.00001775  ~
     39    -314.981255182845     -0.000000002355      0.00000054      0.00000011      0.00001666      0.00000484  ~
     40    -314.981255180156      0.000000002690      0.00000184      0.00000049      0.00003497      0.00001194  ~
     41    -314.981255181678     -0.000000001523      0.00000285      0.00000075      0.00005579      0.00001957  ~
     42    -314.981255182303     -0.000000000625      0.00000096      0.00000017      0.00001877      0.00000637  ~
     43    -314.981255179054      0.000000003249      0.00000154      0.00000042      0.00002025      0.00000667  ~
     44    -314.981255180768     -0.000000001715      0.00000086      0.00000025      0.00001788      0.00000545  ~
     45    -314.981255185285     -0.000000004517      0.00000247      0.00000058      0.00004413      0.00001454  ~
     46    -314.981255181911      0.000000003373      0.00000265      0.00000062      0.00006248      0.00001789  ~
     47    -314.981255183000     -0.000000001089      0.00000124      0.00000032      0.00003153      0.00000981  ~
     48    -314.981255185519     -0.000000002518      0.00000061      0.00000014      0.00001426      0.00000398  ~
     49    -314.981255182137      0.000000003382      0.00000028      0.00000007      0.00000438      0.00000154  ~
  --------------------------------------------------------------------------------------------------------------- ~

	Writing optimization data to binary file.
	Final energy is   -314.9812551821370
	Final (previous) structure:
	Cartesian Geometry (in Angstrom)
	    C    -4.0656853646  -0.2623349031  -0.1282243105
	    H    -4.3644042028   0.5248064869   0.5651498175
	    H    -4.7498837534  -1.1005362496   0.0011938012
	    H    -4.1935384243   0.1219263151  -1.1409492697
	    C     2.7765144881  -1.5464915633   0.1487292896
	    H     3.2070164043  -2.3242504466  -0.4824714198
	    H     1.7529509843  -1.8328172850   0.3840920812
	    H     3.3370013036  -1.5282057898   1.0843891532
	    C    -2.6187116983  -0.6738273420   0.1137962083
	    H    -2.3438727525  -1.4793055299  -0.5724353886
	    H    -2.5135211676  -1.0782466748   1.1240606495
	    C     2.8417339698  -0.1813074655  -0.5312012826
	    H     3.8885828084   0.0469662736  -0.7404235481
	    H     2.3404828250  -0.2237622254  -1.5026942159
	    C    -1.6460665401   0.4852821926  -0.0629744110
	    H    -1.9201562517   1.2947037226   0.6213671232
	    H    -1.7468398238   0.8896755043  -1.0755375283
	    C    -0.1944753077   0.0907069145   0.1785242024
	    H     0.0658746424  -0.7270610385  -0.4989574206
	    H    -0.0893890337  -0.2994174509   1.1963536753
	    C     0.7669802641   1.2561785902  -0.0217700280
	    H     0.6991680837   1.5931893433  -1.0613271791
	    H     0.4331527068   2.0954042607   0.5959700460
	    C     2.2295765772   0.9534398731   0.3022557389
	    H     2.8041609840   1.8692547365   0.1472617353
	    H     2.3231909739   0.7092544357   1.3652524476
	Saving final (previous) structure.
			--------------------------
			 OPTKING Finished Execution 
			--------------------------

    Final optimized geometry and variables:
    Molecular point group: c1
    Full point group: C1

    Geometry (in Angstrom), charge = 0, multiplicity = 1:

    C           -4.065685364629    -0.262334903121    -0.128224310536
    H           -4.364404202822     0.524806486850     0.565149817508
    H           -4.749883753427    -1.100536249614     0.001193801157
    H           -4.193538424308     0.121926315070    -1.140949269713
    C            2.776514488096    -1.546491563261     0.148729289601
    H            3.207016404296    -2.324250446550    -0.482471419837
    H            1.752950984259    -1.832817284999     0.384092081170
    H            3.337001303644    -1.528205789787     1.084389153239
    C           -2.618711698297    -0.673827342047     0.113796208285
    H           -2.343872752533    -1.479305529930    -0.572435388588
    H           -2.513521167591    -1.078246674772     1.124060649504
    C            2.841733969846    -0.181307465514    -0.531201282628
    H            3.888582808362     0.046966273587    -0.740423548149
    H            2.340482825024    -0.223762225414    -1.502694215931
    C           -1.646066540051     0.485282192550    -0.062974410955
    H           -1.920156251750     1.294703722638     0.621367123221
    H           -1.746839823779     0.889675504340    -1.075537528328
    C           -0.194475307718     0.090706914531     0.178524202351
    H            0.065874642386    -0.727061038473    -0.498957420611
    H           -0.089389033671    -0.299417450919     1.196353675289
    C            0.766980264142     1.256178590234    -0.021770027953
    H            0.699168083689     1.593189343342    -1.061327179114
    H            0.433152706795     2.095404260672     0.595970046029
    C            2.229576577218     0.953439873069     0.302255738915
    H            2.804160984003     1.869254736480     0.147261735304
    H            2.323190973860     0.709254435744     1.365252447637

	Cleaning optimization helper files.

*** Psi4 exiting successfully. Buy a developer a beer!
