    -----------------------------------------------------------------------
          Psi4: An Open-Source Ab Initio Electronic Structure Package
                              Psi4 1.0.0 Driver

                          Git: Rev {master} 6a9a71b dirty

    J. M. Turney, A. C. Simmonett, R. M. Parrish, E. G. Hohenstein,
    F. A. Evangelista, J. T. Fermann, B. J. Mintz, L. A. Burns, J. J. Wilke,
    M. L. Abrams, N. J. Russ, M. L. Leininger, C. L. Janssen, E. T. Seidl,
    W. D. Allen, H. F. Schaefer, R. A. King, E. F. Valeev, C. D. Sherrill,
    and T. D. Crawford, WIREs Comput. Mol. Sci. 2, 556-565 (2012)
    (doi: 10.1002/wcms.93)

                         Additional Contributions by
    A. E. DePrince, U. Bozkaya, A. Yu. Sokolov, D. G. A. Smith, R. Di Remigio,
    R. M. Richard, J. F. Gonthier, H. R. McAlexander, M. Saitow, and
    B. P. Pritchard
    -----------------------------------------------------------------------


    Psi4 started on: Tue Sep 20 22:40:02 2016

    Process ID:  31682
    PSI4DATADIR: /usr/local/hpc5/psi4conda/share/psi4
    Memory level set to 256.000 MB

  ==> Input File <==

--------------------------------------------------------------------------
memory 60 Gb

molecule molecule_37_psi {
0 1
C            2.757890791741     1.337731172206     0.174833050079
H            2.503270394812     1.373924699284     1.235561069852
H            2.007966057163     1.912201032561    -0.367606105110
H            3.715734444595     1.840785536841     0.043969486499
C           -2.268869575276     1.568827488476     0.136381691295
H           -3.095086963125     2.279655327439     0.148635055860
H           -1.925690821775     1.480673356061    -0.894272054290
H           -1.453579872943     1.991976031374     0.725825436316
C            2.822301367473    -0.106657308212    -0.311181522658
H            3.648133660902    -0.615265151809     0.191148487387
H            3.050764204674    -0.125812051931    -1.380461392898
C           -2.702027651950     0.219040405585     0.697759846397
H           -3.125492409597     0.364249467881     1.694417353848
H           -3.504477156625    -0.189272163253     0.077007043055
C            1.532095745535    -0.884191864563    -0.059485150874
H            1.298152505067    -0.844103143558     1.008797737314
H            1.690080468580    -1.939173457310    -0.301876347475
C            0.344365614956    -0.376541039477    -0.871124633614
H            0.589694823063    -0.464825148893    -1.933940126847
H            0.185027865694     0.684448708906    -0.673561401504
C           -0.943158587689    -1.149002023357    -0.575217545249
H           -1.678432371710    -0.958841563207    -1.362837724005
H           -0.715833806853    -2.217252070180    -0.624392086139
C           -1.576663978864    -0.811713200175     0.783429015926
H           -1.978445625934    -1.718940797275     1.239284639429
H           -0.806164106695    -0.443219963724     1.467271409671
}

set globals {
  reference rhf
  g_convergence gau_verytight
  basis aug-cc-pvtz
  freeze_core true
  scf_type df
  mp_type df
}
optimize('mp2')
--------------------------------------------------------------------------
/usr/local/hpc5/psi4conda/lib/python2.7/site-packages/v2rdm_casscf/v2rdm_casscf.so loaded.

  Memory set to  60.000 GiB by Python script.
gradient() will perform analytic gradient computation.

*** tstart() called on wr29
*** at Tue Sep 20 22:40:03 2016


         ---------------------------------------------------------
                                   SCF
            by Justin Turney, Rob Parrish, and Andy Simmonett
                              RHF Reference
                       12 Threads,  60000 MiB Core
         ---------------------------------------------------------

  ==> Geometry <==

    Molecular point group: c1
    Full point group: C1

    Geometry (in Angstrom), charge = 0, multiplicity = 1:

       Center              X                  Y                   Z               Mass       
    ------------   -----------------  -----------------  -----------------  -----------------
           C          2.757890791741     1.337731172206     0.174833050079    12.000000000000
           H          2.503270394812     1.373924699284     1.235561069852     1.007825032070
           H          2.007966057163     1.912201032561    -0.367606105110     1.007825032070
           H          3.715734444595     1.840785536841     0.043969486499     1.007825032070
           C         -2.268869575276     1.568827488476     0.136381691295    12.000000000000
           H         -3.095086963125     2.279655327439     0.148635055860     1.007825032070
           H         -1.925690821775     1.480673356061    -0.894272054290     1.007825032070
           H         -1.453579872943     1.991976031374     0.725825436316     1.007825032070
           C          2.822301367473    -0.106657308212    -0.311181522658    12.000000000000
           H          3.648133660902    -0.615265151809     0.191148487387     1.007825032070
           H          3.050764204674    -0.125812051931    -1.380461392898     1.007825032070
           C         -2.702027651950     0.219040405585     0.697759846397    12.000000000000
           H         -3.125492409597     0.364249467881     1.694417353848     1.007825032070
           H         -3.504477156625    -0.189272163253     0.077007043055     1.007825032070
           C          1.532095745535    -0.884191864563    -0.059485150874    12.000000000000
           H          1.298152505067    -0.844103143558     1.008797737314     1.007825032070
           H          1.690080468580    -1.939173457310    -0.301876347475     1.007825032070
           C          0.344365614956    -0.376541039477    -0.871124633614    12.000000000000
           H          0.589694823063    -0.464825148893    -1.933940126847     1.007825032070
           H          0.185027865694     0.684448708906    -0.673561401504     1.007825032070
           C         -0.943158587689    -1.149002023357    -0.575217545249    12.000000000000
           H         -1.678432371710    -0.958841563207    -1.362837724005     1.007825032070
           H         -0.715833806853    -2.217252070180    -0.624392086139     1.007825032070
           C         -1.576663978864    -0.811713200175     0.783429015926    12.000000000000
           H         -1.978445625934    -1.718940797275     1.239284639429     1.007825032070
           H         -0.806164106695    -0.443219963724     1.467271409671     1.007825032070

  Running in c1 symmetry.

  Rotational constants: A =      0.10323  B =      0.03072  C =      0.02657 [cm^-1]
  Rotational constants: A =   3094.71250  B =    921.03576  C =    796.62241 [MHz]
  Nuclear repulsion =  399.464526815870329

  Charge       = 0
  Multiplicity = 1
  Electrons    = 66
  Nalpha       = 33
  Nbeta        = 33

  ==> Algorithm <==

  SCF Algorithm Type is DF.
  DIIS enabled.
  MOM disabled.
  Fractional occupation disabled.
  Guess Type is SAD.
  Energy threshold   = 1.00e-10
  Density threshold  = 1.00e-10
  Integral threshold = 0.00e+00

  ==> Primary Basis <==

  Basis Set: AUG-CC-PVTZ
    Number of shells: 274
    Number of basis function: 782
    Number of Cartesian functions: 890
    Spherical Harmonics?: true
    Max angular momentum: 3

  ==> Pre-Iterations <==

   -------------------------------------------------------
    Irrep   Nso     Nmo     Nalpha   Nbeta   Ndocc  Nsocc
   -------------------------------------------------------
     A        782     782       0       0       0       0
   -------------------------------------------------------
    Total     782     782      33      33      33       0
   -------------------------------------------------------

  ==> Integral Setup <==

  ==> DFJK: Density-Fitted J/K Matrices <==

    J tasked:                  Yes
    K tasked:                  Yes
    wK tasked:                  No
    OpenMP threads:             12
    Integrals threads:          12
    Memory (MB):             42915
    Algorithm:                Core
    Integral Cache:           NONE
    Schwarz Cutoff:          1E-12
    Fitting Condition:       1E-12

   => Auxiliary Basis Set <=

  Basis Set: 
    Number of shells: 492
    Number of basis function: 1660
    Number of Cartesian functions: 2038
    Spherical Harmonics?: true
    Max angular momentum: 4

  Minimum eigenvalue in the overlap matrix is 1.5819725190E-06.
  Using Symmetric Orthogonalization.
  SCF Guess: Superposition of Atomic Densities via on-the-fly atomic UHF.

  ==> Iterations <==

                           Total Energy        Delta E     RMS |[F,P]|

   @DF-RHF iter   0:  -317.06852652450158   -3.17069e+02   7.05939e-03 
   @DF-RHF iter   1:  -313.29044196293745    3.77808e+00   7.20329e-04 
   @DF-RHF iter   2:  -313.50325002586072   -2.12808e-01   2.72819e-04 DIIS
   @DF-RHF iter   3:  -313.53124545499139   -2.79954e-02   1.06530e-04 DIIS
   @DF-RHF iter   4:  -313.53673439791652   -5.48894e-03   1.61852e-05 DIIS
   @DF-RHF iter   5:  -313.53692806920088   -1.93671e-04   3.71621e-06 DIIS
   @DF-RHF iter   6:  -313.53693892648226   -1.08573e-05   1.02226e-06 DIIS
   @DF-RHF iter   7:  -313.53693959379115   -6.67309e-07   2.75624e-07 DIIS
   @DF-RHF iter   8:  -313.53693964281700   -4.90259e-08   6.94660e-08 DIIS
   @DF-RHF iter   9:  -313.53693964616178   -3.34478e-09   1.93712e-08 DIIS
   @DF-RHF iter  10:  -313.53693964642463   -2.62844e-10   5.98047e-09 DIIS
   @DF-RHF iter  11:  -313.53693964644441   -1.97815e-11   1.42856e-09 DIIS
   @DF-RHF iter  12:  -313.53693964644555   -1.13687e-12   3.31105e-10 DIIS
   @DF-RHF iter  13:  -313.53693964644589   -3.41061e-13   9.08721e-11 DIIS

  ==> Post-Iterations <==

    Orbital Energies (a.u.)
    -----------------------

    Doubly Occupied:                                                      

       1A    -11.213097     2A    -11.212648     3A    -11.210449  
       4A    -11.209805     5A    -11.209523     6A    -11.208341  
       7A    -11.207098     8A    -11.206740     9A     -1.093816  
      10A     -1.059775    11A     -1.006198    12A     -0.944337  
      13A     -0.892603    14A     -0.826849    15A     -0.785698  
      16A     -0.757933    17A     -0.642891    18A     -0.627646  
      19A     -0.605633    20A     -0.600342    21A     -0.590562  
      22A     -0.549620    23A     -0.543280    24A     -0.527101  
      25A     -0.521197    26A     -0.501671    27A     -0.494520  
      28A     -0.470281    29A     -0.464287    30A     -0.461335  
      31A     -0.442989    32A     -0.439499    33A     -0.432908  

    Virtual:                                                              

      34A      0.029264    35A      0.033348    36A      0.034437  
      37A      0.035186    38A      0.045871    39A      0.047738  
      40A      0.049251    41A      0.053097    42A      0.055480  
      43A      0.067823    44A      0.069128    45A      0.071587  
      46A      0.073643    47A      0.077710    48A      0.083870  
      49A      0.094624    50A      0.096522    51A      0.108116  
      52A      0.114036    53A      0.118330    54A      0.119864  
      55A      0.123353    56A      0.125837    57A      0.127759  
      58A      0.132984    59A      0.136961    60A      0.142284  
      61A      0.143103    62A      0.146189    63A      0.147273  
      64A      0.152773    65A      0.156156    66A      0.161837  
      67A      0.163650    68A      0.168672    69A      0.171552  
      70A      0.174058    71A      0.178702    72A      0.179803  
      73A      0.187418    74A      0.192203    75A      0.198616  
      76A      0.202954    77A      0.215056    78A      0.222242  
      79A      0.224374    80A      0.231989    81A      0.234498  
      82A      0.239880    83A      0.245208    84A      0.252695  
      85A      0.254522    86A      0.271555    87A      0.287945  
      88A      0.290370    89A      0.294999    90A      0.302414  
      91A      0.302658    92A      0.307157    93A      0.311359  
      94A      0.314626    95A      0.316340    96A      0.318735  
      97A      0.319328    98A      0.329958    99A      0.332110  
     100A      0.337500   101A      0.340173   102A      0.343131  
     103A      0.345103   104A      0.352644   105A      0.355120  
     106A      0.357803   107A      0.363756   108A      0.365170  
     109A      0.367960   110A      0.372412   111A      0.376497  
     112A      0.382786   113A      0.385501   114A      0.387818  
     115A      0.391672   116A      0.392406   117A      0.399093  
     118A      0.401376   119A      0.406823   120A      0.414694  
     121A      0.420047   122A      0.422734   123A      0.425902  
     124A      0.428618   125A      0.435318   126A      0.436840  
     127A      0.443416   128A      0.448391   129A      0.450799  
     130A      0.453203   131A      0.456183   132A      0.461002  
     133A      0.464489   134A      0.464930   135A      0.469767  
     136A      0.471031   137A      0.477019   138A      0.480094  
     139A      0.486486   140A      0.490202   141A      0.498508  
     142A      0.501030   143A      0.504722   144A      0.505965  
     145A      0.512587   146A      0.515421   147A      0.520967  
     148A      0.524899   149A      0.528440   150A      0.529460  
     151A      0.533315   152A      0.540993   153A      0.546125  
     154A      0.553669   155A      0.555824   156A      0.558558  
     157A      0.563897   158A      0.565520   159A      0.572612  
     160A      0.576410   161A      0.578728   162A      0.583733  
     163A      0.585077   164A      0.589608   165A      0.595275  
     166A      0.599677   167A      0.601502   168A      0.607436  
     169A      0.614841   170A      0.617228   171A      0.619908  
     172A      0.622801   173A      0.627413   174A      0.632035  
     175A      0.646493   176A      0.649217   177A      0.652246  
     178A      0.656003   179A      0.662712   180A      0.667923  
     181A      0.675850   182A      0.679392   183A      0.683677  
     184A      0.687370   185A      0.695736   186A      0.704059  
     187A      0.706041   188A      0.712187   189A      0.717512  
     190A      0.724219   191A      0.726356   192A      0.736965  
     193A      0.737308   194A      0.741750   195A      0.751194  
     196A      0.752661   197A      0.760015   198A      0.770813  
     199A      0.776965   200A      0.797025   201A      0.803602  
     202A      0.812786   203A      0.814894   204A      0.820466  
     205A      0.832431   206A      0.838215   207A      0.846870  
     208A      0.849703   209A      0.853285   210A      0.864674  
     211A      0.869743   212A      0.875155   213A      0.877607  
     214A      0.881967   215A      0.887660   216A      0.892002  
     217A      0.894831   218A      0.899872   219A      0.911090  
     220A      0.915540   221A      0.919428   222A      0.921979  
     223A      0.925476   224A      0.933069   225A      0.939080  
     226A      0.944492   227A      0.955169   228A      0.962096  
     229A      0.962589   230A      0.967436   231A      0.969493  
     232A      0.976725   233A      0.981498   234A      0.984022  
     235A      0.991463   236A      0.996039   237A      1.005961  
     238A      1.007799   239A      1.011794   240A      1.014317  
     241A      1.016690   242A      1.020464   243A      1.030151  
     244A      1.035310   245A      1.035422   246A      1.043209  
     247A      1.054902   248A      1.056742   249A      1.060970  
     250A      1.066126   251A      1.069983   252A      1.077729  
     253A      1.084585   254A      1.089779   255A      1.098940  
     256A      1.102436   257A      1.109318   258A      1.114792  
     259A      1.116041   260A      1.119834   261A      1.127597  
     262A      1.132975   263A      1.134630   264A      1.140965  
     265A      1.150039   266A      1.155897   267A      1.156625  
     268A      1.158035   269A      1.164354   270A      1.168253  
     271A      1.176463   272A      1.186053   273A      1.191533  
     274A      1.193606   275A      1.197034   276A      1.205653  
     277A      1.208301   278A      1.213871   279A      1.219035  
     280A      1.225639   281A      1.231748   282A      1.236148  
     283A      1.245580   284A      1.249623   285A      1.254487  
     286A      1.256560   287A      1.267075   288A      1.269998  
     289A      1.274683   290A      1.277000   291A      1.279852  
     292A      1.285297   293A      1.289769   294A      1.296874  
     295A      1.302164   296A      1.310215   297A      1.319334  
     298A      1.321800   299A      1.329061   300A      1.338369  
     301A      1.347315   302A      1.351683   303A      1.361050  
     304A      1.367955   305A      1.377528   306A      1.384000  
     307A      1.392325   308A      1.396838   309A      1.404966  
     310A      1.408811   311A      1.417577   312A      1.426413  
     313A      1.436517   314A      1.439763   315A      1.443328  
     316A      1.456427   317A      1.458285   318A      1.466660  
     319A      1.467861   320A      1.480720   321A      1.487610  
     322A      1.493497   323A      1.498292   324A      1.514867  
     325A      1.517396   326A      1.525061   327A      1.527566  
     328A      1.531698   329A      1.536727   330A      1.546485  
     331A      1.556615   332A      1.563182   333A      1.574438  
     334A      1.575253   335A      1.586040   336A      1.588175  
     337A      1.599073   338A      1.605032   339A      1.613336  
     340A      1.622893   341A      1.632517   342A      1.640135  
     343A      1.641662   344A      1.649106   345A      1.660534  
     346A      1.662681   347A      1.668039   348A      1.672991  
     349A      1.685841   350A      1.687967   351A      1.693754  
     352A      1.706067   353A      1.713264   354A      1.714258  
     355A      1.725493   356A      1.728477   357A      1.732298  
     358A      1.735213   359A      1.748703   360A      1.748966  
     361A      1.756536   362A      1.764207   363A      1.768577  
     364A      1.772500   365A      1.783891   366A      1.791044  
     367A      1.793931   368A      1.803184   369A      1.809588  
     370A      1.812668   371A      1.815648   372A      1.823050  
     373A      1.830620   374A      1.838853   375A      1.843496  
     376A      1.845851   377A      1.854392   378A      1.861754  
     379A      1.864741   380A      1.868102   381A      1.877976  
     382A      1.883328   383A      1.891197   384A      1.893893  
     385A      1.904078   386A      1.907414   387A      1.919324  
     388A      1.928338   389A      1.931420   390A      1.940758  
     391A      1.944838   392A      1.951325   393A      1.957333  
     394A      1.966601   395A      1.974635   396A      1.980058  
     397A      1.988153   398A      1.989320   399A      1.999319  
     400A      2.006818   401A      2.015574   402A      2.020230  
     403A      2.023613   404A      2.027177   405A      2.038714  
     406A      2.041282   407A      2.046286   408A      2.051106  
     409A      2.064108   410A      2.064964   411A      2.078182  
     412A      2.081313   413A      2.085813   414A      2.098601  
     415A      2.106245   416A      2.114649   417A      2.120368  
     418A      2.131243   419A      2.135114   420A      2.139330  
     421A      2.148320   422A      2.159038   423A      2.163599  
     424A      2.193947   425A      2.196672   426A      2.198320  
     427A      2.204329   428A      2.216135   429A      2.226296  
     430A      2.234353   431A      2.241353   432A      2.245245  
     433A      2.259069   434A      2.271357   435A      2.276837  
     436A      2.294062   437A      2.295275   438A      2.300174  
     439A      2.308197   440A      2.318329   441A      2.331916  
     442A      2.339003   443A      2.340992   444A      2.347201  
     445A      2.353948   446A      2.364244   447A      2.375205  
     448A      2.387862   449A      2.399810   450A      2.409142  
     451A      2.418530   452A      2.424466   453A      2.430659  
     454A      2.443487   455A      2.457533   456A      2.470938  
     457A      2.471900   458A      2.477245   459A      2.481275  
     460A      2.482815   461A      2.502044   462A      2.508116  
     463A      2.522586   464A      2.540848   465A      2.547674  
     466A      2.560366   467A      2.578182   468A      2.596812  
     469A      2.604631   470A      2.613349   471A      2.621808  
     472A      2.625713   473A      2.636819   474A      2.654920  
     475A      2.657262   476A      2.680039   477A      2.696732  
     478A      2.710009   479A      2.727736   480A      2.762918  
     481A      2.769531   482A      2.797921   483A      2.844703  
     484A      2.878347   485A      2.915232   486A      2.943357  
     487A      2.989538   488A      3.011735   489A      3.083109  
     490A      3.159751   491A      3.171629   492A      3.230582  
     493A      3.288155   494A      3.317493   495A      3.374578  
     496A      3.415941   497A      3.424826   498A      3.445327  
     499A      3.465893   500A      3.476454   501A      3.481741  
     502A      3.509645   503A      3.513779   504A      3.524747  
     505A      3.534177   506A      3.559746   507A      3.563502  
     508A      3.571389   509A      3.584216   510A      3.599586  
     511A      3.611850   512A      3.622671   513A      3.633872  
     514A      3.642083   515A      3.649436   516A      3.674846  
     517A      3.679328   518A      3.688461   519A      3.689337  
     520A      3.697467   521A      3.709282   522A      3.717666  
     523A      3.734802   524A      3.738251   525A      3.752617  
     526A      3.759994   527A      3.767047   528A      3.772768  
     529A      3.781023   530A      3.794681   531A      3.796306  
     532A      3.811759   533A      3.817617   534A      3.825428  
     535A      3.825812   536A      3.834069   537A      3.846080  
     538A      3.849608   539A      3.864773   540A      3.881569  
     541A      3.884228   542A      3.897358   543A      3.908094  
     544A      3.916405   545A      3.927028   546A      3.929902  
     547A      3.933157   548A      3.944910   549A      3.950320  
     550A      3.958042   551A      3.964658   552A      3.969815  
     553A      3.976072   554A      3.976692   555A      3.991368  
     556A      3.997682   557A      4.002806   558A      4.015504  
     559A      4.018141   560A      4.026745   561A      4.029263  
     562A      4.036265   563A      4.038325   564A      4.050841  
     565A      4.065512   566A      4.073632   567A      4.078902  
     568A      4.082307   569A      4.086548   570A      4.100289  
     571A      4.104205   572A      4.109863   573A      4.118826  
     574A      4.125167   575A      4.135254   576A      4.141141  
     577A      4.143573   578A      4.154201   579A      4.176501  
     580A      4.182306   581A      4.187573   582A      4.200692  
     583A      4.205680   584A      4.213963   585A      4.227777  
     586A      4.249420   587A      4.251216   588A      4.261518  
     589A      4.268556   590A      4.279376   591A      4.288610  
     592A      4.303742   593A      4.307786   594A      4.315908  
     595A      4.327184   596A      4.331026   597A      4.351597  
     598A      4.354330   599A      4.359853   600A      4.370033  
     601A      4.388727   602A      4.396715   603A      4.403633  
     604A      4.434661   605A      4.438907   606A      4.453707  
     607A      4.459798   608A      4.465449   609A      4.478812  
     610A      4.485003   611A      4.497011   612A      4.509903  
     613A      4.518288   614A      4.533059   615A      4.554781  
     616A      4.564335   617A      4.591526   618A      4.594345  
     619A      4.603264   620A      4.619127   621A      4.633075  
     622A      4.643483   623A      4.661094   624A      4.670490  
     625A      4.680050   626A      4.684432   627A      4.707868  
     628A      4.720792   629A      4.727592   630A      4.735381  
     631A      4.741892   632A      4.754107   633A      4.765231  
     634A      4.778925   635A      4.797616   636A      4.800608  
     637A      4.811426   638A      4.825409   639A      4.838489  
     640A      4.848867   641A      4.865114   642A      4.871243  
     643A      4.879018   644A      4.888199   645A      4.904148  
     646A      4.909204   647A      4.925025   648A      4.930943  
     649A      4.948163   650A      4.954953   651A      4.962511  
     652A      4.968171   653A      4.974558   654A      4.984499  
     655A      4.994429   656A      5.001079   657A      5.035128  
     658A      5.036905   659A      5.043673   660A      5.060916  
     661A      5.069302   662A      5.094511   663A      5.102485  
     664A      5.109439   665A      5.119675   666A      5.135183  
     667A      5.153877   668A      5.160363   669A      5.170439  
     670A      5.180154   671A      5.189958   672A      5.207848  
     673A      5.217953   674A      5.225662   675A      5.226583  
     676A      5.253482   677A      5.264882   678A      5.266708  
     679A      5.282757   680A      5.291266   681A      5.305233  
     682A      5.315500   683A      5.319800   684A      5.329386  
     685A      5.357767   686A      5.372080   687A      5.377401  
     688A      5.389261   689A      5.394145   690A      5.407926  
     691A      5.413607   692A      5.428451   693A      5.437159  
     694A      5.440803   695A      5.461666   696A      5.469938  
     697A      5.479114   698A      5.486063   699A      5.494942  
     700A      5.502829   701A      5.527674   702A      5.536421  
     703A      5.542392   704A      5.574479   705A      5.588597  
     706A      5.597379   707A      5.601067   708A      5.611539  
     709A      5.626794   710A      5.643345   711A      5.645196  
     712A      5.662165   713A      5.672286   714A      5.682767  
     715A      5.697523   716A      5.707529   717A      5.714490  
     718A      5.723304   719A      5.730805   720A      5.740185  
     721A      5.768182   722A      5.772771   723A      5.779028  
     724A      5.794900   725A      5.811173   726A      5.824894  
     727A      5.852437   728A      5.862378   729A      5.878923  
     730A      5.892476   731A      5.910256   732A      5.959587  
     733A      5.965431   734A      6.002645   735A      6.027694  
     736A      6.055391   737A      6.064020   738A      6.086252  
     739A      6.092093   740A      6.116173   741A      6.152093  
     742A      6.168660   743A      6.191639   744A      6.205066  
     745A      6.222730   746A      6.236902   747A      6.267267  
     748A      6.284970   749A      6.291155   750A      6.301929  
     751A      6.315267   752A      6.332059   753A      6.359137  
     754A      6.366509   755A      6.391269   756A      6.397824  
     757A      6.444483   758A      6.480928   759A      6.589721  
     760A      6.625661   761A      6.636016   762A      6.682743  
     763A      6.742511   764A      6.791681   765A      6.810363  
     766A      6.815201   767A      6.929024   768A      6.949433  
     769A      6.972885   770A      6.981004   771A      6.998207  
     772A      7.069021   773A      7.087847   774A      7.142522  
     775A     17.999493   776A     18.012543   777A     18.390508  
     778A     18.543546   779A     18.894555   780A     19.103294  
     781A     19.582032   782A     19.710429  

    Final Occupation by Irrep:
              A 
    DOCC [    33 ]

  Energy converged.

  @DF-RHF Final Energy:  -313.53693964644589

   => Energetics <=

    Nuclear Repulsion Energy =            399.4645268158703288
    One-Electron Energy =               -1214.0815874990098564
    Two-Electron Energy =                 501.0801210366937539
    DFT Exchange-Correlation Energy =       0.0000000000000000
    Empirical Dispersion Energy =           0.0000000000000000
    PCM Polarization Energy =               0.0000000000000000
    EFP Energy =                            0.0000000000000000
    Total Energy =                       -313.5369396464457168


  Saving occupied orbitals to File 180.

*** tstop() called on wr29 at Tue Sep 20 22:41:30 2016
Module time:
	user time   =     945.49 seconds =      15.76 minutes
	system time =      11.81 seconds =       0.20 minutes
	total time  =         87 seconds =       1.45 minutes
Total time:
	user time   =     945.49 seconds =      15.76 minutes
	system time =      11.81 seconds =       0.20 minutes
	total time  =         87 seconds =       1.45 minutes


Properties will be evaluated at   0.000000,   0.000000,   0.000000 Bohr

Properties computed using the SCF density matrix

  Nuclear Dipole Moment: (a.u.)
     X:     0.3803      Y:     2.2604      Z:     0.2747

  Electronic Dipole Moment: (a.u.)
     X:    -0.3904      Y:    -2.2967      Z:    -0.2744

  Dipole Moment: (a.u.)
     X:    -0.0101      Y:    -0.0363      Z:     0.0003     Total:     0.0377

  Dipole Moment: (Debye)
     X:    -0.0258      Y:    -0.0923      Z:     0.0007     Total:     0.0958


  //>>>>>>>>>>>>>>>>>>>>>>>>>>>>>>>>>>>//
  //               DFMP2               //
  //<<<<<<<<<<<<<<<<<<<<<<<<<<<<<<<<<<<//


*** tstart() called on wr29
*** at Tue Sep 20 22:41:31 2016


*** tstop() called on wr29 at Tue Sep 20 22:41:31 2016
Module time:
	user time   =       4.87 seconds =       0.08 minutes
	system time =       0.17 seconds =       0.00 minutes
	total time  =          0 seconds =       0.00 minutes
Total time:
	user time   =     950.84 seconds =      15.85 minutes
	system time =      11.98 seconds =       0.20 minutes
	total time  =         88 seconds =       1.47 minutes
	 --------------------------------------------------------
	                          DF-MP2                         
	      2nd-Order Density-Fitted Moller-Plesset Theory     
	              RMP2 Wavefunction,  12 Threads             
	                                                         
	        Rob Parrish, Justin Turney, Andy Simmonett,      
	           Ed Hohenstein, and C. David Sherrill          
	 --------------------------------------------------------

   => Auxiliary Basis Set <=

  Basis Set: 
    Number of shells: 476
    Number of basis function: 1676
    Number of Cartesian functions: 2078
    Spherical Harmonics?: true
    Max angular momentum: 4

	 --------------------------------------------------------
	                 NBF =   782, NAUX =  1676
	 --------------------------------------------------------
	   CLASS    FOCC     OCC    AOCC    AVIR     VIR    FVIR
	   PAIRS       8      33      25     749     749       0
	 --------------------------------------------------------

DGAS Warning! /src/lib/libfock/apps.cc:80 is not currently checking restricted

         ------------------------------------------------------------
                                     CPHF                           
                                  Rob Parrish                       
         ------------------------------------------------------------

  ==> Geometry <==

    Molecular point group: c1
    Full point group: C1

    Geometry (in Angstrom), charge = 0, multiplicity = 1:

       Center              X                  Y                   Z               Mass       
    ------------   -----------------  -----------------  -----------------  -----------------
           C          2.757890791741     1.337731172206     0.174833050079    12.000000000000
           H          2.503270394812     1.373924699284     1.235561069852     1.007825032070
           H          2.007966057163     1.912201032561    -0.367606105110     1.007825032070
           H          3.715734444595     1.840785536841     0.043969486499     1.007825032070
           C         -2.268869575276     1.568827488476     0.136381691295    12.000000000000
           H         -3.095086963125     2.279655327439     0.148635055860     1.007825032070
           H         -1.925690821775     1.480673356061    -0.894272054290     1.007825032070
           H         -1.453579872943     1.991976031374     0.725825436316     1.007825032070
           C          2.822301367473    -0.106657308212    -0.311181522658    12.000000000000
           H          3.648133660902    -0.615265151809     0.191148487387     1.007825032070
           H          3.050764204674    -0.125812051931    -1.380461392898     1.007825032070
           C         -2.702027651950     0.219040405585     0.697759846397    12.000000000000
           H         -3.125492409597     0.364249467881     1.694417353848     1.007825032070
           H         -3.504477156625    -0.189272163253     0.077007043055     1.007825032070
           C          1.532095745535    -0.884191864563    -0.059485150874    12.000000000000
           H          1.298152505067    -0.844103143558     1.008797737314     1.007825032070
           H          1.690080468580    -1.939173457310    -0.301876347475     1.007825032070
           C          0.344365614956    -0.376541039477    -0.871124633614    12.000000000000
           H          0.589694823063    -0.464825148893    -1.933940126847     1.007825032070
           H          0.185027865694     0.684448708906    -0.673561401504     1.007825032070
           C         -0.943158587689    -1.149002023357    -0.575217545249    12.000000000000
           H         -1.678432371710    -0.958841563207    -1.362837724005     1.007825032070
           H         -0.715833806853    -2.217252070180    -0.624392086139     1.007825032070
           C         -1.576663978864    -0.811713200175     0.783429015926    12.000000000000
           H         -1.978445625934    -1.718940797275     1.239284639429     1.007825032070
           H         -0.806164106695    -0.443219963724     1.467271409671     1.007825032070

  Nuclear repulsion =  399.464526815870329
  Reference energy  = -313.536939646445887

  ==> Basis Set <==

  Basis Set: AUG-CC-PVTZ
    Number of shells: 274
    Number of basis function: 782
    Number of Cartesian functions: 890
    Spherical Harmonics?: true
    Max angular momentum: 3

  ==> CGRSolver (by Rob Parrish) <==

   Number of roots    =         1
   Preconditioning    =    JACOBI
   Convergence cutoff =     1E-06
   Maximum iterations =       100

  ==> CPHFRHamiltonian (by Rob Parrish) <== 

  ==> DFJK: Density-Fitted J/K Matrices <==

    J tasked:                  Yes
    K tasked:                  Yes
    wK tasked:                  No
    OpenMP threads:             12
    Integrals threads:          12
    Memory (MB):             42915
    Algorithm:                Core
    Integral Cache:           NONE
    Schwarz Cutoff:          1E-12
    Fitting Condition:       1E-12

   => Auxiliary Basis Set <=

  Basis Set: 
    Number of shells: 492
    Number of basis function: 1660
    Number of Cartesian functions: 2038
    Spherical Harmonics?: true
    Max angular momentum: 4

  ==> CPHF Iterations <==

  => Iterations <=

             Iter  Converged  Remaining    Residual
  CGR           1          0          1   9.297E-02
  CGR           2          0          1   1.329E-02
  CGR           3          0          1   3.592E-03
  CGR           4          0          1   7.960E-04
  CGR           5          0          1   2.077E-04
  CGR           6          0          1   4.687E-05
  CGR           7          0          1   1.213E-05
  CGR           8          0          1   3.463E-06
  CGR           9          1          0   9.218E-07

    CGRSolver converged.

  ==> DFCorrGrad: Density-Fitted Correlated Gradients <==

    OpenMP threads:             12
    Integrals threads:          12
    Memory (MB):             42915
    Schwarz Cutoff:          0E+00
    Fitting Condition:       1E-12

   => Auxiliary Basis Set <=

  Basis Set: 
    Number of shells: 492
    Number of basis function: 1660
    Number of Cartesian functions: 2038
    Spherical Harmonics?: true
    Max angular momentum: 4

	-----------------------------------------------------------
	 ==================> DF-MP2 Energies <==================== 
	-----------------------------------------------------------
	 Reference Energy          =    -313.5369396464458873 [Eh]
	 Singles Energy            =      -0.0000000000000005 [Eh]
	 Same-Spin Energy          =      -0.3167846618303393 [Eh]
	 Opposite-Spin Energy      =      -1.1262624074624767 [Eh]
	 Correlation Energy        =      -1.4430470692928163 [Eh]
	 Total Energy              =    -314.9799867157386757 [Eh]
	-----------------------------------------------------------
	 ================> DF-SCS-MP2 Energies <================== 
	-----------------------------------------------------------
	 SCS Same-Spin Scale       =       0.3333333333333333 [-]
	 SCS Opposite-Spin Scale   =       1.2000000000000000 [-]
	 SCS Same-Spin Energy      =      -0.1055948872767798 [Eh]
	 SCS Opposite-Spin Energy  =      -1.3515148889549720 [Eh]
	 SCS Correlation Energy    =      -1.4571097762317522 [Eh]
	 SCS Total Energy          =    -314.9940494226776195 [Eh]
	-----------------------------------------------------------


  -Total Gradient:
     Atom            X                  Y                   Z
    ------   -----------------  -----------------  -----------------
       1        0.000000106399    -0.000000500393    -0.000000133269
       2       -0.000000156688     0.000000064293     0.000000577995
       3       -0.000000476510     0.000000302069    -0.000000342005
       4        0.000000541805     0.000000177981    -0.000000093544
       5       -0.000000485081    -0.000000390120     0.000000647732
       6       -0.000000499158     0.000000394250     0.000000032765
       7        0.000000574464    -0.000000097953    -0.000000973182
       8        0.000000696490     0.000000359170     0.000000472226
       9       -0.000000533168     0.000000464286     0.000000304532
      10        0.000000419660    -0.000000224214     0.000000330616
      11        0.000000146093    -0.000000043616    -0.000000743956
      12        0.000000439212     0.000000352742    -0.000000141100
      13       -0.000000303556     0.000000295439     0.000000809693
      14       -0.000000738521    -0.000000399058    -0.000000535780
      15        0.000000049738     0.000000704046    -0.000000302479
      16       -0.000000160265    -0.000000079257     0.000000448410
      17        0.000000042301    -0.000000426459    -0.000000293026
      18        0.000000495742    -0.000001706997     0.000000114761
      19        0.000000326930    -0.000000148170    -0.000000804926
      20       -0.000000616466     0.000001089912     0.000000440720
      21        0.000001021427     0.000000108482     0.000000061359
      22       -0.000000664106     0.000000173248    -0.000000479615
      23        0.000000316143    -0.000000450398    -0.000000328140
      24       -0.000000888268     0.000000004443    -0.000000008296
      25       -0.000000318022    -0.000000423398     0.000000336442
      26        0.000000663406     0.000000399669     0.000000602065


			-----------------------------------------
			 OPTKING 2.0: for geometry optimizations 
			  - R.A. King,  Bethel University        
			-----------------------------------------

	Internal coordinates to be generated automatically.
	Detected frag 1 with atoms:  1 2 3 4 5 6 7 8 9 10 11 12 13 14 15 16 17 18 19 20
	 21 22 23 24 25 26
	---Fragment 1 Bond Connectivity---
	 1 : 2 3 4 9
	 2 : 1
	 3 : 1
	 4 : 1
	 5 : 6 7 8 12
	 6 : 5
	 7 : 5
	 8 : 5
	 9 : 1 10 11 15
	 10 : 9
	 11 : 9
	 12 : 5 13 14 24
	 13 : 12
	 14 : 12
	 15 : 9 16 17 18
	 16 : 15
	 17 : 15
	 18 : 15 19 20 21
	 19 : 18
	 20 : 18
	 21 : 18 22 23 24
	 22 : 21
	 23 : 21
	 24 : 12 21 25 26
	 25 : 24
	 26 : 24

	---Fragment 1 Geometry and Gradient---
	 C           5.2116583008        2.5279455549        0.3303865836
	 H           4.7304954828        2.5963414089        2.3348720425
	 H           3.7945059322        3.6135362626       -0.6946748634
	 H           7.0217204828        3.4785805340        0.0830902877
	 C          -4.2875421285        2.9646543030        0.2577240461
	 H          -5.8488667178        4.3079242462        0.2808795493
	 H          -3.6390282698        2.7980671352       -1.6899292709
	 H          -2.7468678721        3.7642891626        1.3716112949
	 C           5.3333766490       -0.2015531026       -0.5880478554
	 H           6.8939735153       -1.1626826360        0.3612182919
	 H           5.7651088428       -0.2377503224       -2.6086939696
	 C          -5.1060922657        0.4139263786        1.3185750162
	 H          -5.9063246846        0.6883317383        3.2019847536
	 H          -6.6225020650       -0.3576725531        0.1455222217
	 C           2.8952413684       -1.6708804729       -0.1124106441
	 H           2.4531527133       -1.5951237692        1.9063514470
	 H           3.1937892282       -3.6645067585       -0.5704636227
	 C           0.6507567018       -0.7115594424       -1.6461869851
	 H           1.1143617176       -0.8783922311       -3.6546171971
	 H           0.3496519931        1.2934206118       -1.2728465825
	 C          -1.7823114306       -2.1712991503       -1.0870036274
	 H          -3.1717775151       -1.8119479593       -2.5753900619
	 H          -1.3527298516       -4.1899991802       -1.1799300423
	 C          -2.9794631236       -1.5339156468        1.4804662847
	 H          -3.7387204018       -3.2483273455        2.3419085692
	 H          -1.5234293798       -0.8375643481        2.7727411269
	             0.0000001064       -0.0000005004       -0.0000001333
	            -0.0000001567        0.0000000643        0.0000005780
	            -0.0000004765        0.0000003021       -0.0000003420
	             0.0000005418        0.0000001780       -0.0000000935
	            -0.0000004851       -0.0000003901        0.0000006477
	            -0.0000004992        0.0000003943        0.0000000328
	             0.0000005745       -0.0000000980       -0.0000009732
	             0.0000006965        0.0000003592        0.0000004722
	            -0.0000005332        0.0000004643        0.0000003045
	             0.0000004197       -0.0000002242        0.0000003306
	             0.0000001461       -0.0000000436       -0.0000007440
	             0.0000004392        0.0000003527       -0.0000001411
	            -0.0000003036        0.0000002954        0.0000008097
	            -0.0000007385       -0.0000003991       -0.0000005358
	             0.0000000497        0.0000007040       -0.0000003025
	            -0.0000001603       -0.0000000793        0.0000004484
	             0.0000000423       -0.0000004265       -0.0000002930
	             0.0000004957       -0.0000017070        0.0000001148
	             0.0000003269       -0.0000001482       -0.0000008049
	            -0.0000006165        0.0000010899        0.0000004407
	             0.0000010214        0.0000001085        0.0000000614
	            -0.0000006641        0.0000001732       -0.0000004796
	             0.0000003161       -0.0000004504       -0.0000003281
	            -0.0000008883        0.0000000044       -0.0000000083
	            -0.0000003180       -0.0000004234        0.0000003364
	             0.0000006634        0.0000003997        0.0000006021

	Previous optimization step data not found.  Starting new optimization.

	---Fragment 1 Intrafragment Coordinates---
	 - Coordinate -           - BOHR/RAD -       - ANG/DEG -
	 R(1,2)           =         2.062561	       1.091460
	 R(1,3)           =         2.058538	       1.089331
	 R(1,4)           =         2.059414	       1.089795
	 R(1,9)           =         2.882447	       1.525325
	 R(5,6)           =         2.059768	       1.089982
	 R(5,7)           =         2.059533	       1.089858
	 R(5,8)           =         2.062483	       1.091419
	 R(5,12)          =         2.881257	       1.524696
	 R(9,10)          =         2.064059	       1.092253
	 R(9,11)          =         2.066571	       1.093582
	 R(9,15)          =         2.886115	       1.527266
	 R(12,13)         =         2.064680	       1.092581
	 R(12,14)         =         2.066620	       1.093608
	 R(12,24)         =         2.888399	       1.528475
	 R(15,16)         =         2.067990	       1.094333
	 R(15,17)         =         2.067242	       1.093937
	 R(15,18)         =         2.882790	       1.525507
	 R(18,19)         =         2.067983	       1.094330
	 R(18,20)         =         2.061551	       1.090926
	 R(18,21)         =         2.891945	       1.530351
	 R(21,22)         =         2.067618	       1.094136
	 R(21,23)         =         2.065993	       1.093276
	 R(21,24)         =         2.903676	       1.536559
	 R(24,25)         =         2.063434	       1.091923
	 R(24,26)         =         2.067586	       1.094120
	 B(1,9,10)        =         1.903215	     109.046202
	 B(1,9,11)        =         1.914480	     109.691610
	 B(1,9,15)        =         1.975672	     113.197667
	 B(2,1,3)         =         1.881626	     107.809217
	 B(2,1,4)         =         1.882238	     107.844276
	 B(2,1,9)         =         1.929340	     110.543018
	 B(3,1,4)         =         1.877424	     107.568494
	 B(3,1,9)         =         1.949573	     111.702295
	 B(4,1,9)         =         1.940924	     111.206782
	 B(5,12,13)       =         1.905317	     109.166634
	 B(5,12,14)       =         1.907098	     109.268670
	 B(5,12,24)       =         1.991577	     114.108968
	 B(6,5,7)         =         1.877655	     107.581717
	 B(6,5,8)         =         1.883173	     107.897882
	 B(6,5,12)        =         1.936759	     110.968103
	 B(7,5,8)         =         1.882704	     107.870970
	 B(7,5,12)        =         1.945546	     111.471552
	 B(8,5,12)        =         1.935421	     110.891436
	 B(9,15,16)       =         1.899508	     108.833777
	 B(9,15,17)       =         1.909701	     109.417824
	 B(9,15,18)       =         1.983002	     113.617666
	 B(10,9,11)       =         1.858313	     106.473480
	 B(10,9,15)       =         1.902725	     109.018114
	 B(11,9,15)       =         1.905731	     109.190353
	 B(12,24,21)      =         1.984523	     113.704803
	 B(12,24,25)      =         1.888920	     108.227137
	 B(12,24,26)      =         1.903289	     109.050455
	 B(13,12,14)      =         1.857730	     106.440103
	 B(13,12,24)      =         1.900605	     108.896631
	 B(14,12,24)      =         1.896817	     108.679586
	 B(15,18,19)      =         1.891605	     108.380970
	 B(15,18,20)      =         1.918787	     109.938370
	 B(15,18,21)      =         1.965129	     112.593617
	 B(16,15,17)      =         1.857200	     106.409717
	 B(16,15,18)      =         1.918508	     109.922420
	 B(17,15,18)      =         1.891756	     108.389628
	 B(18,21,22)      =         1.916081	     109.783333
	 B(18,21,23)      =         1.885539	     108.033450
	 B(18,21,24)      =         1.990007	     114.019021
	 B(19,18,20)      =         1.861979	     106.683552
	 B(19,18,21)      =         1.913123	     109.613880
	 B(20,18,21)      =         1.910291	     109.451627
	 B(21,24,25)      =         1.916083	     109.783458
	 B(21,24,26)      =         1.913714	     109.647714
	 B(22,21,23)      =         1.851648	     106.091632
	 B(22,21,24)      =         1.897890	     108.741110
	 B(23,21,24)      =         1.917695	     109.875814
	 B(25,24,26)      =         1.852527	     106.141956
	 D(1,9,15,16)     =        -0.983667	     -56.359947
	 D(1,9,15,17)     =        -3.006414	    -172.254857
	 D(1,9,15,18)     =         1.160038	      66.465263
	 D(2,1,9,10)      =        -1.139987	     -65.316420
	 D(2,1,9,11)      =         3.114373	     178.440457
	 D(2,1,9,15)      =         0.981191	      56.218086
	 D(3,1,9,10)      =         3.048017	     174.638518
	 D(3,1,9,11)      =         1.019192	      58.395395
	 D(3,1,9,15)      =        -1.113991	     -63.826976
	 D(4,1,9,10)      =         0.950273	      54.446615
	 D(4,1,9,11)      =        -1.078553	     -61.796508
	 D(4,1,9,15)      =         3.071450	     175.981120
	 D(5,12,24,21)    =        -1.054509	     -60.418905
	 D(5,12,24,25)    =         3.094826	     177.320486
	 D(5,12,24,26)    =         1.086858	      62.272375
	 D(6,5,12,13)     =        -0.956742	     -54.817282
	 D(6,5,12,14)     =         1.068440	      61.217123
	 D(6,5,12,24)     =        -3.087533	    -176.902590
	 D(7,5,12,13)     =        -3.049231	    -174.708066
	 D(7,5,12,14)     =        -1.024049	     -58.673661
	 D(7,5,12,24)     =         1.103164	      63.206626
	 D(8,5,12,13)     =         1.135978	      65.086754
	 D(8,5,12,14)     =        -3.122025	    -178.878841
	 D(8,5,12,24)     =        -0.994812	     -56.998554
	 D(9,15,18,19)    =         1.047257	      60.003387
	 D(9,15,18,20)    =        -0.981754	     -56.250340
	 D(9,15,18,21)    =        -3.116636	    -178.570070
	 D(10,9,15,16)    =         1.137786	      65.190344
	 D(10,9,15,17)    =        -0.884962	     -50.704566
	 D(10,9,15,18)    =        -3.001695	    -171.984446
	 D(11,9,15,16)    =        -3.121722	    -178.861516
	 D(11,9,15,17)    =         1.138715	      65.243574
	 D(11,9,15,18)    =        -0.978018	     -56.036306
	 D(12,24,21,18)   =         1.696154	      97.182459
	 D(12,24,21,22)   =        -0.448040	     -25.670796
	 D(12,24,21,23)   =        -2.467641	    -141.385391
	 D(13,12,24,21)   =         3.095301	     177.347656
	 D(13,12,24,25)   =         0.961450	      55.087047
	 D(13,12,24,26)   =        -1.046518	     -59.961064
	 D(14,12,24,21)   =         1.078351	      61.784987
	 D(14,12,24,25)   =        -1.055499	     -60.475622
	 D(14,12,24,26)   =        -3.063467	    -175.523732
	 D(15,18,21,22)   =        -2.857806	    -163.740242
	 D(15,18,21,23)   =        -0.845969	     -48.470480
	 D(15,18,21,24)   =         1.291137	      73.976712
	 D(16,15,18,19)   =        -3.102705	    -177.771877
	 D(16,15,18,20)   =         1.151470	      65.974396
	 D(16,15,18,21)   =        -0.983412	     -56.345334
	 D(17,15,18,19)   =        -1.079479	     -61.849594
	 D(17,15,18,20)   =        -3.108489	    -178.103321
	 D(17,15,18,21)   =         1.039814	      59.576949
	 D(18,21,24,25)   =        -2.468254	    -141.420551
	 D(18,21,24,26)   =        -0.439473	     -25.179946
	 D(19,18,21,22)   =        -0.750807	     -43.018070
	 D(19,18,21,23)   =         1.261030	      72.251693
	 D(19,18,21,24)   =        -2.885049	    -165.301116
	 D(20,18,21,22)   =         1.285716	      73.666082
	 D(20,18,21,23)   =        -2.985633	    -171.064156
	 D(20,18,21,24)   =        -0.848526	     -48.616964
	 D(22,21,24,25)   =         1.670737	      95.726194
	 D(22,21,24,26)   =        -2.583667	    -148.033201
	 D(23,21,24,25)   =        -0.348863	     -19.988401
	 D(23,21,24,26)   =         1.679918	      96.252203
	 R(5,18)          =         6.444084	       3.410062

	Current energy   :      -314.9799867157

	Generating empirical Hessian (Schlegel '84) for each fragment.
	Taking RFO optimization step.
	Going to follow RFO solution 1.
	Using RFO vector 1.
	Norm of target step-size    0.00050
	Projected energy change by RFO approximation:         0.0000000010

	Back-transformation to cartesian coordinates...
	Successfully converged to displaced geometry.

	--- Internal Coordinate Step in ANG or DEG, aJ/ANG or AJ/DEG ---
	 ---------------------------------------------------------------------------
	   Coordinate                Previous        Force       Change         New 
	   ----------                --------       ------       ------       ------
	    1 R(1,2)          =      1.091460    -0.000005    -0.000001     1.091459
	    2 R(1,3)          =      1.089331    -0.000005    -0.000001     1.089330
	    3 R(1,4)          =      1.089795    -0.000005    -0.000001     1.089794
	    4 R(1,9)          =      1.525325    -0.000000    -0.000000     1.525325
	    5 R(5,6)          =      1.089982    -0.000005    -0.000001     1.089981
	    6 R(5,7)          =      1.089858    -0.000009    -0.000002     1.089856
	    7 R(5,8)          =      1.091419    -0.000008    -0.000001     1.091418
	    8 R(5,12)         =      1.524696    -0.000002    -0.000001     1.524695
	    9 R(9,10)         =      1.092253    -0.000005    -0.000001     1.092252
	   10 R(9,11)         =      1.093582    -0.000006    -0.000001     1.093581
	   11 R(9,15)         =      1.527266    -0.000001    -0.000000     1.527266
	   12 R(12,13)        =      1.092581    -0.000007    -0.000001     1.092580
	   13 R(12,14)        =      1.093608    -0.000008    -0.000002     1.093606
	   14 R(12,24)        =      1.528475    -0.000005    -0.000002     1.528473
	   15 R(15,16)        =      1.094333    -0.000004    -0.000001     1.094332
	   16 R(15,17)        =      1.093937    -0.000004    -0.000001     1.093937
	   17 R(15,18)        =      1.525507     0.000002     0.000000     1.525507
	   18 R(18,19)        =      1.094330    -0.000007    -0.000001     1.094328
	   19 R(18,20)        =      1.090926    -0.000010    -0.000002     1.090924
	   20 R(18,21)        =      1.530351    -0.000000    -0.000001     1.530351
	   21 R(21,22)        =      1.094136    -0.000007    -0.000001     1.094135
	   22 R(21,23)        =      1.093276    -0.000004    -0.000001     1.093275
	   23 R(21,24)        =      1.536559    -0.000012    -0.000004     1.536555
	   24 R(24,25)        =      1.091923    -0.000005    -0.000001     1.091922
	   25 R(24,26)        =      1.094120    -0.000008    -0.000001     1.094118
	   26 B(1,9,10)       =    109.046202     0.000000     0.000029   109.046231
	   27 B(1,9,11)       =    109.691610     0.000000    -0.000003   109.691607
	   28 B(1,9,15)       =    113.197667    -0.000000    -0.000038   113.197629
	   29 B(2,1,3)        =    107.809217     0.000000    -0.000001   107.809216
	   30 B(2,1,4)        =    107.844276    -0.000000    -0.000011   107.844266
	   31 B(2,1,9)        =    110.543018    -0.000000    -0.000036   110.542982
	   32 B(3,1,4)        =    107.568494    -0.000000    -0.000027   107.568468
	   33 B(3,1,9)        =    111.702295     0.000000     0.000020   111.702316
	   34 B(4,1,9)        =    111.206782     0.000000     0.000052   111.206834
	   35 B(5,12,13)      =    109.166634     0.000000     0.000306   109.166940
	   36 B(5,12,14)      =    109.268670    -0.000000    -0.000135   109.268536
	   37 B(5,12,24)      =    114.108968     0.000000    -0.000234   114.108735
	   38 B(6,5,7)        =    107.581717    -0.000000    -0.000065   107.581652
	   39 B(6,5,8)        =    107.897882    -0.000000    -0.000002   107.897880
	   40 B(6,5,12)       =    110.968103     0.000000    -0.000017   110.968086
	   41 B(7,5,8)        =    107.870970     0.000000     0.000078   107.871047
	   42 B(7,5,12)       =    111.471552    -0.000000    -0.000018   111.471534
	   43 B(8,5,12)       =    110.891436     0.000000     0.000024   110.891460
	   44 B(9,15,16)      =    108.833777    -0.000000    -0.000041   108.833736
	   45 B(9,15,17)      =    109.417824    -0.000000    -0.000016   109.417808
	   46 B(9,15,18)      =    113.617666     0.000000     0.000026   113.617693
	   47 B(10,9,11)      =    106.473480    -0.000000    -0.000014   106.473466
	   48 B(10,9,15)      =    109.018114     0.000000     0.000022   109.018137
	   49 B(11,9,15)      =    109.190353     0.000000     0.000005   109.190357
	   50 B(12,24,21)     =    113.704803    -0.000000    -0.000381   113.704422
	   51 B(12,24,25)     =    108.227137    -0.000000     0.000210   108.227348
	   52 B(12,24,26)     =    109.050455     0.000000     0.000050   109.050505
	   53 B(13,12,14)     =    106.440103     0.000000     0.000023   106.440126
	   54 B(13,12,24)     =    108.896631    -0.000000     0.000068   108.896698
	   55 B(14,12,24)     =    108.679586    -0.000000    -0.000012   108.679573
	   56 B(15,18,19)     =    108.380970     0.000000    -0.000038   108.380932
	   57 B(15,18,20)     =    109.938370     0.000000     0.000081   109.938451
	   58 B(15,18,21)     =    112.593617    -0.000000    -0.000212   112.593406
	   59 B(16,15,17)     =    106.409717    -0.000000    -0.000030   106.409687
	   60 B(16,15,18)     =    109.922420     0.000000     0.000007   109.922427
	   61 B(17,15,18)     =    108.389628     0.000000     0.000050   108.389679
	   62 B(18,21,22)     =    109.783333     0.000000     0.000049   109.783382
	   63 B(18,21,23)     =    108.033450     0.000000     0.000162   108.033612
	   64 B(18,21,24)     =    114.019021    -0.000000    -0.000287   114.018734
	   65 B(19,18,20)     =    106.683552    -0.000000    -0.000082   106.683470
	   66 B(19,18,21)     =    109.613880    -0.000000    -0.000161   109.613719
	   67 B(20,18,21)     =    109.451627     0.000000     0.000412   109.452039
	   68 B(21,24,25)     =    109.783458    -0.000000     0.000168   109.783625
	   69 B(21,24,26)     =    109.647714    -0.000000    -0.000075   109.647640
	   70 B(22,21,23)     =    106.091632    -0.000000     0.000068   106.091700
	   71 B(22,21,24)     =    108.741110     0.000000     0.000142   108.741252
	   72 B(23,21,24)     =    109.875814    -0.000000    -0.000111   109.875704
	   73 B(25,24,26)     =    106.141956    -0.000000     0.000060   106.142016
	   74 D(1,9,15,16)    =    -56.359947    -0.000000     0.001188   -56.358759
	   75 D(1,9,15,17)    =   -172.254857     0.000000     0.001255  -172.253602
	   76 D(1,9,15,18)    =     66.465263    -0.000000     0.001184    66.466448
	   77 D(2,1,9,10)     =    -65.316420     0.000000     0.000189   -65.316231
	   78 D(2,1,9,11)     =    178.440457    -0.000000     0.000191   178.440648
	   79 D(2,1,9,15)     =     56.218086     0.000000     0.000214    56.218299
	   80 D(3,1,9,10)     =    174.638518     0.000000     0.000202   174.638719
	   81 D(3,1,9,11)     =     58.395395     0.000000     0.000203    58.395598
	   82 D(3,1,9,15)     =    -63.826976     0.000000     0.000226   -63.826751
	   83 D(4,1,9,10)     =     54.446615    -0.000000     0.000186    54.446801
	   84 D(4,1,9,11)     =    -61.796508    -0.000000     0.000188   -61.796320
	   85 D(4,1,9,15)     =    175.981120     0.000000     0.000210   175.981331
	   86 D(5,12,24,21)   =    -60.418905     0.000000     0.006617   -60.412288
	   87 D(5,12,24,25)   =    177.320486     0.000000     0.006503   177.326989
	   88 D(5,12,24,26)   =     62.272375     0.000000     0.006294    62.278669
	   89 D(6,5,12,13)    =    -54.817282     0.000000     0.001512   -54.815770
	   90 D(6,5,12,14)    =     61.217123    -0.000000     0.001635    61.218759
	   91 D(6,5,12,24)    =   -176.902590     0.000000     0.001358  -176.901232
	   92 D(7,5,12,13)    =   -174.708066     0.000000     0.001618  -174.706449
	   93 D(7,5,12,14)    =    -58.673661     0.000000     0.001741   -58.671920
	   94 D(7,5,12,24)    =     63.206626     0.000000     0.001464    63.208089
	   95 D(8,5,12,13)    =     65.086754     0.000000     0.001515    65.088269
	   96 D(8,5,12,14)    =   -178.878841    -0.000000     0.001638  -178.877203
	   97 D(8,5,12,24)    =    -56.998554     0.000000     0.001361   -56.997193
	   98 D(9,15,18,19)   =     60.003387     0.000000    -0.001793    60.001594
	   99 D(9,15,18,20)   =    -56.250340     0.000000    -0.001717   -56.252058
	  100 D(9,15,18,21)   =   -178.570070    -0.000000    -0.002159  -178.572229
	  101 D(10,9,15,16)   =     65.190344     0.000000     0.001216    65.191560
	  102 D(10,9,15,17)   =    -50.704566     0.000000     0.001283   -50.703283
	  103 D(10,9,15,18)   =   -171.984446     0.000000     0.001213  -171.983234
	  104 D(11,9,15,16)   =   -178.861516     0.000000     0.001214  -178.860302
	  105 D(11,9,15,17)   =     65.243574     0.000000     0.001282    65.244856
	  106 D(11,9,15,18)   =    -56.036306     0.000000     0.001211   -56.035095
	  107 D(12,24,21,18)  =     97.182459     0.000000     0.005996    97.188455
	  108 D(12,24,21,22)  =    -25.670796     0.000000     0.006025   -25.664771
	  109 D(12,24,21,23)  =   -141.385391     0.000000     0.005924  -141.379467
	  110 D(13,12,24,21)  =    177.347656    -0.000000     0.006332   177.353988
	  111 D(13,12,24,25)  =     55.087047     0.000000     0.006218    55.093265
	  112 D(13,12,24,26)  =    -59.961064    -0.000000     0.006009   -59.955055
	  113 D(14,12,24,21)  =     61.784987     0.000000     0.006275    61.791262
	  114 D(14,12,24,25)  =    -60.475622     0.000000     0.006161   -60.469460
	  115 D(14,12,24,26)  =   -175.523732     0.000000     0.005952  -175.517780
	  116 D(15,18,21,22)  =   -163.740242     0.000000     0.002351  -163.737891
	  117 D(15,18,21,23)  =    -48.470480     0.000000     0.002547   -48.467933
	  118 D(15,18,21,24)  =     73.976712    -0.000000     0.002332    73.979044
	  119 D(16,15,18,19)  =   -177.771877     0.000000    -0.001822  -177.773699
	  120 D(16,15,18,20)  =     65.974396     0.000000    -0.001747    65.972649
	  121 D(16,15,18,21)  =    -56.345334    -0.000000    -0.002188   -56.347522
	  122 D(17,15,18,19)  =    -61.849594     0.000000    -0.001826   -61.851420
	  123 D(17,15,18,20)  =   -178.103321     0.000000    -0.001750  -178.105072
	  124 D(17,15,18,21)  =     59.576949    -0.000000    -0.002192    59.574757
	  125 D(18,21,24,25)  =   -141.420551     0.000000     0.006128  -141.414423
	  126 D(18,21,24,26)  =    -25.179946     0.000000     0.006254   -25.173692
	  127 D(19,18,21,22)  =    -43.018070    -0.000000     0.002050   -43.016020
	  128 D(19,18,21,23)  =     72.251693     0.000000     0.002246    72.253938
	  129 D(19,18,21,24)  =   -165.301116    -0.000000     0.002031  -165.299085
	  130 D(20,18,21,22)  =     73.666082     0.000000     0.002096    73.668178
	  131 D(20,18,21,23)  =   -171.064156     0.000000     0.002292  -171.061864
	  132 D(20,18,21,24)  =    -48.616964    -0.000000     0.002077   -48.614887
	  133 D(22,21,24,25)  =     95.726194     0.000000     0.006157    95.732352
	  134 D(22,21,24,26)  =   -148.033201    -0.000000     0.006283  -148.026918
	  135 D(23,21,24,25)  =    -19.988401     0.000000     0.006057   -19.982345
	  136 D(23,21,24,26)  =     96.252203     0.000000     0.006182    96.258386
	  137 R(5,18)         =      3.410062    -0.000000     0.000032     3.410094
	 ---------------------------------------------------------------------------

  ==> Convergence Check <==

  Measures of convergence in internal coordinates in au.
  Criteria marked as inactive (o), active & met (*), and active & unmet ( ).
  --------------------------------------------------------------------------------------------- ~
   Step     Total Energy     Delta E     MAX Force     RMS Force      MAX Disp      RMS Disp    ~
  --------------------------------------------------------------------------------------------- ~
    Convergence Criteria             o    2.00e-06 *    1.00e-06 *    6.00e-06 *    4.00e-06 *  ~
  --------------------------------------------------------------------------------------------- ~
      1    -314.97998672   -3.15e+02 o    1.48e-06 *    3.53e-07 *    1.15e-04      4.26e-05    ~
  ---------------------------------------------------------------------------------------------

	Writing optimization data to binary file.
	Structure for next step:
	Cartesian Geometry (in Angstrom)
	    C     2.7580335671   1.3376483832   0.1749337363
	    H     2.5034649483   1.3737581304   1.2356760823
	    H     2.0081118974   1.9122032372  -0.3674176489
	    H     3.7158944003   1.8406683739   0.0440709738
	    C    -2.2690649519   1.5687721757   0.1362933292
	    H    -3.0953190694   2.2795548643   0.1486029548
	    H    -1.9260094681   1.4805721136  -0.8943957285
	    H    -1.4537274258   1.9920020207   0.7256099607
	    C     2.8223510968  -0.1066994213  -0.3112137962
	    H     3.6481793621  -0.6153935937   0.1910334797
	    H     3.0507658884  -0.1257690724  -1.3805042731
	    C    -2.7020807101   0.2189973648   0.6978088631
	    H    -3.1254569336   0.3642433881   1.6944971046
	    H    -3.5045624458  -0.1894087893   0.0771620113
	    C     1.5321175263  -0.8841914566  -0.0595310738
	    H     1.2982123035  -0.8441686864   1.0087618618
	    H     1.6900452163  -1.9391623485  -0.3020026401
	    C     0.3443836421  -0.3764263941  -0.8710943818
	    H     0.5896861307  -0.4646152614  -1.9339225740
	    H     0.1850821659   0.6845475172  -0.6734272214
	    C    -0.9431516271  -1.1488861396  -0.5752353747
	    H    -1.6784241274  -0.9586624798  -1.3628397272
	    H    -0.7158463423  -2.2171364194  -0.6244771736
	    C    -1.5766407690  -0.8116734506   0.7834335602
	    H    -1.9783401469  -1.7189383087   1.2392853075
	    H    -0.8061491126  -0.4431334676   1.4672576204
			--------------------------
			 OPTKING Finished Execution 
			--------------------------

    Structure for next step:
    Molecular point group: c1
    Full point group: C1

    Geometry (in Angstrom), charge = 0, multiplicity = 1:

    C            2.758032214215     1.337643815430     0.174933725633
    H            2.503463595433     1.373753562569     1.235676071567
    H            2.008110544454     1.912198669436    -0.367417659643
    H            3.715893047402     1.840663806157     0.044070963109
    C           -2.269066304806     1.568767607906     0.136293318453
    H           -3.095320422310     2.279550296561     0.148602944088
    H           -1.926010820959     1.480567545794    -0.894395739220
    H           -1.453728778757     1.991997452873     0.725609949982
    C            2.822349743917    -0.106703989108    -0.311213806870
    H            3.648178009188    -0.615398161507     0.191033469035
    H            3.050764535461    -0.125773640140    -1.380504283798
    C           -2.702082062993     0.218992797063     0.697808852425
    H           -3.125458286513     0.364238820307     1.694497093857
    H           -3.504563798689    -0.189413357130     0.077162000555
    C            1.532116173376    -0.884196024346    -0.059531084449
    H            1.298210950584    -0.844173254140     1.008761851073
    H            1.690043863364    -1.939166916325    -0.302002650836
    C            0.344382289198    -0.376430961881    -0.871094392469
    H            0.589684777791    -0.464619829186    -1.933922584689
    H            0.185080812959     0.684542949406    -0.673427232063
    C           -0.943152979960    -1.148890707367    -0.575235385377
    H           -1.678425480331    -0.958667047597    -1.362839737948
    H           -0.715847695183    -2.217140987213    -0.624477184328
    C           -1.576642121920    -0.811678018399     0.783433549460
    H           -1.978341499817    -1.718942876506     1.239285296822
    H           -0.806150465504    -0.443138035429     1.467257609736

gradient() will perform analytic gradient computation.

*** tstart() called on wr29
*** at Tue Sep 20 22:47:21 2016


         ---------------------------------------------------------
                                   SCF
            by Justin Turney, Rob Parrish, and Andy Simmonett
                              RHF Reference
                       12 Threads,  60000 MiB Core
         ---------------------------------------------------------

  ==> Geometry <==

    Molecular point group: c1
    Full point group: C1

    Geometry (in Angstrom), charge = 0, multiplicity = 1:

       Center              X                  Y                   Z               Mass       
    ------------   -----------------  -----------------  -----------------  -----------------
           C          2.758032214215     1.337643815430     0.174933725633    12.000000000000
           H          2.503463595433     1.373753562569     1.235676071567     1.007825032070
           H          2.008110544454     1.912198669436    -0.367417659643     1.007825032070
           H          3.715893047402     1.840663806157     0.044070963109     1.007825032070
           C         -2.269066304806     1.568767607906     0.136293318453    12.000000000000
           H         -3.095320422310     2.279550296561     0.148602944088     1.007825032070
           H         -1.926010820959     1.480567545794    -0.894395739220     1.007825032070
           H         -1.453728778757     1.991997452873     0.725609949982     1.007825032070
           C          2.822349743917    -0.106703989108    -0.311213806870    12.000000000000
           H          3.648178009188    -0.615398161507     0.191033469035     1.007825032070
           H          3.050764535461    -0.125773640140    -1.380504283798     1.007825032070
           C         -2.702082062993     0.218992797063     0.697808852425    12.000000000000
           H         -3.125458286513     0.364238820307     1.694497093857     1.007825032070
           H         -3.504563798689    -0.189413357130     0.077162000555     1.007825032070
           C          1.532116173376    -0.884196024346    -0.059531084449    12.000000000000
           H          1.298210950584    -0.844173254140     1.008761851073     1.007825032070
           H          1.690043863364    -1.939166916325    -0.302002650836     1.007825032070
           C          0.344382289198    -0.376430961881    -0.871094392469    12.000000000000
           H          0.589684777791    -0.464619829186    -1.933922584689     1.007825032070
           H          0.185080812959     0.684542949406    -0.673427232063     1.007825032070
           C         -0.943152979960    -1.148890707367    -0.575235385377    12.000000000000
           H         -1.678425480331    -0.958667047597    -1.362839737948     1.007825032070
           H         -0.715847695183    -2.217140987213    -0.624477184328     1.007825032070
           C         -1.576642121920    -0.811678018399     0.783433549460    12.000000000000
           H         -1.978341499817    -1.718942876506     1.239285296822     1.007825032070
           H         -0.806150465504    -0.443138035429     1.467257609736     1.007825032070

  Running in c1 symmetry.

  Rotational constants: A =      0.10323  B =      0.03072  C =      0.02657 [cm^-1]
  Rotational constants: A =   3094.90157  B =    920.97767  C =    796.59793 [MHz]
  Nuclear repulsion =  399.463131569364919

  Charge       = 0
  Multiplicity = 1
  Electrons    = 66
  Nalpha       = 33
  Nbeta        = 33

  ==> Algorithm <==

  SCF Algorithm Type is DF.
  DIIS enabled.
  MOM disabled.
  Fractional occupation disabled.
  Guess Type is READ.
  Energy threshold   = 1.00e-10
  Density threshold  = 1.00e-10
  Integral threshold = 0.00e+00

  ==> Primary Basis <==

  Basis Set: AUG-CC-PVTZ
    Number of shells: 274
    Number of basis function: 782
    Number of Cartesian functions: 890
    Spherical Harmonics?: true
    Max angular momentum: 3

  ==> Pre-Iterations <==

   -------------------------------------------------------
    Irrep   Nso     Nmo     Nalpha   Nbeta   Ndocc  Nsocc
   -------------------------------------------------------
     A        782     782       0       0       0       0
   -------------------------------------------------------
    Total     782     782      33      33      33       0
   -------------------------------------------------------

  ==> Integral Setup <==

  ==> DFJK: Density-Fitted J/K Matrices <==

    J tasked:                  Yes
    K tasked:                  Yes
    wK tasked:                  No
    OpenMP threads:             12
    Integrals threads:          12
    Memory (MB):             42915
    Algorithm:                Core
    Integral Cache:           NONE
    Schwarz Cutoff:          1E-12
    Fitting Condition:       1E-12

   => Auxiliary Basis Set <=

  Basis Set: 
    Number of shells: 492
    Number of basis function: 1660
    Number of Cartesian functions: 2038
    Spherical Harmonics?: true
    Max angular momentum: 4

  Minimum eigenvalue in the overlap matrix is 1.5818582365E-06.
  Using Symmetric Orthogonalization.
  SCF Guess: Reading in previously saved MOs, projecting if necessary.

  Using orbitals from previous SCF, no projection.
  Recomputing DOCC and SOCC from number of alpha and beta electrons from previous calculation.
              A 
    DOCC [    33 ]

  ==> Iterations <==

                           Total Energy        Delta E     RMS |[F,P]|

   @DF-RHF iter   0:  -313.53702388332624   -3.13537e+02   4.15565e-07 
   @DF-RHF iter   1:  -313.53694010393201    8.37794e-05   8.92418e-08 
   @DF-RHF iter   2:  -313.53694010818742   -4.25541e-09   3.74393e-08 DIIS
   @DF-RHF iter   3:  -313.53694010881395   -6.26528e-10   1.49748e-08 DIIS
   @DF-RHF iter   4:  -313.53694010894856   -1.34605e-10   1.52297e-09 DIIS
   @DF-RHF iter   5:  -313.53694010895003   -1.47793e-12   4.61818e-10 DIIS
   @DF-RHF iter   6:  -313.53694010895072   -6.82121e-13   1.37170e-10 DIIS
   @DF-RHF iter   7:  -313.53694010895094   -2.27374e-13   2.90854e-11 DIIS

  ==> Post-Iterations <==

    Orbital Energies (a.u.)
    -----------------------

    Doubly Occupied:                                                      

       1A    -11.213096     2A    -11.212648     3A    -11.210448  
       4A    -11.209803     5A    -11.209523     6A    -11.208341  
       7A    -11.207098     8A    -11.206739     9A     -1.093817  
      10A     -1.059776    11A     -1.006198    12A     -0.944337  
      13A     -0.892603    14A     -0.826850    15A     -0.785698  
      16A     -0.757935    17A     -0.642890    18A     -0.627648  
      19A     -0.605635    20A     -0.600343    21A     -0.590561  
      22A     -0.549618    23A     -0.543282    24A     -0.527103  
      25A     -0.521196    26A     -0.501669    27A     -0.494521  
      28A     -0.470280    29A     -0.464288    30A     -0.461335  
      31A     -0.442990    32A     -0.439499    33A     -0.432908  

    Virtual:                                                              

      34A      0.029264    35A      0.033348    36A      0.034437  
      37A      0.035186    38A      0.045871    39A      0.047738  
      40A      0.049251    41A      0.053098    42A      0.055480  
      43A      0.067822    44A      0.069128    45A      0.071587  
      46A      0.073643    47A      0.077709    48A      0.083870  
      49A      0.094624    50A      0.096522    51A      0.108118  
      52A      0.114037    53A      0.118329    54A      0.119863  
      55A      0.123353    56A      0.125834    57A      0.127761  
      58A      0.132984    59A      0.136960    60A      0.142282  
      61A      0.143103    62A      0.146189    63A      0.147273  
      64A      0.152773    65A      0.156158    66A      0.161839  
      67A      0.163647    68A      0.168673    69A      0.171553  
      70A      0.174058    71A      0.178702    72A      0.179803  
      73A      0.187420    74A      0.192200    75A      0.198616  
      76A      0.202952    77A      0.215058    78A      0.222244  
      79A      0.224372    80A      0.231986    81A      0.234500  
      82A      0.239883    83A      0.245210    84A      0.252694  
      85A      0.254523    86A      0.271554    87A      0.287948  
      88A      0.290367    89A      0.295001    90A      0.302412  
      91A      0.302654    92A      0.307154    93A      0.311352  
      94A      0.314623    95A      0.316340    96A      0.318734  
      97A      0.319329    98A      0.329959    99A      0.332111  
     100A      0.337500   101A      0.340172   102A      0.343131  
     103A      0.345102   104A      0.352644   105A      0.355118  
     106A      0.357803   107A      0.363756   108A      0.365167  
     109A      0.367961   110A      0.372413   111A      0.376496  
     112A      0.382782   113A      0.385501   114A      0.387816  
     115A      0.391673   116A      0.392408   117A      0.399095  
     118A      0.401375   119A      0.406825   120A      0.414695  
     121A      0.420046   122A      0.422732   123A      0.425901  
     124A      0.428622   125A      0.435317   126A      0.436842  
     127A      0.443408   128A      0.448390   129A      0.450801  
     130A      0.453202   131A      0.456182   132A      0.461002  
     133A      0.464490   134A      0.464928   135A      0.469765  
     136A      0.471029   137A      0.477017   138A      0.480091  
     139A      0.486485   140A      0.490200   141A      0.498504  
     142A      0.501029   143A      0.504724   144A      0.505962  
     145A      0.512588   146A      0.515418   147A      0.520972  
     148A      0.524899   149A      0.528444   150A      0.529454  
     151A      0.533310   152A      0.540987   153A      0.546129  
     154A      0.553674   155A      0.555823   156A      0.558558  
     157A      0.563899   158A      0.565513   159A      0.572605  
     160A      0.576408   161A      0.578728   162A      0.583734  
     163A      0.585067   164A      0.589607   165A      0.595281  
     166A      0.599680   167A      0.601501   168A      0.607431  
     169A      0.614845   170A      0.617226   171A      0.619909  
     172A      0.622798   173A      0.627411   174A      0.632028  
     175A      0.646499   176A      0.649212   177A      0.652245  
     178A      0.655999   179A      0.662714   180A      0.667925  
     181A      0.675848   182A      0.679395   183A      0.683683  
     184A      0.687372   185A      0.695727   186A      0.704064  
     187A      0.706030   188A      0.712183   189A      0.717512  
     190A      0.724219   191A      0.726353   192A      0.736957  
     193A      0.737299   194A      0.741750   195A      0.751192  
     196A      0.752657   197A      0.760017   198A      0.770813  
     199A      0.776959   200A      0.797032   201A      0.803605  
     202A      0.812781   203A      0.814897   204A      0.820459  
     205A      0.832428   206A      0.838215   207A      0.846871  
     208A      0.849706   209A      0.853285   210A      0.864671  
     211A      0.869741   212A      0.875153   213A      0.877602  
     214A      0.881965   215A      0.887650   216A      0.891999  
     217A      0.894836   218A      0.899873   219A      0.911090  
     220A      0.915545   221A      0.919427   222A      0.921981  
     223A      0.925478   224A      0.933063   225A      0.939074  
     226A      0.944488   227A      0.955169   228A      0.962090  
     229A      0.962591   230A      0.967434   231A      0.969494  
     232A      0.976721   233A      0.981492   234A      0.984018  
     235A      0.991458   236A      0.996037   237A      1.005964  
     238A      1.007801   239A      1.011788   240A      1.014312  
     241A      1.016678   242A      1.020468   243A      1.030157  
     244A      1.035310   245A      1.035415   246A      1.043215  
     247A      1.054910   248A      1.056737   249A      1.060973  
     250A      1.066123   251A      1.069979   252A      1.077726  
     253A      1.084582   254A      1.089776   255A      1.098935  
     256A      1.102437   257A      1.109316   258A      1.114790  
     259A      1.116038   260A      1.119826   261A      1.127599  
     262A      1.132978   263A      1.134625   264A      1.140979  
     265A      1.150040   266A      1.155898   267A      1.156625  
     268A      1.158028   269A      1.164348   270A      1.168260  
     271A      1.176468   272A      1.186052   273A      1.191532  
     274A      1.193599   275A      1.197029   276A      1.205657  
     277A      1.208299   278A      1.213866   279A      1.219027  
     280A      1.225637   281A      1.231767   282A      1.236146  
     283A      1.245579   284A      1.249617   285A      1.254475  
     286A      1.256558   287A      1.267074   288A      1.269993  
     289A      1.274690   290A      1.276993   291A      1.279857  
     292A      1.285293   293A      1.289763   294A      1.296863  
[...]
	   12 R(12,13)        =      1.092582    -0.000012     0.000001     1.092583
	   13 R(12,14)        =      1.093609    -0.000015     0.000001     1.093610
	   14 R(12,24)        =      1.528474     0.000002    -0.000001     1.528473
	   15 R(15,16)        =      1.094333    -0.000008     0.000000     1.094333
	   16 R(15,17)        =      1.093937    -0.000007     0.000000     1.093937
	   17 R(15,18)        =      1.525506     0.000004     0.000000     1.525506
	   18 R(18,19)        =      1.094329    -0.000006    -0.000000     1.094329
	   19 R(18,20)        =      1.090924    -0.000007    -0.000000     1.090924
	   20 R(18,21)        =      1.530351    -0.000000     0.000000     1.530351
	   21 R(21,22)        =      1.094136    -0.000007    -0.000000     1.094135
	   22 R(21,23)        =      1.093276    -0.000006    -0.000000     1.093276
	   23 R(21,24)        =      1.536559    -0.000010    -0.000001     1.536558
	   24 R(24,25)        =      1.091923    -0.000008    -0.000000     1.091923
	   25 R(24,26)        =      1.094119    -0.000011     0.000000     1.094119
	   26 B(1,9,10)       =    109.046220    -0.000000     0.000030   109.046250
	   27 B(1,9,11)       =    109.691606    -0.000000    -0.000007   109.691599
	   28 B(1,9,15)       =    113.197597     0.000000    -0.000028   113.197570
	   29 B(2,1,3)        =    107.809207     0.000000     0.000003   107.809209
	   30 B(2,1,4)        =    107.844262    -0.000000    -0.000001   107.844262
	   31 B(2,1,9)        =    110.542999    -0.000000    -0.000003   110.542995
	   32 B(3,1,4)        =    107.568454    -0.000000    -0.000006   107.568447
	   33 B(3,1,9)        =    111.702319    -0.000000     0.000001   111.702320
	   34 B(4,1,9)        =    111.206839     0.000000     0.000007   111.206846
	   35 B(5,12,13)      =    109.166752    -0.000000     0.000021   109.166773
	   36 B(5,12,14)      =    109.268547    -0.000000    -0.000017   109.268531
	   37 B(5,12,24)      =    114.109101     0.000000     0.000029   114.109130
	   38 B(6,5,7)        =    107.581680    -0.000000     0.000003   107.581683
	   39 B(6,5,8)        =    107.897870    -0.000000     0.000000   107.897871
	   40 B(6,5,12)       =    110.967984     0.000000    -0.000028   110.967956
	   41 B(7,5,8)        =    107.871003     0.000000    -0.000005   107.870998
	   42 B(7,5,12)       =    111.471557    -0.000000     0.000014   111.471571
	   43 B(8,5,12)       =    110.891562    -0.000000     0.000016   110.891579
	   44 B(9,15,16)      =    108.833718    -0.000000    -0.000019   108.833699
	   45 B(9,15,17)      =    109.417808    -0.000000    -0.000001   109.417807
	   46 B(9,15,18)      =    113.617714     0.000000    -0.000008   113.617706
	   47 B(10,9,11)      =    106.473471     0.000000     0.000005   106.473476
	   48 B(10,9,15)      =    109.018204    -0.000000    -0.000009   109.018195
	   49 B(11,9,15)      =    109.190332    -0.000000     0.000011   109.190343
	   50 B(12,24,21)     =    113.704752    -0.000000    -0.000020   113.704732
	   51 B(12,24,25)     =    108.227071    -0.000000     0.000007   108.227078
	   52 B(12,24,26)     =    109.050672     0.000000    -0.000006   109.050666
	   53 B(13,12,14)     =    106.440021     0.000000    -0.000006   106.440015
	   54 B(13,12,24)     =    108.896619    -0.000000    -0.000038   108.896581
	   55 B(14,12,24)     =    108.679537    -0.000000     0.000008   108.679546
	   56 B(15,18,19)     =    108.381041    -0.000000     0.000018   108.381059
	   57 B(15,18,20)     =    109.938468    -0.000000     0.000087   109.938554
	   58 B(15,18,21)     =    112.593118     0.000000    -0.000102   112.593016
	   59 B(16,15,17)     =    106.409670     0.000000     0.000004   106.409674
	   60 B(16,15,18)     =    109.922402    -0.000000    -0.000020   109.922382
	   61 B(17,15,18)     =    108.389715    -0.000000     0.000045   108.389760
	   62 B(18,21,22)     =    109.783466     0.000000     0.000041   109.783506
	   63 B(18,21,23)     =    108.033391     0.000000     0.000032   108.033423
	   64 B(18,21,24)     =    114.019076    -0.000000    -0.000130   114.018946
	   65 B(19,18,20)     =    106.683514     0.000000     0.000001   106.683515
	   66 B(19,18,21)     =    109.613770    -0.000000    -0.000066   109.613704
	   67 B(20,18,21)     =    109.452122    -0.000000     0.000067   109.452189
	   68 B(21,24,25)     =    109.783376     0.000000     0.000028   109.783404
	   69 B(21,24,26)     =    109.647691     0.000000    -0.000009   109.647682
	   70 B(22,21,23)     =    106.091628    -0.000000     0.000012   106.091640
	   71 B(22,21,24)     =    108.741180     0.000000     0.000086   108.741266
	   72 B(23,21,24)     =    109.875614     0.000000    -0.000032   109.875582
	   73 B(25,24,26)     =    106.141967    -0.000000     0.000001   106.141968
	   74 D(1,9,15,16)    =    -56.359664    -0.000000    -0.000025   -56.359690
	   75 D(1,9,15,17)    =   -172.254476     0.000000    -0.000019  -172.254495
	   76 D(1,9,15,18)    =     66.465512     0.000000    -0.000071    66.465441
	   77 D(2,1,9,10)     =    -65.316040     0.000000    -0.000008   -65.316047
	   78 D(2,1,9,11)     =    178.440841     0.000000    -0.000027   178.440814
	   79 D(2,1,9,15)     =     56.218547    -0.000000    -0.000017    56.218531
	   80 D(3,1,9,10)     =    174.638909     0.000000    -0.000009   174.638900
	   81 D(3,1,9,11)     =     58.395789     0.000000    -0.000029    58.395761
	   82 D(3,1,9,15)     =    -63.826504    -0.000000    -0.000018   -63.826523
	   83 D(4,1,9,10)     =     54.447002     0.000000    -0.000006    54.446996
	   84 D(4,1,9,11)     =    -61.796117     0.000000    -0.000026   -61.796143
	   85 D(4,1,9,15)     =    175.981589    -0.000000    -0.000015   175.981574
	   86 D(5,12,24,21)   =    -60.417145    -0.000000     0.000131   -60.417014
	   87 D(5,12,24,25)   =    177.322433    -0.000000     0.000103   177.322536
	   88 D(5,12,24,26)   =     62.274231    -0.000000     0.000101    62.274332
	   89 D(6,5,12,13)    =    -54.816913     0.000000    -0.000277   -54.817190
	   90 D(6,5,12,14)    =     61.217391    -0.000000    -0.000282    61.217108
	   91 D(6,5,12,24)    =   -176.902386    -0.000000    -0.000263  -176.902649
	   92 D(7,5,12,13)    =   -174.707575    -0.000000    -0.000270  -174.707845
	   93 D(7,5,12,14)    =    -58.673271    -0.000000    -0.000276   -58.673546
	   94 D(7,5,12,24)    =     63.206953    -0.000000    -0.000257    63.206696
	   95 D(8,5,12,13)    =     65.087113     0.000000    -0.000284    65.086829
	   96 D(8,5,12,14)    =   -178.878582    -0.000000    -0.000290  -178.878872
	   97 D(8,5,12,24)    =    -56.998359    -0.000000    -0.000271   -56.998630
	   98 D(9,15,18,19)   =     60.003483    -0.000000    -0.000030    60.003452
	   99 D(9,15,18,20)   =    -56.250293    -0.000000    -0.000090   -56.250383
	  100 D(9,15,18,21)   =   -178.570385    -0.000000    -0.000167  -178.570552
	  101 D(10,9,15,16)   =     65.190667    -0.000000    -0.000013    65.190654
	  102 D(10,9,15,17)   =    -50.704145     0.000000    -0.000006   -50.704151
	  103 D(10,9,15,18)   =   -171.984157     0.000000    -0.000058  -171.984215
	  104 D(11,9,15,16)   =   -178.861166    -0.000000    -0.000006  -178.861171
	  105 D(11,9,15,17)   =     65.244023    -0.000000     0.000001    65.244023
	  106 D(11,9,15,18)   =    -56.035990     0.000000    -0.000051   -56.036041
	  107 D(12,24,21,18)  =     97.183027     0.000000     0.000101    97.183128
	  108 D(12,24,21,22)  =    -25.670489     0.000000     0.000074   -25.670416
	  109 D(12,24,21,23)  =   -141.385010     0.000000     0.000028  -141.384982
	  110 D(13,12,24,21)  =    177.349181    -0.000000     0.000112   177.349293
	  111 D(13,12,24,25)  =     55.088759    -0.000000     0.000085    55.088844
	  112 D(13,12,24,26)  =    -59.959443    -0.000000     0.000083   -59.959360
	  113 D(14,12,24,21)  =     61.786642    -0.000000     0.000136    61.786778
	  114 D(14,12,24,25)  =    -60.473780    -0.000000     0.000108   -60.473671
	  115 D(14,12,24,26)  =   -175.521981    -0.000000     0.000106  -175.521875
	  116 D(15,18,21,22)  =   -163.739546     0.000000     0.000217  -163.739329
	  117 D(15,18,21,23)  =    -48.469751     0.000000     0.000271   -48.469480
	  118 D(15,18,21,24)  =     73.977178     0.000000     0.000166    73.977344
	  119 D(16,15,18,19)  =   -177.771838    -0.000000    -0.000076  -177.771913
	  120 D(16,15,18,20)  =     65.974387     0.000000    -0.000135    65.974252
	  121 D(16,15,18,21)  =    -56.345705    -0.000000    -0.000213   -56.345918
	  122 D(17,15,18,19)  =    -61.849572    -0.000000    -0.000056   -61.849628
	  123 D(17,15,18,20)  =   -178.103348    -0.000000    -0.000116  -178.103463
	  124 D(17,15,18,21)  =     59.576561    -0.000000    -0.000193    59.576367
	  125 D(18,21,24,25)  =   -141.420164     0.000000     0.000117  -141.420047
	  126 D(18,21,24,26)  =    -25.179607     0.000000     0.000129   -25.179478
	  127 D(19,18,21,22)  =    -43.017690     0.000000     0.000126   -43.017564
	  128 D(19,18,21,23)  =     72.252105     0.000000     0.000180    72.252285
	  129 D(19,18,21,24)  =   -165.300966     0.000000     0.000075  -165.300891
	  130 D(20,18,21,22)  =     73.666638     0.000000     0.000128    73.666766
	  131 D(20,18,21,23)  =   -171.063566     0.000000     0.000182  -171.063385
	  132 D(20,18,21,24)  =    -48.616638     0.000000     0.000077   -48.616561
	  133 D(22,21,24,25)  =     95.726319     0.000000     0.000089    95.726409
	  134 D(22,21,24,26)  =   -148.033123     0.000000     0.000102  -148.033022
	  135 D(23,21,24,25)  =    -19.988201     0.000000     0.000044   -19.988158
	  136 D(23,21,24,26)  =     96.252356     0.000000     0.000056    96.252412
	  137 R(5,18)         =      3.410061    -0.000001    -0.000002     3.410059
	 ---------------------------------------------------------------------------

  ==> Convergence Check <==

  Measures of convergence in internal coordinates in au.
  Criteria marked as inactive (o), active & met (*), and active & unmet ( ).
  ---------------------------------------------------------------------------------------------
   Step     Total Energy     Delta E     MAX Force     RMS Force      MAX Disp      RMS Disp   
  ---------------------------------------------------------------------------------------------
    Convergence Criteria             o    2.00e-06 *    1.00e-06 *    6.00e-06 *    4.00e-06 *
  ---------------------------------------------------------------------------------------------
     42    -314.97998671    3.01e-09 o    1.86e-06 *    3.84e-07 *    5.06e-06 *    1.77e-06 *  ~
  ---------------------------------------------------------------------------------------------


  **** Optimization is complete! (in 42 steps) ****

  ==> Optimization Summary <==

  Measures of convergence in internal coordinates in au.
  --------------------------------------------------------------------------------------------------------------- ~
   Step         Total Energy             Delta E       MAX Force       RMS Force        MAX Disp        RMS Disp  ~
  --------------------------------------------------------------------------------------------------------------- ~
      1    -314.979986715739   -314.979986715739      0.00000148      0.00000035      0.00011549      0.00004260  ~
      2    -314.979986713461      0.000000002278      0.00000183      0.00000039      0.00010668      0.00003291  ~
      3    -314.979986713553     -0.000000000092      0.00000249      0.00000044      0.00060144      0.00022677  ~
      4    -314.979986692734      0.000000020819      0.00002316      0.00000631      0.00062591      0.00023725  ~
      5    -314.979986712198     -0.000000019463      0.00000162      0.00000035      0.00030215      0.00009007  ~
      6    -314.979986710961      0.000000001237      0.00000849      0.00000195      0.00030873      0.00008936  ~
      7    -314.979986713411     -0.000000002450      0.00000099      0.00000020      0.00002400      0.00000658  ~
      8    -314.979986709390      0.000000004021      0.00000163      0.00000032      0.00028976      0.00010245  ~
      9    -314.979986708762      0.000000000628      0.00001805      0.00000382      0.00028447      0.00010171  ~
     10    -314.979986710997     -0.000000002235      0.00000152      0.00000036      0.00010140      0.00003897  ~
     11    -314.979986712735     -0.000000001738      0.00000366      0.00000081      0.00008365      0.00003653  ~
     12    -314.979986714007     -0.000000001272      0.00000315      0.00000081      0.00004181      0.00001601  ~
     13    -314.979986711375      0.000000002632      0.00000174      0.00000035      0.00001579      0.00000599  ~
     14    -314.979986715469     -0.000000004094      0.00000114      0.00000017      0.00001531      0.00000657  ~
     15    -314.979986714164      0.000000001305      0.00000103      0.00000013      0.00001990      0.00000687  ~
     16    -314.979986715724     -0.000000001560      0.00000119      0.00000028      0.00001219      0.00000377  ~
     17    -314.979986710439      0.000000005284      0.00000115      0.00000028      0.00004475      0.00001384  ~
     18    -314.979986713307     -0.000000002868      0.00000318      0.00000062      0.00004559      0.00001414  ~
     19    -314.979986712330      0.000000000977      0.00000171      0.00000033      0.00001215      0.00000258  ~
     20    -314.979986714679     -0.000000002350      0.00000245      0.00000039      0.00001583      0.00000561  ~
     21    -314.979986710015      0.000000004664      0.00000263      0.00000057      0.00003518      0.00001445  ~
     22    -314.979986712143     -0.000000002128      0.00000404      0.00000094      0.00004377      0.00002097  ~
     23    -314.979986714734     -0.000000002591      0.00000159      0.00000032      0.00001785      0.00000659  ~
     24    -314.979986713268      0.000000001465      0.00000255      0.00000049      0.00001088      0.00000339  ~
     25    -314.979986713575     -0.000000000307      0.00000151      0.00000035      0.00001966      0.00000653  ~
     26    -314.979986713674     -0.000000000099      0.00000351      0.00000074      0.00192025      0.00061909  ~
     27    -314.979986399643      0.000000314031      0.00013086      0.00002442      0.00192699      0.00062163  ~
     28    -314.979986709200     -0.000000309557      0.00000271      0.00000061      0.00001555      0.00000488  ~
     29    -314.979986715282     -0.000000006082      0.00000354      0.00000081      0.00002475      0.00000842  ~
     30    -314.979986712442      0.000000002840      0.00000474      0.00000076      0.00005072      0.00001725  ~
     31    -314.979986712992     -0.000000000550      0.00000138      0.00000035      0.00002124      0.00000758  ~
     32    -314.979986713370     -0.000000000378      0.00000162      0.00000030      0.00001798      0.00000571  ~
     33    -314.979986711764      0.000000001606      0.00000176      0.00000045      0.00002269      0.00000796  ~
     34    -314.979986712419     -0.000000000655      0.00000177      0.00000031      0.00001799      0.00000653  ~
     35    -314.979986712832     -0.000000000412      0.00000166      0.00000039      0.00001372      0.00000509  ~
     36    -314.979986713330     -0.000000000498      0.00000232      0.00000048      0.00000883      0.00000303  ~
     37    -314.979986712340      0.000000000990      0.00000176      0.00000043      0.00001597      0.00000545  ~
     38    -314.979986713589     -0.000000001250      0.00000199      0.00000037      0.00001860      0.00000664  ~
     39    -314.979986708913      0.000000004677      0.00000131      0.00000030      0.00001205      0.00000461  ~
     40    -314.979986710574     -0.000000001662      0.00000159      0.00000034      0.00000610      0.00000223  ~
     41    -314.979986715726     -0.000000005152      0.00000237      0.00000047      0.00000532      0.00000186  ~
     42    -314.979986712717      0.000000003009      0.00000186      0.00000038      0.00000506      0.00000177  ~
  --------------------------------------------------------------------------------------------------------------- ~

	Writing optimization data to binary file.
	Final energy is   -314.9799867127174
	Final (previous) structure:
	Cartesian Geometry (in Angstrom)
	    C     2.7579162170   1.3377050118   0.1748752397
	    H     2.5033132971   1.3738584191   1.2356082782
	    H     2.0079883822   1.9122033810  -0.3675284679
	    H     3.7157615529   1.8407564555   0.0440166122
	    C    -2.2688984549   1.5688165289   0.1364026600
	    H    -3.0951218236   2.2796363074   0.1486877985
	    H    -1.9257542458   1.4806715893  -0.8942634256
	    H    -1.4535931911   1.9919695288   0.7258211613
	    C     2.8223056402  -0.1066646102  -0.3111976138
	    H     3.6481365988  -0.6153019326   0.1911035955
	    H     3.0507576962  -0.1257791364  -1.3804796621
	    C    -2.7020282302   0.2190232462   0.6977865230
	    H    -3.1254686672   0.3642218880   1.6944567792
	    H    -3.5044923868  -0.1892924535   0.0770521446
	    C     1.5320921818  -0.8841925259  -0.0595206985
	    H     1.2981570938  -0.8441382150   1.0087650317
	    H     1.6900633866  -1.9391672152  -0.3019485697
	    C     0.3443626985  -0.3764992128  -0.8711332448
	    H     0.5896812459  -0.4647491942  -1.9339530718
	    H     0.1850379290   0.6844839190  -0.6735330753
	    C    -0.9431593987  -1.1489681538  -0.5752416784
	    H    -1.6784381806  -0.9587874214  -1.3628514093
	    H    -0.7158336541  -2.2172161628  -0.6244467147
	    C    -1.5766562393  -0.8117223805   0.7834191199
	    H    -1.9784288552  -1.7189664302   1.2392503364
	    H    -0.8061530855  -0.4432455571   1.4672660564
	Saving final (previous) structure.
			--------------------------
			 OPTKING Finished Execution 
			--------------------------

    Final optimized geometry and variables:
    Molecular point group: c1
    Full point group: C1

    Geometry (in Angstrom), charge = 0, multiplicity = 1:

    C            2.757916216968     1.337705011752     0.174875239725
    H            2.503313297133     1.373858419059     1.235608278187
    H            2.007988382235     1.912203381017    -0.367528467901
    H            3.715761552882     1.840756455468     0.044016612238
    C           -2.268898454866     1.568816528921     0.136402660021
    H           -3.095121823593     2.279636307358     0.148687798527
    H           -1.925754245787     1.480671589272    -0.894263425578
    H           -1.453593191121     1.991969528850     0.725821161349
    C            2.822305640226    -0.106664610202    -0.311197613804
    H            3.648136598824    -0.615301932635     0.191103595496
    H            3.050757696192    -0.125779136391    -1.380479662128
    C           -2.702028230248     0.219023246211     0.697786522975
    H           -3.125468667154     0.364221887957     1.694456779213
    H           -3.504492386798    -0.189292453516     0.077052144568
    C            1.532092181819    -0.884192525942    -0.059520698543
    H            1.298157093761    -0.844138214996     1.008765031653
    H            1.690063386575    -1.939167215192    -0.301948569718
    C            0.344362698509    -0.376499212757    -0.871133244756
    H            0.589681245864    -0.464749194215    -1.933953071820
    H            0.185037928979     0.684483918984    -0.673533075307
    C           -0.943159398733    -1.148968153826    -0.575241678411
    H           -1.678438180566    -0.958787421402    -1.362851409349
    H           -0.715833654149    -2.217216162775    -0.624446714718
    C           -1.576656239340    -0.811722380521     0.783419119880
    H           -1.978428855234    -1.718966430224     1.239250336363
    H           -0.806153085499    -0.443245557123     1.467266056392

	Cleaning optimization helper files.

*** Psi4 exiting successfully. Buy a developer a beer!
