    -----------------------------------------------------------------------
          Psi4: An Open-Source Ab Initio Electronic Structure Package
                              Psi4 1.0.0 Driver

                          Git: Rev {master} 6a9a71b dirty

    J. M. Turney, A. C. Simmonett, R. M. Parrish, E. G. Hohenstein,
    F. A. Evangelista, J. T. Fermann, B. J. Mintz, L. A. Burns, J. J. Wilke,
    M. L. Abrams, N. J. Russ, M. L. Leininger, C. L. Janssen, E. T. Seidl,
    W. D. Allen, H. F. Schaefer, R. A. King, E. F. Valeev, C. D. Sherrill,
    and T. D. Crawford, WIREs Comput. Mol. Sci. 2, 556-565 (2012)
    (doi: 10.1002/wcms.93)

                         Additional Contributions by
    A. E. DePrince, U. Bozkaya, A. Yu. Sokolov, D. G. A. Smith, R. Di Remigio,
    R. M. Richard, J. F. Gonthier, H. R. McAlexander, M. Saitow, and
    B. P. Pritchard
    -----------------------------------------------------------------------


    Psi4 started on: Tue Sep 20 22:40:02 2016

    Process ID:   9720
    PSI4DATADIR: /usr/local/hpc5/psi4conda/share/psi4
    Memory level set to 256.000 MB

  ==> Input File <==

--------------------------------------------------------------------------
memory 60 Gb

molecule molecule_17_psi {
0 1
C            3.377034853767     1.062290419717    -0.488550334857
H            2.550866744771     1.725357437069    -0.742246447736
H            3.631052995049     0.488411083122    -1.381459084142
H            4.234608498455     1.685626555537    -0.236509048814
C           -3.853768948098     0.941754348884    -0.026427857874
H           -4.557399346365     0.122704217092    -0.180307688233
H           -3.774699584577     1.491406210680    -0.965299861499
H           -4.277578129306     1.613142204191     0.719961650067
C            3.014997005766     0.130692888440     0.663255196013
H            2.726582434997     0.721991201575     1.536754121919
H            3.899337692713    -0.440522248823     0.954314023072
C           -2.491357099200     0.410522618048     0.402528385622
H           -1.816169194181     1.248988558234     0.583696734891
H           -2.584734564053    -0.125524742070     1.351539633366
C            1.886069265809    -0.839104532606     0.322476491399
H            1.739256805005    -1.528509836584     1.159002340505
H            2.182746841421    -1.451422636810    -0.535446479256
C            0.557585847339    -0.157042105225     0.014535273577
H            0.653945567979     0.468654080236    -0.877360962621
H            0.304755090665     0.512178277865     0.841804864180
C           -0.568242393191    -1.161038682639    -0.209534258116
H           -0.249961308904    -1.878287992937    -0.971760800460
H           -0.725744263319    -1.735539142805     0.709084462310
C           -1.887759152270    -0.525139753865    -0.638980098427
H           -1.736010652696     0.027393107399    -1.572153089070
H           -2.612348243810    -1.314039249781    -0.861586043151
}

set globals {
  reference rhf
  g_convergence gau_verytight
  basis aug-cc-pvtz
  freeze_core true
  scf_type df
  mp_type df
}
optimize('mp2')
--------------------------------------------------------------------------
/usr/local/hpc5/psi4conda/lib/python2.7/site-packages/v2rdm_casscf/v2rdm_casscf.so loaded.

  Memory set to  60.000 GiB by Python script.
gradient() will perform analytic gradient computation.

*** tstart() called on wr34
*** at Tue Sep 20 22:40:03 2016


         ---------------------------------------------------------
                                   SCF
            by Justin Turney, Rob Parrish, and Andy Simmonett
                              RHF Reference
                       12 Threads,  60000 MiB Core
         ---------------------------------------------------------

  ==> Geometry <==

    Molecular point group: c1
    Full point group: C1

    Geometry (in Angstrom), charge = 0, multiplicity = 1:

       Center              X                  Y                   Z               Mass       
    ------------   -----------------  -----------------  -----------------  -----------------
           C          3.377034853767     1.062290419717    -0.488550334857    12.000000000000
           H          2.550866744771     1.725357437069    -0.742246447736     1.007825032070
           H          3.631052995049     0.488411083122    -1.381459084142     1.007825032070
           H          4.234608498455     1.685626555537    -0.236509048814     1.007825032070
           C         -3.853768948098     0.941754348884    -0.026427857874    12.000000000000
           H         -4.557399346365     0.122704217092    -0.180307688233     1.007825032070
           H         -3.774699584577     1.491406210680    -0.965299861499     1.007825032070
           H         -4.277578129306     1.613142204191     0.719961650067     1.007825032070
           C          3.014997005766     0.130692888440     0.663255196013    12.000000000000
           H          2.726582434997     0.721991201575     1.536754121919     1.007825032070
           H          3.899337692713    -0.440522248823     0.954314023072     1.007825032070
           C         -2.491357099200     0.410522618048     0.402528385622    12.000000000000
           H         -1.816169194181     1.248988558234     0.583696734891     1.007825032070
           H         -2.584734564053    -0.125524742070     1.351539633366     1.007825032070
           C          1.886069265809    -0.839104532606     0.322476491399    12.000000000000
           H          1.739256805005    -1.528509836584     1.159002340505     1.007825032070
           H          2.182746841421    -1.451422636810    -0.535446479256     1.007825032070
           C          0.557585847339    -0.157042105225     0.014535273577    12.000000000000
           H          0.653945567979     0.468654080236    -0.877360962621     1.007825032070
           H          0.304755090665     0.512178277865     0.841804864180     1.007825032070
           C         -0.568242393191    -1.161038682639    -0.209534258116    12.000000000000
           H         -0.249961308904    -1.878287992937    -0.971760800460     1.007825032070
           H         -0.725744263319    -1.735539142805     0.709084462310     1.007825032070
           C         -1.887759152270    -0.525139753865    -0.638980098427    12.000000000000
           H         -1.736010652696     0.027393107399    -1.572153089070     1.007825032070
           H         -2.612348243810    -1.314039249781    -0.861586043151     1.007825032070

  Running in c1 symmetry.

  Rotational constants: A =      0.14699  B =      0.02191  C =      0.02064 [cm^-1]
  Rotational constants: A =   4406.51490  B =    656.87670  C =    618.70423 [MHz]
  Nuclear repulsion =  386.857906371060949

  Charge       = 0
  Multiplicity = 1
  Electrons    = 66
  Nalpha       = 33
  Nbeta        = 33

  ==> Algorithm <==

  SCF Algorithm Type is DF.
  DIIS enabled.
  MOM disabled.
  Fractional occupation disabled.
  Guess Type is SAD.
  Energy threshold   = 1.00e-10
  Density threshold  = 1.00e-10
  Integral threshold = 0.00e+00

  ==> Primary Basis <==

  Basis Set: AUG-CC-PVTZ
    Number of shells: 274
    Number of basis function: 782
    Number of Cartesian functions: 890
    Spherical Harmonics?: true
    Max angular momentum: 3

  ==> Pre-Iterations <==

   -------------------------------------------------------
    Irrep   Nso     Nmo     Nalpha   Nbeta   Ndocc  Nsocc
   -------------------------------------------------------
     A        782     782       0       0       0       0
   -------------------------------------------------------
    Total     782     782      33      33      33       0
   -------------------------------------------------------

  ==> Integral Setup <==

  ==> DFJK: Density-Fitted J/K Matrices <==

    J tasked:                  Yes
    K tasked:                  Yes
    wK tasked:                  No
    OpenMP threads:             12
    Integrals threads:          12
    Memory (MB):             42915
    Algorithm:                Core
    Integral Cache:           NONE
    Schwarz Cutoff:          1E-12
    Fitting Condition:       1E-12

   => Auxiliary Basis Set <=

  Basis Set: 
    Number of shells: 492
    Number of basis function: 1660
    Number of Cartesian functions: 2038
    Spherical Harmonics?: true
    Max angular momentum: 4

  Minimum eigenvalue in the overlap matrix is 2.4417374913E-06.
  Using Symmetric Orthogonalization.
  SCF Guess: Superposition of Atomic Densities via on-the-fly atomic UHF.

  ==> Iterations <==

                           Total Energy        Delta E     RMS |[F,P]|

   @DF-RHF iter   0:  -316.72915282356519   -3.16729e+02   6.90020e-03 
   @DF-RHF iter   1:  -313.26062494574387    3.46853e+00   7.96494e-04 
   @DF-RHF iter   2:  -313.50194679495291   -2.41322e-01   3.13905e-04 DIIS
   @DF-RHF iter   3:  -313.53792648711658   -3.59797e-02   1.05633e-04 DIIS
   @DF-RHF iter   4:  -313.54381795364088   -5.89147e-03   1.75808e-05 DIIS
   @DF-RHF iter   5:  -313.54400579699939   -1.87843e-04   5.34950e-06 DIIS
   @DF-RHF iter   6:  -313.54402067024307   -1.48732e-05   1.33259e-06 DIIS
   @DF-RHF iter   7:  -313.54402185485617   -1.18461e-06   2.61561e-07 DIIS
   @DF-RHF iter   8:  -313.54402190251005   -4.76539e-08   7.78221e-08 DIIS
   @DF-RHF iter   9:  -313.54402190580629   -3.29624e-09   2.08058e-08 DIIS
   @DF-RHF iter  10:  -313.54402190607755   -2.71257e-10   5.04244e-09 DIIS
   @DF-RHF iter  11:  -313.54402190609585   -1.83036e-11   1.19119e-09 DIIS
   @DF-RHF iter  12:  -313.54402190609721   -1.36424e-12   3.41696e-10 DIIS
   @DF-RHF iter  13:  -313.54402190609744   -2.27374e-13   1.05761e-10 DIIS
   @DF-RHF iter  14:  -313.54402190609790   -4.54747e-13   2.84092e-11 DIIS

  ==> Post-Iterations <==

    Orbital Energies (a.u.)
    -----------------------

    Doubly Occupied:                                                      

       1A    -11.212762     2A    -11.211925     3A    -11.210582  
       4A    -11.210258     5A    -11.209976     6A    -11.208823  
       7A    -11.206930     8A    -11.206583     9A     -1.093851  
      10A     -1.061550    11A     -1.009611    12A     -0.947431  
      13A     -0.881115    14A     -0.829808    15A     -0.781974  
      16A     -0.766632    17A     -0.645260    18A     -0.626525  
      19A     -0.609100    20A     -0.597394    21A     -0.580819  
      22A     -0.559154    23A     -0.545584    24A     -0.529833  
      25A     -0.510529    26A     -0.500786    27A     -0.485453  
      28A     -0.479155    29A     -0.464552    30A     -0.459769  
      31A     -0.451130    32A     -0.441628    33A     -0.432558  

    Virtual:                                                              

      34A      0.030102    35A      0.032020    36A      0.034314  
      37A      0.035523    38A      0.045463    39A      0.046913  
      40A      0.048376    41A      0.054355    42A      0.057177  
      43A      0.064487    44A      0.066787    45A      0.069324  
      46A      0.071901    47A      0.077277    48A      0.089342  
      49A      0.090555    50A      0.097086    51A      0.106246  
      52A      0.113431    53A      0.114624    54A      0.118466  
      55A      0.123449    56A      0.125739    57A      0.126607  
      58A      0.133905    59A      0.136313    60A      0.143309  
      61A      0.146149    62A      0.151673    63A      0.153330  
      64A      0.154919    65A      0.158669    66A      0.163209  
      67A      0.164127    68A      0.166462    69A      0.170930  
      70A      0.171250    71A      0.175895    72A      0.183322  
      73A      0.192119    74A      0.196868    75A      0.200479  
      76A      0.206253    77A      0.217978    78A      0.220692  
      79A      0.231437    80A      0.234210    81A      0.238244  
      82A      0.244973    83A      0.256929    84A      0.260186  
      85A      0.262312    86A      0.274270    87A      0.274939  
      88A      0.280527    89A      0.285356    90A      0.288310  
      91A      0.292663    92A      0.299544    93A      0.307057  
      94A      0.312474    95A      0.315812    96A      0.322000  
      97A      0.325206    98A      0.332685    99A      0.335226  
     100A      0.337284   101A      0.343034   102A      0.345725  
     103A      0.349036   104A      0.351297   105A      0.358487  
     106A      0.359996   107A      0.361072   108A      0.362856  
     109A      0.367353   110A      0.368676   111A      0.374622  
     112A      0.377809   113A      0.380319   114A      0.385083  
     115A      0.387323   116A      0.389913   117A      0.395920  
     118A      0.396924   119A      0.400646   120A      0.404893  
     121A      0.410696   122A      0.412436   123A      0.417963  
     124A      0.423971   125A      0.430355   126A      0.431908  
     127A      0.435865   128A      0.443057   129A      0.444927  
     130A      0.451003   131A      0.456146   132A      0.459702  
     133A      0.461530   134A      0.462772   135A      0.464193  
     136A      0.468964   137A      0.473079   138A      0.476744  
     139A      0.478627   140A      0.484757   141A      0.489369  
     142A      0.493945   143A      0.498622   144A      0.500705  
     145A      0.502099   146A      0.504879   147A      0.509943  
     148A      0.513083   149A      0.516123   150A      0.520245  
     151A      0.523792   152A      0.527341   153A      0.528992  
     154A      0.536321   155A      0.537953   156A      0.541544  
     157A      0.548309   158A      0.552494   159A      0.555503  
     160A      0.557128   161A      0.566798   162A      0.570792  
     163A      0.572196   164A      0.578327   165A      0.584495  
     166A      0.589872   167A      0.591387   168A      0.599591  
     169A      0.603183   170A      0.607987   171A      0.616167  
     172A      0.622805   173A      0.627659   174A      0.629607  
     175A      0.631695   176A      0.640311   177A      0.644165  
     178A      0.652918   179A      0.654415   180A      0.658178  
     181A      0.661735   182A      0.668624   183A      0.672603  
     184A      0.689255   185A      0.690481   186A      0.699137  
     187A      0.705316   188A      0.711902   189A      0.717019  
     190A      0.719989   191A      0.723549   192A      0.727811  
     193A      0.733087   194A      0.741299   195A      0.745229  
     196A      0.749700   197A      0.770969   198A      0.776419  
     199A      0.781190   200A      0.790559   201A      0.794617  
     202A      0.812474   203A      0.819420   204A      0.829983  
     205A      0.834242   206A      0.841926   207A      0.844296  
     208A      0.848981   209A      0.851993   210A      0.854940  
     211A      0.862862   212A      0.868221   213A      0.871108  
     214A      0.881895   215A      0.885198   216A      0.889867  
     217A      0.892162   218A      0.898783   219A      0.899525  
     220A      0.904892   221A      0.909236   222A      0.912913  
     223A      0.915994   224A      0.918738   225A      0.927055  
     226A      0.931575   227A      0.936527   228A      0.946459  
     229A      0.949174   230A      0.951680   231A      0.954096  
     232A      0.957990   233A      0.963750   234A      0.973372  
     235A      0.975699   236A      0.981895   237A      0.985572  
     238A      0.987842   239A      0.996581   240A      1.003277  
     241A      1.005326   242A      1.014186   243A      1.016226  
     244A      1.022440   245A      1.023524   246A      1.030410  
     247A      1.037017   248A      1.041831   249A      1.044266  
     250A      1.049148   251A      1.060319   252A      1.067269  
     253A      1.072103   254A      1.080173   255A      1.086734  
     256A      1.088425   257A      1.091773   258A      1.097282  
     259A      1.100253   260A      1.103850   261A      1.110862  
     262A      1.112634   263A      1.121591   264A      1.125437  
     265A      1.126882   266A      1.136622   267A      1.141392  
     268A      1.143559   269A      1.151543   270A      1.162127  
     271A      1.165206   272A      1.166608   273A      1.178088  
     274A      1.182295   275A      1.185347   276A      1.190907  
     277A      1.196070   278A      1.205742   279A      1.208203  
     280A      1.212541   281A      1.214549   282A      1.222854  
     283A      1.227800   284A      1.229423   285A      1.238981  
     286A      1.243025   287A      1.245453   288A      1.255308  
     289A      1.256652   290A      1.263300   291A      1.271209  
     292A      1.273985   293A      1.286370   294A      1.286583  
     295A      1.292269   296A      1.296846   297A      1.299636  
     298A      1.304375   299A      1.308857   300A      1.312671  
     301A      1.323375   302A      1.334016   303A      1.336662  
     304A      1.348187   305A      1.349376   306A      1.359785  
     307A      1.365120   308A      1.368292   309A      1.376050  
     310A      1.382099   311A      1.384727   312A      1.388058  
     313A      1.404693   314A      1.409099   315A      1.423508  
     316A      1.432016   317A      1.442539   318A      1.454592  
     319A      1.459635   320A      1.469340   321A      1.473270  
     322A      1.480584   323A      1.482970   324A      1.487285  
     325A      1.494921   326A      1.510587   327A      1.514510  
     328A      1.517401   329A      1.526247   330A      1.532901  
     331A      1.542235   332A      1.543823   333A      1.556166  
     334A      1.562441   335A      1.568941   336A      1.577541  
     337A      1.585232   338A      1.596477   339A      1.598147  
     340A      1.610199   341A      1.620457   342A      1.623586  
     343A      1.631823   344A      1.640965   345A      1.652251  
     346A      1.657279   347A      1.664911   348A      1.666735  
     349A      1.671038   350A      1.677061   351A      1.680595  
     352A      1.683593   353A      1.695348   354A      1.699015  
     355A      1.705633   356A      1.711373   357A      1.713686  
     358A      1.715651   359A      1.724890   360A      1.728700  
     361A      1.736540   362A      1.747007   363A      1.753743  
     364A      1.757260   365A      1.763185   366A      1.768289  
     367A      1.774352   368A      1.776651   369A      1.781459  
     370A      1.787258   371A      1.793248   372A      1.802029  
     373A      1.806348   374A      1.809659   375A      1.818057  
     376A      1.818555   377A      1.826487   378A      1.835165  
     379A      1.839177   380A      1.845443   381A      1.849398  
     382A      1.852928   383A      1.862679   384A      1.870176  
     385A      1.879898   386A      1.885818   387A      1.893701  
     388A      1.902790   389A      1.907153   390A      1.918711  
     391A      1.928362   392A      1.934623   393A      1.942454  
     394A      1.944199   395A      1.950440   396A      1.956810  
     397A      1.968193   398A      1.971344   399A      1.977628  
     400A      1.984764   401A      1.990172   402A      1.990776  
     403A      1.999015   404A      2.001476   405A      2.013716  
     406A      2.025204   407A      2.028015   408A      2.034943  
     409A      2.041634   410A      2.048156   411A      2.055316  
     412A      2.062019   413A      2.065560   414A      2.086409  
     415A      2.090840   416A      2.099248   417A      2.102152  
     418A      2.111956   419A      2.117960   420A      2.129495  
     421A      2.132365   422A      2.138243   423A      2.143301  
     424A      2.147406   425A      2.152249   426A      2.164627  
     427A      2.168067   428A      2.174973   429A      2.193869  
     430A      2.200621   431A      2.207324   432A      2.220560  
     433A      2.238101   434A      2.249952   435A      2.257649  
     436A      2.260668   437A      2.273894   438A      2.278557  
     439A      2.286291   440A      2.296623   441A      2.307817  
     442A      2.314802   443A      2.322143   444A      2.328709  
     445A      2.335869   446A      2.339704   447A      2.353634  
     448A      2.366417   449A      2.371887   450A      2.382060  
     451A      2.388525   452A      2.390257   453A      2.400831  
     454A      2.416364   455A      2.427651   456A      2.436749  
     457A      2.445117   458A      2.455702   459A      2.475767  
     460A      2.481564   461A      2.499207   462A      2.506076  
     463A      2.515440   464A      2.535667   465A      2.539934  
     466A      2.554611   467A      2.560264   468A      2.577434  
     469A      2.585642   470A      2.594724   471A      2.605511  
     472A      2.612572   473A      2.638556   474A      2.648257  
     475A      2.673689   476A      2.683438   477A      2.705535  
     478A      2.735211   479A      2.744702   480A      2.751321  
     481A      2.779269   482A      2.805268   483A      2.832497  
     484A      2.857471   485A      2.878049   486A      2.951889  
     487A      2.972504   488A      3.009508   489A      3.038671  
     490A      3.089076   491A      3.147386   492A      3.161520  
     493A      3.281642   494A      3.287071   495A      3.349424  
     496A      3.400740   497A      3.405066   498A      3.431994  
     499A      3.444071   500A      3.465309   501A      3.473036  
     502A      3.480725   503A      3.493696   504A      3.505042  
     505A      3.522037   506A      3.534399   507A      3.548339  
     508A      3.565389   509A      3.570030   510A      3.577606  
     511A      3.589143   512A      3.602468   513A      3.616857  
     514A      3.625792   515A      3.632850   516A      3.645687  
     517A      3.658535   518A      3.664878   519A      3.674513  
     520A      3.686829   521A      3.694152   522A      3.701654  
     523A      3.707944   524A      3.727503   525A      3.736566  
     526A      3.740294   527A      3.751520   528A      3.759506  
     529A      3.768312   530A      3.772883   531A      3.777788  
     532A      3.787261   533A      3.792026   534A      3.798906  
     535A      3.814499   536A      3.825130   537A      3.831677  
     538A      3.835617   539A      3.846982   540A      3.849450  
     541A      3.858351   542A      3.863542   543A      3.881664  
     544A      3.883108   545A      3.888652   546A      3.902096  
     547A      3.920744   548A      3.924928   549A      3.931575  
     550A      3.934889   551A      3.951160   552A      3.954452  
     553A      3.964455   554A      3.968463   555A      3.981451  
     556A      3.983450   557A      3.990387   558A      3.994569  
     559A      4.000568   560A      4.005880   561A      4.011646  
     562A      4.018774   563A      4.021615   564A      4.029545  
     565A      4.033973   566A      4.051346   567A      4.052785  
     568A      4.060514   569A      4.065376   570A      4.074160  
     571A      4.086148   572A      4.092699   573A      4.101488  
     574A      4.105297   575A      4.119150   576A      4.123519  
     577A      4.129171   578A      4.133344   579A      4.142927  
     580A      4.156110   581A      4.160396   582A      4.181713  
     583A      4.194582   584A      4.206544   585A      4.219914  
     586A      4.231656   587A      4.239640   588A      4.251096  
     589A      4.261392   590A      4.266603   591A      4.274550  
     592A      4.282266   593A      4.284122   594A      4.289883  
     595A      4.311949   596A      4.317289   597A      4.327663  
     598A      4.337677   599A      4.346012   600A      4.359747  
     601A      4.375335   602A      4.388029   603A      4.394908  
     604A      4.407634   605A      4.416024   606A      4.426235  
     607A      4.445458   608A      4.454468   609A      4.465970  
     610A      4.483557   611A      4.487655   612A      4.497365  
     613A      4.529504   614A      4.540433   615A      4.541768  
     616A      4.553049   617A      4.582462   618A      4.586174  
     619A      4.604364   620A      4.609557   621A      4.615561  
     622A      4.628353   623A      4.657739   624A      4.665038  
     625A      4.681957   626A      4.686950   627A      4.693970  
     628A      4.719422   629A      4.720944   630A      4.726780  
     631A      4.739788   632A      4.749943   633A      4.763305  
     634A      4.766430   635A      4.783358   636A      4.799472  
     637A      4.809322   638A      4.811418   639A      4.816041  
     640A      4.828043   641A      4.845890   642A      4.849409  
     643A      4.855663   644A      4.867320   645A      4.878829  
     646A      4.887111   647A      4.892654   648A      4.900106  
     649A      4.908736   650A      4.912552   651A      4.926996  
     652A      4.947184   653A      4.954283   654A      4.980604  
     655A      4.999254   656A      5.001945   657A      5.019185  
     658A      5.027683   659A      5.031325   660A      5.042762  
     661A      5.053226   662A      5.063703   663A      5.083796  
     664A      5.087074   665A      5.116419   666A      5.129817  
     667A      5.134613   668A      5.147715   669A      5.160376  
     670A      5.172669   671A      5.189982   672A      5.198902  
     673A      5.205535   674A      5.213616   675A      5.216354  
     676A      5.232342   677A      5.238969   678A      5.254549  
     679A      5.267169   680A      5.291438   681A      5.302712  
     682A      5.317355   683A      5.323207   684A      5.342189  
     685A      5.349840   686A      5.364514   687A      5.368553  
     688A      5.376512   689A      5.382647   690A      5.403086  
     691A      5.405057   692A      5.423927   693A      5.426470  
     694A      5.442453   695A      5.462912   696A      5.469837  
     697A      5.477300   698A      5.485203   699A      5.493206  
     700A      5.497704   701A      5.505616   702A      5.521029  
     703A      5.538147   704A      5.556462   705A      5.573255  
     706A      5.578151   707A      5.592589   708A      5.602472  
     709A      5.607572   710A      5.623554   711A      5.639821  
     712A      5.649158   713A      5.664222   714A      5.669608  
     715A      5.676980   716A      5.692282   717A      5.701694  
     718A      5.713760   719A      5.721899   720A      5.752309  
     721A      5.759300   722A      5.767437   723A      5.778143  
     724A      5.793175   725A      5.797619   726A      5.832868  
     727A      5.848822   728A      5.849890   729A      5.878211  
     730A      5.885059   731A      5.897273   732A      5.926085  
     733A      5.960316   734A      5.979354   735A      5.991346  
     736A      6.011402   737A      6.049368   738A      6.065714  
     739A      6.090627   740A      6.112844   741A      6.116104  
     742A      6.143914   743A      6.161679   744A      6.199248  
     745A      6.207228   746A      6.226536   747A      6.239412  
     748A      6.265849   749A      6.270920   750A      6.281842  
     751A      6.290756   752A      6.304938   753A      6.319647  
     754A      6.336668   755A      6.337817   756A      6.372534  
     757A      6.394243   758A      6.415548   759A      6.555262  
     760A      6.580461   761A      6.624684   762A      6.666904  
     763A      6.699490   764A      6.774150   765A      6.788229  
     766A      6.802188   767A      6.844040   768A      6.874362  
     769A      6.897065   770A      6.910313   771A      6.969918  
     772A      7.009653   773A      7.070366   774A      7.115987  
     775A     17.847865   776A     18.069847   777A     18.179350  
     778A     18.469446   779A     18.532649   780A     18.692111  
     781A     19.074817   782A     19.646636  

    Final Occupation by Irrep:
              A 
    DOCC [    33 ]

  Energy converged.

  @DF-RHF Final Energy:  -313.54402190609790

   => Energetics <=

    Nuclear Repulsion Energy =            386.8579063710609489
    One-Electron Energy =               -1188.8657780457037916
    Two-Electron Energy =                 488.4638497685449465
    DFT Exchange-Correlation Energy =       0.0000000000000000
    Empirical Dispersion Energy =           0.0000000000000000
    PCM Polarization Energy =               0.0000000000000000
    EFP Energy =                            0.0000000000000000
    Total Energy =                       -313.5440219060978961


  Saving occupied orbitals to File 180.

*** tstop() called on wr34 at Tue Sep 20 22:41:27 2016
Module time:
	user time   =     854.43 seconds =      14.24 minutes
	system time =      11.10 seconds =       0.18 minutes
	total time  =         84 seconds =       1.40 minutes
Total time:
	user time   =     854.43 seconds =      14.24 minutes
	system time =      11.10 seconds =       0.18 minutes
	total time  =         84 seconds =       1.40 minutes


Properties will be evaluated at   0.000000,   0.000000,   0.000000 Bohr

Properties computed using the SCF density matrix

  Nuclear Dipole Moment: (a.u.)
     X:    -0.3858      Y:     1.5300      Z:    -0.4387

  Electronic Dipole Moment: (a.u.)
     X:     0.4066      Y:    -1.5434      Z:     0.4686

  Dipole Moment: (a.u.)
     X:     0.0208      Y:    -0.0134      Z:     0.0299     Total:     0.0388

  Dipole Moment: (Debye)
     X:     0.0529      Y:    -0.0341      Z:     0.0760     Total:     0.0987


  //>>>>>>>>>>>>>>>>>>>>>>>>>>>>>>>>>>>//
  //               DFMP2               //
  //<<<<<<<<<<<<<<<<<<<<<<<<<<<<<<<<<<<//


*** tstart() called on wr34
*** at Tue Sep 20 22:41:27 2016


*** tstop() called on wr34 at Tue Sep 20 22:41:28 2016
Module time:
	user time   =       4.90 seconds =       0.08 minutes
	system time =       0.23 seconds =       0.00 minutes
	total time  =          1 seconds =       0.02 minutes
Total time:
	user time   =     860.48 seconds =      14.34 minutes
	system time =      11.38 seconds =       0.19 minutes
	total time  =         85 seconds =       1.42 minutes
	 --------------------------------------------------------
	                          DF-MP2                         
	      2nd-Order Density-Fitted Moller-Plesset Theory     
	              RMP2 Wavefunction,  12 Threads             
	                                                         
	        Rob Parrish, Justin Turney, Andy Simmonett,      
	           Ed Hohenstein, and C. David Sherrill          
	 --------------------------------------------------------

   => Auxiliary Basis Set <=

  Basis Set: 
    Number of shells: 476
    Number of basis function: 1676
    Number of Cartesian functions: 2078
    Spherical Harmonics?: true
    Max angular momentum: 4

	 --------------------------------------------------------
	                 NBF =   782, NAUX =  1676
	 --------------------------------------------------------
	   CLASS    FOCC     OCC    AOCC    AVIR     VIR    FVIR
	   PAIRS       8      33      25     749     749       0
	 --------------------------------------------------------

DGAS Warning! /src/lib/libfock/apps.cc:80 is not currently checking restricted

         ------------------------------------------------------------
                                     CPHF                           
                                  Rob Parrish                       
         ------------------------------------------------------------

  ==> Geometry <==

    Molecular point group: c1
    Full point group: C1

    Geometry (in Angstrom), charge = 0, multiplicity = 1:

       Center              X                  Y                   Z               Mass       
    ------------   -----------------  -----------------  -----------------  -----------------
           C          3.377034853767     1.062290419717    -0.488550334857    12.000000000000
           H          2.550866744771     1.725357437069    -0.742246447736     1.007825032070
           H          3.631052995049     0.488411083122    -1.381459084142     1.007825032070
           H          4.234608498455     1.685626555537    -0.236509048814     1.007825032070
           C         -3.853768948098     0.941754348884    -0.026427857874    12.000000000000
           H         -4.557399346365     0.122704217092    -0.180307688233     1.007825032070
           H         -3.774699584577     1.491406210680    -0.965299861499     1.007825032070
           H         -4.277578129306     1.613142204191     0.719961650067     1.007825032070
           C          3.014997005766     0.130692888440     0.663255196013    12.000000000000
           H          2.726582434997     0.721991201575     1.536754121919     1.007825032070
           H          3.899337692713    -0.440522248823     0.954314023072     1.007825032070
           C         -2.491357099200     0.410522618048     0.402528385622    12.000000000000
           H         -1.816169194181     1.248988558234     0.583696734891     1.007825032070
           H         -2.584734564053    -0.125524742070     1.351539633366     1.007825032070
           C          1.886069265809    -0.839104532606     0.322476491399    12.000000000000
           H          1.739256805005    -1.528509836584     1.159002340505     1.007825032070
           H          2.182746841421    -1.451422636810    -0.535446479256     1.007825032070
           C          0.557585847339    -0.157042105225     0.014535273577    12.000000000000
           H          0.653945567979     0.468654080236    -0.877360962621     1.007825032070
           H          0.304755090665     0.512178277865     0.841804864180     1.007825032070
           C         -0.568242393191    -1.161038682639    -0.209534258116    12.000000000000
           H         -0.249961308904    -1.878287992937    -0.971760800460     1.007825032070
           H         -0.725744263319    -1.735539142805     0.709084462310     1.007825032070
           C         -1.887759152270    -0.525139753865    -0.638980098427    12.000000000000
           H         -1.736010652696     0.027393107399    -1.572153089070     1.007825032070
           H         -2.612348243810    -1.314039249781    -0.861586043151     1.007825032070

  Nuclear repulsion =  386.857906371060949
  Reference energy  = -313.544021906097896

  ==> Basis Set <==

  Basis Set: AUG-CC-PVTZ
    Number of shells: 274
    Number of basis function: 782
    Number of Cartesian functions: 890
    Spherical Harmonics?: true
    Max angular momentum: 3

  ==> CGRSolver (by Rob Parrish) <==

   Number of roots    =         1
   Preconditioning    =    JACOBI
   Convergence cutoff =     1E-06
   Maximum iterations =       100

  ==> CPHFRHamiltonian (by Rob Parrish) <== 

  ==> DFJK: Density-Fitted J/K Matrices <==

    J tasked:                  Yes
    K tasked:                  Yes
    wK tasked:                  No
    OpenMP threads:             12
    Integrals threads:          12
    Memory (MB):             42915
    Algorithm:                Core
    Integral Cache:           NONE
    Schwarz Cutoff:          1E-12
    Fitting Condition:       1E-12

   => Auxiliary Basis Set <=

  Basis Set: 
    Number of shells: 492
    Number of basis function: 1660
    Number of Cartesian functions: 2038
    Spherical Harmonics?: true
    Max angular momentum: 4

  ==> CPHF Iterations <==

  => Iterations <=

             Iter  Converged  Remaining    Residual
  CGR           1          0          1   8.938E-02
  CGR           2          0          1   1.260E-02
  CGR           3          0          1   3.320E-03
  CGR           4          0          1   8.059E-04
  CGR           5          0          1   1.643E-04
  CGR           6          0          1   3.858E-05
  CGR           7          0          1   1.061E-05
  CGR           8          0          1   2.662E-06
  CGR           9          1          0   6.910E-07

    CGRSolver converged.

  ==> DFCorrGrad: Density-Fitted Correlated Gradients <==

    OpenMP threads:             12
    Integrals threads:          12
    Memory (MB):             42915
    Schwarz Cutoff:          0E+00
    Fitting Condition:       1E-12

   => Auxiliary Basis Set <=

  Basis Set: 
    Number of shells: 492
    Number of basis function: 1660
    Number of Cartesian functions: 2038
    Spherical Harmonics?: true
    Max angular momentum: 4

	-----------------------------------------------------------
	 ==================> DF-MP2 Energies <==================== 
	-----------------------------------------------------------
	 Reference Energy          =    -313.5440219060978961 [Eh]
	 Singles Energy            =      -0.0000000000000000 [Eh]
	 Same-Spin Energy          =      -0.3154967294225434 [Eh]
	 Opposite-Spin Energy      =      -1.1242509425295846 [Eh]
	 Correlation Energy        =      -1.4397476719521280 [Eh]
	 Total Energy              =    -314.9837695780500439 [Eh]
	-----------------------------------------------------------
	 ================> DF-SCS-MP2 Energies <================== 
	-----------------------------------------------------------
	 SCS Same-Spin Scale       =       0.3333333333333333 [-]
	 SCS Opposite-Spin Scale   =       1.2000000000000000 [-]
	 SCS Same-Spin Energy      =      -0.1051655764741811 [Eh]
	 SCS Opposite-Spin Energy  =      -1.3491011310355014 [Eh]
	 SCS Correlation Energy    =      -1.4542667075096827 [Eh]
	 SCS Total Energy          =    -314.9982886136075990 [Eh]
	-----------------------------------------------------------


  -Total Gradient:
     Atom            X                  Y                   Z
    ------   -----------------  -----------------  -----------------
       1       -0.000000497412    -0.000000092106    -0.000000068835
       2       -0.000000631822     0.000000056054    -0.000000248282
       3        0.000000031002    -0.000000010828     0.000000212858
       4        0.000000007562     0.000000141941     0.000000112380
       5       -0.000000120522    -0.000000147355     0.000000022308
       6       -0.000000047349     0.000000015479    -0.000000016169
       7        0.000000110294    -0.000000029254     0.000000063667
       8       -0.000000018537    -0.000000005371     0.000000051730
       9        0.000000442215    -0.000000760792    -0.000000602360
      10       -0.000000236620    -0.000000187567    -0.000000090679
      11        0.000000096578    -0.000000211337     0.000000040821
      12       -0.000000221850     0.000000173443     0.000000006661
      13       -0.000000435224    -0.000000128254    -0.000000217422
      14       -0.000000066031    -0.000000010564     0.000000119475
      15        0.000000258302     0.000000157666     0.000000684240
      16       -0.000000070862     0.000000047410     0.000000082788
      17        0.000000197975     0.000000157301     0.000000187229
      18        0.000000137688     0.000000771268     0.000000215807
      19        0.000000250979     0.000000397966    -0.000000237799
      20        0.000000337365    -0.000000742174    -0.000000232929
      21       -0.000000027018    -0.000000727118     0.000000487685
      22       -0.000000077024     0.000000322573     0.000000335131
      23        0.000000299302     0.000000167512    -0.000000146753
      24        0.000000294860     0.000000375628    -0.000000864878
      25       -0.000000134034     0.000000006368     0.000000003052
      26        0.000000120180     0.000000262111     0.000000100272


			-----------------------------------------
			 OPTKING 2.0: for geometry optimizations 
			  - R.A. King,  Bethel University        
			-----------------------------------------

	Internal coordinates to be generated automatically.
	Detected frag 1 with atoms:  1 2 3 4 5 6 7 8 9 10 11 12 13 14 15 16 17 18 19 20
	 21 22 23 24 25 26
	---Fragment 1 Bond Connectivity---
	 1 : 2 3 4 9
	 2 : 1
	 3 : 1
	 4 : 1
	 5 : 6 7 8 12
	 6 : 5
	 7 : 5
	 8 : 5
	 9 : 1 10 11 15
	 10 : 9
	 11 : 9
	 12 : 5 13 14 24
	 13 : 12
	 14 : 12
	 15 : 9 16 17 18
	 16 : 15
	 17 : 15
	 18 : 15 19 20 21
	 19 : 18
	 20 : 18
	 21 : 18 22 23 24
	 22 : 21
	 23 : 21
	 24 : 12 21 25 26
	 25 : 24
	 26 : 24

	---Fragment 1 Geometry and Gradient---
	 C           6.3816710148        2.0074379669       -0.9232263350
	 H           4.8204395491        3.2604530374       -1.4026425093
	 H           6.8616957346        0.9229631874       -2.6105793328
	 H           8.0022503421        3.1853725523       -0.4469373302
	 C          -7.2825678913        1.7796578038       -0.0499414137
	 H          -8.6122366428        0.2318773657       -0.3407321504
	 H          -7.1331484488        2.8183492911       -1.8241523743
	 H          -8.0834511764        3.0483969793        1.3605303448
	 C           5.6975186324        0.2469737667        1.2533706767
	 H           5.1524940809        1.3643656413        2.9040444240
	 H           7.3686803389       -0.8324664057        1.8033921484
	 C          -4.7079826167        0.7757753195        0.7606684095
	 H          -3.4320623880        2.3602463182        1.1030269736
	 H          -4.8844404523       -0.2372073854        2.5540397648
	 C           3.5641543800       -1.5856777635        0.6093922530
	 H           3.2867190362       -2.8884649826        2.1901970109
	 H           4.1247937477       -2.7427912866       -1.0118472046
	 C           1.0536845470       -0.2967665702        0.0274676863
	 H           1.2357780293        0.8856278627       -1.6579719390
	 H           0.5759036590        0.9678766764        1.5907806506
	 C          -1.0738225002       -2.1940451399       -0.3959623633
	 H          -0.4723584176       -3.5494499053       -1.8363617795
	 H          -1.3714579002       -3.2796936728        1.3399754389
	 C          -3.5673478026       -0.9923703163       -1.2074973904
	 H          -3.2805846974        0.0517654709       -2.9709387773
	 H          -4.9366227445       -2.4831743099       -1.6281616615
	            -0.0000004974       -0.0000000921       -0.0000000688
	            -0.0000006318        0.0000000561       -0.0000002483
	             0.0000000310       -0.0000000108        0.0000002129
	             0.0000000076        0.0000001419        0.0000001124
	            -0.0000001205       -0.0000001474        0.0000000223
	            -0.0000000473        0.0000000155       -0.0000000162
	             0.0000001103       -0.0000000293        0.0000000637
	            -0.0000000185       -0.0000000054        0.0000000517
	             0.0000004422       -0.0000007608       -0.0000006024
	            -0.0000002366       -0.0000001876       -0.0000000907
	             0.0000000966       -0.0000002113        0.0000000408
	            -0.0000002219        0.0000001734        0.0000000067
	            -0.0000004352       -0.0000001283       -0.0000002174
	            -0.0000000660       -0.0000000106        0.0000001195
	             0.0000002583        0.0000001577        0.0000006842
	            -0.0000000709        0.0000000474        0.0000000828
	             0.0000001980        0.0000001573        0.0000001872
	             0.0000001377        0.0000007713        0.0000002158
	             0.0000002510        0.0000003980       -0.0000002378
	             0.0000003374       -0.0000007422       -0.0000002329
	            -0.0000000270       -0.0000007271        0.0000004877
	            -0.0000000770        0.0000003226        0.0000003351
	             0.0000002993        0.0000001675       -0.0000001468
	             0.0000002949        0.0000003756       -0.0000008649
	            -0.0000001340        0.0000000064        0.0000000031
	             0.0000001202        0.0000002621        0.0000001003

	Previous optimization step data not found.  Starting new optimization.

	---Fragment 1 Intrafragment Coordinates---
	 - Coordinate -           - BOHR/RAD -       - ANG/DEG -
	 R(1,2)           =         2.058478	       1.089299
	 R(1,3)           =         2.062443	       1.091398
	 R(1,4)           =         2.059286	       1.089727
	 R(1,9)           =         2.881818	       1.524992
	 R(5,6)           =         2.061117	       1.090696
	 R(5,7)           =         2.061318	       1.090802
	 R(5,8)           =         2.059258	       1.089712
	 R(5,12)          =         2.879819	       1.523935
	 R(9,10)          =         2.066480	       1.093534
	 R(9,11)          =         2.064097	       1.092273
	 R(9,15)          =         2.885232	       1.526799
	 R(12,13)         =         2.062942	       1.091662
	 R(12,14)         =         2.067233	       1.093933
	 R(12,24)         =         2.881157	       1.524642
	 R(15,16)         =         2.067164	       1.093896
	 R(15,17)         =         2.069214	       1.094981
	 R(15,18)         =         2.881386	       1.524764
	 R(18,19)         =         2.066863	       1.093737
	 R(18,20)         =         2.066772	       1.093688
	 R(18,21)         =         2.881882	       1.525026
	 R(21,22)         =         2.067276	       1.093956
	 R(21,23)         =         2.068985	       1.094860
	 R(21,24)         =         2.884490	       1.526406
	 R(24,25)         =         2.069342	       1.095049
	 R(24,26)         =         2.067455	       1.094050
	 B(1,9,10)        =         1.913044	     109.609349
	 B(1,9,11)        =         1.905534	     109.179065
	 B(1,9,15)        =         1.976847	     113.265005
	 B(2,1,3)         =         1.881841	     107.821569
	 B(2,1,4)         =         1.878154	     107.610297
	 B(2,1,9)         =         1.947333	     111.573939
	 B(3,1,4)         =         1.882665	     107.868778
	 B(3,1,9)         =         1.930463	     110.607397
	 B(4,1,9)         =         1.940750	     111.196785
	 B(5,12,13)       =         1.909127	     109.384928
	 B(5,12,14)       =         1.916325	     109.797345
	 B(5,12,24)       =         1.955818	     112.060102
	 B(6,5,7)         =         1.879399	     107.681608
	 B(6,5,8)         =         1.884309	     107.962950
	 B(6,5,12)        =         1.933372	     110.774037
	 B(7,5,8)         =         1.883124	     107.895044
	 B(7,5,12)        =         1.931705	     110.678528
	 B(8,5,12)        =         1.949453	     111.695418
	 B(9,15,16)       =         1.905896	     109.199787
	 B(9,15,17)       =         1.906821	     109.252793
	 B(9,15,18)       =         1.987961	     113.901786
	 B(10,9,11)       =         1.858197	     106.466834
	 B(10,9,15)       =         1.903638	     109.070403
	 B(11,9,15)       =         1.902813	     109.023129
	 B(12,24,21)      =         1.988549	     113.935492
	 B(12,24,25)      =         1.904287	     109.107599
	 B(12,24,26)      =         1.895803	     108.621523
	 B(13,12,14)      =         1.860000	     106.570145
	 B(13,12,24)      =         1.917568	     109.868579
	 B(14,12,24)      =         1.902539	     109.007469
	 B(15,18,19)      =         1.921790	     110.110437
	 B(15,18,20)      =         1.899023	     108.806007
	 B(15,18,21)      =         1.958845	     112.233559
	 B(16,15,17)      =         1.857821	     106.445284
	 B(16,15,18)      =         1.895919	     108.628178
	 B(17,15,18)      =         1.904954	     109.145829
	 B(18,21,22)      =         1.895715	     108.616467
	 B(18,21,23)      =         1.905377	     109.170087
	 B(18,21,24)      =         1.988044	     113.906519
	 B(19,18,20)      =         1.862031	     106.686499
	 B(19,18,21)      =         1.898477	     108.774700
	 B(20,18,21)      =         1.921241	     110.078990
	 B(21,24,25)      =         1.907275	     109.278804
	 B(21,24,26)      =         1.906438	     109.230836
	 B(22,21,23)      =         1.857115	     106.404843
	 B(22,21,24)      =         1.905641	     109.185178
	 B(23,21,24)      =         1.907416	     109.286886
	 B(25,24,26)      =         1.856911	     106.393147
	 D(1,9,15,16)     =         3.057856	     175.202235
	 D(1,9,15,17)     =         1.032396	      59.151956
	 D(1,9,15,18)     =        -1.102646	     -63.176944
	 D(2,1,9,10)      =        -1.009151	     -57.820103
	 D(2,1,9,11)      =        -3.038349	    -174.084575
	 D(2,1,9,15)      =         1.121095	      64.234022
	 D(3,1,9,10)      =        -3.103879	    -177.839154
	 D(3,1,9,11)      =         1.150109	      65.896374
	 D(3,1,9,15)      =        -0.973632	     -55.785028
	 D(4,1,9,10)      =         1.087880	      62.330950
	 D(4,1,9,11)      =        -0.941318	     -53.933522
	 D(4,1,9,15)      =        -3.065059	    -175.614924
	 D(5,12,24,21)    =        -3.069286	    -175.857156
	 D(5,12,24,25)    =         1.077333	      61.726649
	 D(5,12,24,26)    =        -0.940077	     -53.862445
	 D(6,5,12,13)     =        -3.107370	    -178.039159
	 D(6,5,12,14)     =        -1.072071	     -61.425130
	 D(6,5,12,24)     =         1.044839	      59.864877
	 D(7,5,12,13)     =         1.092475	      62.594230
	 D(7,5,12,14)     =         3.127774	     179.208259
	 D(7,5,12,24)     =        -1.038501	     -59.501734
	 D(8,5,12,13)     =        -1.006127	     -57.646828
	 D(8,5,12,14)     =         1.029172	      58.967201
	 D(8,5,12,24)     =        -3.137104	    -179.742792
	 D(9,15,18,19)    =         1.104697	      63.294487
	 D(9,15,18,20)    =        -0.930306	     -53.302623
	 D(9,15,18,21)    =        -3.060900	    -175.376642
	 D(10,9,15,16)    =        -1.089841	     -62.443312
	 D(10,9,15,17)    =        -3.115301	    -178.493590
	 D(10,9,15,18)    =         1.032842	      59.177510
	 D(11,9,15,16)    =         0.932590	      53.433483
	 D(11,9,15,17)    =        -1.092869	     -62.616796
	 D(11,9,15,18)    =         3.055274	     175.054304
	 D(12,24,21,18)   =        -1.103327	     -63.215990
	 D(12,24,21,22)   =         3.057569	     175.185789
	 D(12,24,21,23)   =         1.032765	      59.173073
	 D(13,12,24,21)   =         1.087748	      62.323352
	 D(13,12,24,25)   =        -1.048818	     -60.092844
	 D(13,12,24,26)   =        -3.066228	    -175.681937
	 D(14,12,24,21)   =        -0.944458	     -54.113468
	 D(14,12,24,25)   =        -3.081024	    -176.529664
	 D(14,12,24,26)   =         1.184751	      67.881243
	 D(15,18,21,22)   =        -0.926550	     -53.087400
	 D(15,18,21,23)   =         1.091644	      62.546573
	 D(15,18,21,24)   =        -3.054330	    -175.000223
	 D(16,15,18,19)   =        -3.050286	    -174.768538
	 D(16,15,18,20)   =         1.197895	      68.634352
	 D(16,15,18,21)   =        -0.932698	     -53.439667
	 D(17,15,18,19)   =        -1.031371	     -59.093200
	 D(17,15,18,20)   =        -3.066374	    -175.690311
	 D(17,15,18,21)   =         1.086217	      62.235671
	 D(18,21,24,25)   =         1.031598	      59.106184
	 D(18,21,24,26)   =         3.056524	     175.125918
	 D(19,18,21,22)   =         1.204358	      69.004612
	 D(19,18,21,23)   =        -3.060634	    -175.361415
	 D(19,18,21,24)   =        -0.923422	     -52.908211
	 D(20,18,21,22)   =        -3.044450	    -174.434133
	 D(20,18,21,23)   =        -1.026256	     -58.800161
	 D(20,18,21,24)   =         1.110955	      63.653044
	 D(22,21,24,25)   =        -1.090692	     -62.492038
	 D(22,21,24,26)   =         0.934235	      53.527696
	 D(23,21,24,25)   =        -3.115496	    -178.504754
	 D(23,21,24,26)   =        -1.090569	     -62.485020

	Current energy   :      -314.9837695781

	Generating empirical Hessian (Schlegel '84) for each fragment.
	Taking RFO optimization step.
	Going to follow RFO solution 1.
	Using RFO vector 1.
	Norm of target step-size    0.00062
	Projected energy change by RFO approximation:         0.0000000001

	Back-transformation to cartesian coordinates...
	Successfully converged to displaced geometry.

	--- Internal Coordinate Step in ANG or DEG, aJ/ANG or AJ/DEG ---
	 ---------------------------------------------------------------------------
	   Coordinate                Previous        Force       Change         New 
	   ----------                --------       ------       ------       ------
	    1 R(1,2)          =      1.089299    -0.000005    -0.000001     1.089299
	    2 R(1,3)          =      1.091398     0.000001     0.000000     1.091398
	    3 R(1,4)          =      1.089727    -0.000001    -0.000000     1.089727
	    4 R(1,9)          =      1.524992     0.000002     0.000000     1.524993
	    5 R(5,6)          =      1.090696    -0.000000    -0.000000     1.090696
	    6 R(5,7)          =      1.090802     0.000001     0.000000     1.090802
	    7 R(5,8)          =      1.089712    -0.000000    -0.000000     1.089712
	    8 R(5,12)         =      1.523935     0.000000     0.000000     1.523935
	    9 R(9,10)         =      1.093534     0.000001     0.000000     1.093534
	   10 R(9,11)         =      1.092273    -0.000002    -0.000000     1.092273
	   11 R(9,15)         =      1.526799     0.000012     0.000003     1.526802
	   12 R(12,13)        =      1.091662     0.000003     0.000001     1.091663
	   13 R(12,14)        =      1.093933    -0.000001    -0.000000     1.093932
	   14 R(12,24)        =      1.524642    -0.000003    -0.000001     1.524642
	   15 R(15,16)        =      1.093896    -0.000000    -0.000000     1.093896
	   16 R(15,17)        =      1.094981     0.000001     0.000000     1.094981
	   17 R(15,18)        =      1.524764    -0.000000    -0.000000     1.524764
	   18 R(18,19)        =      1.093737    -0.000004    -0.000001     1.093736
	   19 R(18,20)        =      1.093688     0.000006     0.000001     1.093689
	   20 R(18,21)        =      1.525026    -0.000000    -0.000000     1.525026
	   21 R(21,22)        =      1.093956     0.000004     0.000001     1.093956
	   22 R(21,23)        =      1.094860     0.000002     0.000000     1.094860
	   23 R(21,24)        =      1.526406    -0.000007    -0.000002     1.526405
	   24 R(24,25)        =      1.095049     0.000000     0.000000     1.095049
	   25 R(24,26)        =      1.094050     0.000002     0.000000     1.094050
	   26 B(1,9,10)       =    109.609349    -0.000000     0.000161   109.609510
	   27 B(1,9,11)       =    109.179065    -0.000000    -0.000491   109.178574
	   28 B(1,9,15)       =    113.265005     0.000000     0.000482   113.265487
	   29 B(2,1,3)        =    107.821569    -0.000000     0.000041   107.821610
	   30 B(2,1,4)        =    107.610297    -0.000000    -0.000100   107.610197
	   31 B(2,1,9)        =    111.573939     0.000000     0.000073   111.574011
	   32 B(3,1,4)        =    107.868778    -0.000000    -0.000045   107.868734
	   33 B(3,1,9)        =    110.607397     0.000000     0.000083   110.607480
	   34 B(4,1,9)        =    111.196785    -0.000000    -0.000057   111.196728
	   35 B(5,12,13)      =    109.384928     0.000000     0.000064   109.384992
	   36 B(5,12,14)      =    109.797345     0.000000     0.000083   109.797428
	   37 B(5,12,24)      =    112.060102    -0.000000     0.000005   112.060107
	   38 B(6,5,7)        =    107.681608    -0.000000    -0.000023   107.681586
	   39 B(6,5,8)        =    107.962950     0.000000     0.000002   107.962951
	   40 B(6,5,12)       =    110.774037    -0.000000    -0.000047   110.773990
	   41 B(7,5,8)        =    107.895044    -0.000000    -0.000010   107.895034
	   42 B(7,5,12)       =    110.678528     0.000000     0.000065   110.678592
	   43 B(8,5,12)       =    111.695418     0.000000     0.000012   111.695430
	   44 B(9,15,16)      =    109.199787    -0.000000    -0.000405   109.199382
	   45 B(9,15,17)      =    109.252793    -0.000000     0.000310   109.253103
	   46 B(9,15,18)      =    113.901786     0.000000     0.000447   113.902234
	   47 B(10,9,11)      =    106.466834     0.000000    -0.000160   106.466674
	   48 B(10,9,15)      =    109.070403    -0.000000     0.000331   109.070735
	   49 B(11,9,15)      =    109.023129    -0.000000    -0.000366   109.022763
	   50 B(12,24,21)     =    113.935492    -0.000000    -0.000317   113.935174
	   51 B(12,24,25)     =    109.107599     0.000000    -0.000134   109.107464
	   52 B(12,24,26)     =    108.621523     0.000000     0.000356   108.621879
	   53 B(13,12,14)     =    106.570145    -0.000000    -0.000059   106.570087
	   54 B(13,12,24)     =    109.868579    -0.000000    -0.000067   109.868512
	   55 B(14,12,24)     =    109.007469    -0.000000    -0.000029   109.007440
	   56 B(15,18,19)     =    110.110437     0.000000     0.000181   110.110618
	   57 B(15,18,20)     =    108.806007     0.000000     0.000022   108.806030
	   58 B(15,18,21)     =    112.233559     0.000000     0.000046   112.233605
	   59 B(16,15,17)     =    106.445284     0.000000    -0.000127   106.445157
	   60 B(16,15,18)     =    108.628178    -0.000000    -0.000385   108.627792
	   61 B(17,15,18)     =    109.145829    -0.000000     0.000119   109.145947
	   62 B(18,21,22)     =    108.616467     0.000000     0.000322   108.616789
	   63 B(18,21,23)     =    109.170087     0.000000    -0.000058   109.170029
	   64 B(18,21,24)     =    113.906519    -0.000000    -0.000284   113.906235
	   65 B(19,18,20)     =    106.686499    -0.000000    -0.000094   106.686405
	   66 B(19,18,21)     =    108.774700    -0.000000    -0.000014   108.774686
	   67 B(20,18,21)     =    110.078990    -0.000000    -0.000148   110.078842
	   68 B(21,24,25)     =    109.278804     0.000000    -0.000214   109.278590
	   69 B(21,24,26)     =    109.230836     0.000000     0.000261   109.231097
	   70 B(22,21,23)     =    106.404843    -0.000000     0.000055   106.404899
	   71 B(22,21,24)     =    109.185178     0.000000     0.000292   109.185470
	   72 B(23,21,24)     =    109.286886    -0.000000    -0.000301   109.286585
	   73 B(25,24,26)     =    106.393147    -0.000000     0.000078   106.393225
	   74 D(1,9,15,16)    =    175.202235    -0.000000    -0.007360   175.194875
	   75 D(1,9,15,17)    =     59.151956    -0.000000    -0.007154    59.144802
	   76 D(1,9,15,18)    =    -63.176944    -0.000000    -0.007849   -63.184793
	   77 D(2,1,9,10)     =    -57.820103    -0.000000     0.003839   -57.816264
	   78 D(2,1,9,11)     =   -174.084575     0.000000     0.004220  -174.080356
	   79 D(2,1,9,15)     =     64.234022     0.000000     0.004716    64.238739
	   80 D(3,1,9,10)     =   -177.839154    -0.000000     0.003684  -177.835470
	   81 D(3,1,9,11)     =     65.896374     0.000000     0.004064    65.900438
	   82 D(3,1,9,15)     =    -55.785028     0.000000     0.004561   -55.780467
	   83 D(4,1,9,10)     =     62.330950    -0.000000     0.003722    62.334673
	   84 D(4,1,9,11)     =    -53.933522     0.000000     0.004103   -53.929419
	   85 D(4,1,9,15)     =   -175.614924     0.000000     0.004600  -175.610325
	   86 D(5,12,24,21)   =   -175.857156    -0.000000    -0.003295  -175.860451
	   87 D(5,12,24,25)   =     61.726649     0.000000    -0.002698    61.723951
	   88 D(5,12,24,26)   =    -53.862445    -0.000000    -0.002912   -53.865357
	   89 D(6,5,12,13)    =   -178.039159    -0.000000     0.000326  -178.038833
	   90 D(6,5,12,14)    =    -61.425130     0.000000     0.000340   -61.424790
	   91 D(6,5,12,24)    =     59.864877     0.000000     0.000363    59.865240
	   92 D(7,5,12,13)    =     62.594230    -0.000000     0.000343    62.594573
	   93 D(7,5,12,14)    =    179.208259     0.000000     0.000357   179.208616
	   94 D(7,5,12,24)    =    -59.501734     0.000000     0.000380   -59.501354
	   95 D(8,5,12,13)    =    -57.646828    -0.000000     0.000304   -57.646524
	   96 D(8,5,12,14)    =     58.967201     0.000000     0.000318    58.967519
	   97 D(8,5,12,24)    =   -179.742792     0.000000     0.000341  -179.742451
	   98 D(9,15,18,19)   =     63.294487     0.000000     0.005420    63.299907
	   99 D(9,15,18,20)   =    -53.302623     0.000000     0.005419   -53.297205
	  100 D(9,15,18,21)   =   -175.376642     0.000000     0.005561  -175.371081
	  101 D(10,9,15,16)   =    -62.443312     0.000000    -0.006583   -62.449894
	  102 D(10,9,15,17)   =   -178.493590     0.000000    -0.006377  -178.499967
	  103 D(10,9,15,18)   =     59.177510    -0.000000    -0.007072    59.170437
	  104 D(11,9,15,16)   =     53.433483    -0.000000    -0.006793    53.426690
	  105 D(11,9,15,17)   =    -62.616796     0.000000    -0.006587   -62.623383
	  106 D(11,9,15,18)   =    175.054304    -0.000000    -0.007282   175.047022
	  107 D(12,24,21,18)  =    -63.215990     0.000000     0.004660   -63.211330
	  108 D(12,24,21,22)  =    175.185789     0.000000     0.004224   175.190013
	  109 D(12,24,21,23)  =     59.173073     0.000000     0.004162    59.177235
	  110 D(13,12,24,21)  =     62.323352    -0.000000    -0.003332    62.320019
	  111 D(13,12,24,25)  =    -60.092844     0.000000    -0.002735   -60.095579
	  112 D(13,12,24,26)  =   -175.681937    -0.000000    -0.002949  -175.684887
	  113 D(14,12,24,21)  =    -54.113468    -0.000000    -0.003207   -54.116675
	  114 D(14,12,24,25)  =   -176.529664     0.000000    -0.002610  -176.532274
	  115 D(14,12,24,26)  =     67.881243    -0.000000    -0.002824    67.878419
	  116 D(15,18,21,22)  =    -53.087400    -0.000000    -0.004574   -53.091974
	  117 D(15,18,21,23)  =     62.546573     0.000000    -0.004363    62.542210
	  118 D(15,18,21,24)  =   -175.000223    -0.000000    -0.004994  -175.005216
	  119 D(16,15,18,19)  =   -174.768538     0.000000     0.004919  -174.763619
	  120 D(16,15,18,20)  =     68.634352     0.000000     0.004917    68.639269
	  121 D(16,15,18,21)  =    -53.439667     0.000000     0.005059   -53.434608
	  122 D(17,15,18,19)  =    -59.093200    -0.000000     0.004621   -59.088580
	  123 D(17,15,18,20)  =   -175.690311    -0.000000     0.004619  -175.685691
	  124 D(17,15,18,21)  =     62.235671    -0.000000     0.004761    62.240432
	  125 D(18,21,24,25)  =     59.106184     0.000000     0.004106    59.110289
	  126 D(18,21,24,26)  =    175.125918     0.000000     0.004225   175.130143
	  127 D(19,18,21,22)  =     69.004612     0.000000    -0.004324    69.000288
	  128 D(19,18,21,23)  =   -175.361415     0.000000    -0.004114  -175.365529
	  129 D(19,18,21,24)  =    -52.908211    -0.000000    -0.004744   -52.912955
	  130 D(20,18,21,22)  =   -174.434133    -0.000000    -0.004529  -174.438663
	  131 D(20,18,21,23)  =    -58.800161     0.000000    -0.004319   -58.804480
	  132 D(20,18,21,24)  =     63.653044    -0.000000    -0.004949    63.648094
	  133 D(22,21,24,25)  =    -62.492038    -0.000000     0.003669   -62.488368
	  134 D(22,21,24,26)  =     53.527696     0.000000     0.003789    53.531485
	  135 D(23,21,24,25)  =   -178.504754    -0.000000     0.003608  -178.501145
	  136 D(23,21,24,26)  =    -62.485020    -0.000000     0.003728   -62.481292
	 ---------------------------------------------------------------------------

  ==> Convergence Check <==

  Measures of convergence in internal coordinates in au.
  Criteria marked as inactive (o), active & met (*), and active & unmet ( ).
  --------------------------------------------------------------------------------------------- ~
   Step     Total Energy     Delta E     MAX Force     RMS Force      MAX Disp      RMS Disp    ~
  --------------------------------------------------------------------------------------------- ~
    Convergence Criteria             o    2.00e-06 *    1.00e-06 *    6.00e-06 *    4.00e-06 *  ~
  --------------------------------------------------------------------------------------------- ~
      1    -314.98376958   -3.15e+02 o    1.61e-06 *    3.71e-07 *    1.37e-04      5.28e-05    ~
  ---------------------------------------------------------------------------------------------

	Writing optimization data to binary file.
	Structure for next step:
	Cartesian Geometry (in Angstrom)
	    C     3.3771288063   1.0622895547  -0.4885046407
	    H     2.5510280199   1.7253993539  -0.7423044332
	    H     3.6311996383   0.4883636772  -1.3813687578
	    H     4.2347159757   1.6855818076  -0.2364015523
	    C    -3.8537369683   0.9417747108  -0.0263612826
	    H    -4.5574058551   0.1227461293  -0.1801796522
	    H    -3.7746962062   1.4913948809  -0.9652543629
	    H    -4.2774824787   1.6132012160   0.7200295014
	    C     3.0149219756   0.1307555201   0.6632995509
	    H     2.7263944275   0.7220998181   1.5367302663
	    H     3.8992223469  -0.4404458721   0.9545066541
	    C    -2.4913232617   0.4105041236   0.4025411209
	    H    -1.8160945100   1.2489497061   0.5836551044
	    H    -2.5846718388  -0.1255160793   1.3515703423
	    C     1.8860424744  -0.8390668064   0.3224204572
	    H     1.7392076482  -1.5285017027   1.1589179066
	    H     2.1827859956  -1.4513519032  -0.5355036149
	    C     0.5575481870  -0.1570462008   0.0144337908
	    H     0.6539016354   0.4686134374  -0.8774879232
	    H     0.3046928777   0.5122058515   0.8416717006
	    C    -0.5682575409  -1.1610755573  -0.2096016689
	    H    -0.2499908356  -1.8783081711  -0.9718509699
	    H    -0.7257044260  -1.7355901028   0.7090181270
	    C    -1.8878107159  -0.5252057896  -0.6389733332
	    H    -1.7361337232   0.0272879158  -1.5721811756
	    H    -2.6124148844  -1.3141172335  -0.8614900323
			--------------------------
			 OPTKING Finished Execution 
			--------------------------

    Structure for next step:
    Molecular point group: c1
    Full point group: C1

    Geometry (in Angstrom), charge = 0, multiplicity = 1:

    C            3.377133277048     1.062290098430    -0.488499940813
    H            2.551032490604     1.725399897569    -0.742299733342
    H            3.631204109064     0.488364220945    -1.381364057946
    H            4.234720446418     1.685582351270    -0.236396852431
    C           -3.853732497542     0.941775254485    -0.026356582692
    H           -4.557401384407     0.122746672987    -0.180174952338
    H           -3.774691735493     1.491395424554    -0.965249663013
    H           -4.277478007926     1.613201759699     0.720034201258
    C            3.014926446376     0.130756063759     0.663304250811
    H            2.726398898203     0.722100361839     1.536734966198
    H            3.899226817650    -0.440445328430     0.954511354037
    C           -2.491318790935     0.410504667343     0.402545820775
    H           -1.816090039296     1.248950249839     0.583659804277
    H           -2.584667368108    -0.125515535607     1.351575042223
    C            1.886046945170    -0.839066262739     0.322425157110
    H            1.739212118917    -1.528501159046     1.158922606512
    H            2.182790466357    -1.451351359488    -0.535498914996
    C            0.557552657694    -0.157045657096     0.014438490696
    H            0.653906106163     0.468613981078    -0.877483223331
    H            0.304697348481     0.512206395186     0.841676400468
    C           -0.568253070158    -1.161075013576    -0.209596968973
    H           -0.249986364833    -1.878307627432    -0.971846270016
    H           -0.725699955267    -1.735589559132     0.709022826892
    C           -1.887806245190    -0.525205245944    -0.638968633311
    H           -1.736129252505     0.027288459500    -1.572176475753
    H           -2.612410413632    -1.314116689803    -0.861485332438

gradient() will perform analytic gradient computation.

*** tstart() called on wr34
*** at Tue Sep 20 22:47:25 2016


         ---------------------------------------------------------
                                   SCF
            by Justin Turney, Rob Parrish, and Andy Simmonett
                              RHF Reference
                       12 Threads,  60000 MiB Core
         ---------------------------------------------------------

  ==> Geometry <==

    Molecular point group: c1
    Full point group: C1

    Geometry (in Angstrom), charge = 0, multiplicity = 1:

       Center              X                  Y                   Z               Mass       
    ------------   -----------------  -----------------  -----------------  -----------------
           C          3.377133277048     1.062290098430    -0.488499940813    12.000000000000
           H          2.551032490604     1.725399897569    -0.742299733342     1.007825032070
           H          3.631204109064     0.488364220945    -1.381364057946     1.007825032070
           H          4.234720446418     1.685582351270    -0.236396852431     1.007825032070
           C         -3.853732497542     0.941775254485    -0.026356582692    12.000000000000
           H         -4.557401384407     0.122746672987    -0.180174952338     1.007825032070
           H         -3.774691735493     1.491395424554    -0.965249663013     1.007825032070
           H         -4.277478007926     1.613201759699     0.720034201258     1.007825032070
           C          3.014926446376     0.130756063759     0.663304250811    12.000000000000
           H          2.726398898203     0.722100361839     1.536734966198     1.007825032070
           H          3.899226817650    -0.440445328430     0.954511354037     1.007825032070
           C         -2.491318790935     0.410504667343     0.402545820775    12.000000000000
           H         -1.816090039296     1.248950249839     0.583659804277     1.007825032070
           H         -2.584667368108    -0.125515535607     1.351575042223     1.007825032070
           C          1.886046945170    -0.839066262739     0.322425157110    12.000000000000
           H          1.739212118917    -1.528501159046     1.158922606512     1.007825032070
           H          2.182790466357    -1.451351359488    -0.535498914996     1.007825032070
           C          0.557552657694    -0.157045657096     0.014438490696    12.000000000000
           H          0.653906106163     0.468613981078    -0.877483223331     1.007825032070
           H          0.304697348481     0.512206395186     0.841676400468     1.007825032070
           C         -0.568253070158    -1.161075013576    -0.209596968973    12.000000000000
           H         -0.249986364833    -1.878307627432    -0.971846270016     1.007825032070
           H         -0.725699955267    -1.735589559132     0.709022826892     1.007825032070
           C         -1.887806245190    -0.525205245944    -0.638968633311    12.000000000000
           H         -1.736129252505     0.027288459500    -1.572176475753     1.007825032070
           H         -2.612410413632    -1.314116689803    -0.861485332438     1.007825032070

  Running in c1 symmetry.

  Rotational constants: A =      0.14698  B =      0.02191  C =      0.02064 [cm^-1]
  Rotational constants: A =   4406.42810  B =    656.87847  C =    618.70435 [MHz]
  Nuclear repulsion =  386.857707291057523

  Charge       = 0
  Multiplicity = 1
  Electrons    = 66
  Nalpha       = 33
  Nbeta        = 33

  ==> Algorithm <==

  SCF Algorithm Type is DF.
  DIIS enabled.
  MOM disabled.
  Fractional occupation disabled.
  Guess Type is READ.
  Energy threshold   = 1.00e-10
  Density threshold  = 1.00e-10
  Integral threshold = 0.00e+00

  ==> Primary Basis <==

  Basis Set: AUG-CC-PVTZ
    Number of shells: 274
    Number of basis function: 782
    Number of Cartesian functions: 890
    Spherical Harmonics?: true
    Max angular momentum: 3

  ==> Pre-Iterations <==

   -------------------------------------------------------
    Irrep   Nso     Nmo     Nalpha   Nbeta   Ndocc  Nsocc
   -------------------------------------------------------
     A        782     782       0       0       0       0
   -------------------------------------------------------
    Total     782     782      33      33      33       0
   -------------------------------------------------------

  ==> Integral Setup <==

  ==> DFJK: Density-Fitted J/K Matrices <==

    J tasked:                  Yes
    K tasked:                  Yes
    wK tasked:                  No
    OpenMP threads:             12
    Integrals threads:          12
    Memory (MB):             42915
    Algorithm:                Core
    Integral Cache:           NONE
    Schwarz Cutoff:          1E-12
    Fitting Condition:       1E-12

   => Auxiliary Basis Set <=

  Basis Set: 
    Number of shells: 492
    Number of basis function: 1660
    Number of Cartesian functions: 2038
    Spherical Harmonics?: true
    Max angular momentum: 4

  Minimum eigenvalue in the overlap matrix is 2.4416409558E-06.
  Using Symmetric Orthogonalization.
  SCF Guess: Reading in previously saved MOs, projecting if necessary.

  Using orbitals from previous SCF, no projection.
  Recomputing DOCC and SOCC from number of alpha and beta electrons from previous calculation.
              A 
    DOCC [    33 ]

  ==> Iterations <==

                           Total Energy        Delta E     RMS |[F,P]|

   @DF-RHF iter   0:  -313.54403978190055   -3.13544e+02   3.32827e-07 
   @DF-RHF iter   1:  -313.54402206376403    1.77181e-05   6.47903e-08 
   @DF-RHF iter   2:  -313.54402206628731   -2.52328e-09   2.29489e-08 DIIS
   @DF-RHF iter   3:  -313.54402206663042   -3.43107e-10   8.97926e-09 DIIS
   @DF-RHF iter   4:  -313.54402206667055   -4.01315e-11   1.29587e-09 DIIS
   @DF-RHF iter   5:  -313.54402206667123   -6.82121e-13   3.73129e-10 DIIS
   @DF-RHF iter   6:  -313.54402206667271   -1.47793e-12   8.75908e-11 DIIS

  ==> Post-Iterations <==

    Orbital Energies (a.u.)
    -----------------------

    Doubly Occupied:                                                      

       1A    -11.212762     2A    -11.211925     3A    -11.210582  
       4A    -11.210259     5A    -11.209976     6A    -11.208823  
       7A    -11.206929     8A    -11.206583     9A     -1.093851  
      10A     -1.061550    11A     -1.009611    12A     -0.947432  
      13A     -0.881113    14A     -0.829809    15A     -0.781975  
      16A     -0.766632    17A     -0.645259    18A     -0.626525  
      19A     -0.609099    20A     -0.597395    21A     -0.580818  
      22A     -0.559153    23A     -0.545587    24A     -0.529832  
      25A     -0.510529    26A     -0.500787    27A     -0.485454  
      28A     -0.479154    29A     -0.464553    30A     -0.459769  
      31A     -0.451130    32A     -0.441627    33A     -0.432558  

    Virtual:                                                              

      34A      0.030102    35A      0.032020    36A      0.034314  
      37A      0.035523    38A      0.045463    39A      0.046913  
      40A      0.048376    41A      0.054354    42A      0.057177  
      43A      0.064486    44A      0.066787    45A      0.069323  
      46A      0.071902    47A      0.077277    48A      0.089340  
      49A      0.090554    50A      0.097087    51A      0.106245  
      52A      0.113431    53A      0.114624    54A      0.118467  
      55A      0.123448    56A      0.125740    57A      0.126608  
      58A      0.133903    59A      0.136313    60A      0.143309  
      61A      0.146151    62A      0.151674    63A      0.153330  
      64A      0.154919    65A      0.158669    66A      0.163208  
      67A      0.164125    68A      0.166463    69A      0.170931  
      70A      0.171250    71A      0.175895    72A      0.183323  
      73A      0.192118    74A      0.196868    75A      0.200479  
      76A      0.206250    77A      0.217979    78A      0.220689  
      79A      0.231435    80A      0.234210    81A      0.238248  
      82A      0.244974    83A      0.256934    84A      0.260184  
      85A      0.262312    86A      0.274270    87A      0.274939  
      88A      0.280529    89A      0.285353    90A      0.288310  
      91A      0.292660    92A      0.299545    93A      0.307056  
      94A      0.312473    95A      0.315813    96A      0.322000  
      97A      0.325208    98A      0.332686    99A      0.335225  
     100A      0.337282   101A      0.343036   102A      0.345726  
     103A      0.349035   104A      0.351299   105A      0.358490  
     106A      0.359997   107A      0.361074   108A      0.362857  
     109A      0.367350   110A      0.368675   111A      0.374620  
     112A      0.377807   113A      0.380317   114A      0.385081  
     115A      0.387325   116A      0.389911   117A      0.395921  
     118A      0.396924   119A      0.400645   120A      0.404893  
     121A      0.410699   122A      0.412435   123A      0.417964  
     124A      0.423971   125A      0.430355   126A      0.431907  
     127A      0.435867   128A      0.443062   129A      0.444927  
     130A      0.451003   131A      0.456145   132A      0.459703  
     133A      0.461528   134A      0.462770   135A      0.464186  
     136A      0.468963   137A      0.473081   138A      0.476744  
     139A      0.478626   140A      0.484755   141A      0.489373  
     142A      0.493946   143A      0.498623   144A      0.500702  
     145A      0.502095   146A      0.504881   147A      0.509944  
     148A      0.513081   149A      0.516125   150A      0.520245  
     151A      0.523796   152A      0.527337   153A      0.528991  
     154A      0.536321   155A      0.537949   156A      0.541549  
     157A      0.548306   158A      0.552494   159A      0.555505  
     160A      0.557130   161A      0.566796   162A      0.570789  
     163A      0.572196   164A      0.578323   165A      0.584492  
     166A      0.589874   167A      0.591383   168A      0.599590  
     169A      0.603180   170A      0.607992   171A      0.616169  
     172A      0.622800   173A      0.627658   174A      0.629608  
     175A      0.631697   176A      0.640308   177A      0.644168  
     178A      0.652919   179A      0.654411   180A      0.658177  
     181A      0.661732   182A      0.668628   183A      0.672603  
     184A      0.689254   185A      0.690480   186A      0.699144  
     187A      0.705316   188A      0.711899   189A      0.717012  
     190A      0.719990   191A      0.723546   192A      0.727812  
     193A      0.733081   194A      0.741317   195A      0.745231  
     196A      0.749704   197A      0.770959   198A      0.776424  
     199A      0.781190   200A      0.790563   201A      0.794614  
     202A      0.812469   203A      0.819421   204A      0.829986  
     205A      0.834244   206A      0.841926   207A      0.844297  
     208A      0.848981   209A      0.851994   210A      0.854940  
     211A      0.862861   212A      0.868221   213A      0.871113  
     214A      0.881897   215A      0.885198   216A      0.889866  
     217A      0.892158   218A      0.898785   219A      0.899524  
     220A      0.904893   221A      0.909239   222A      0.912917  
     223A      0.915989   224A      0.918740   225A      0.927056  
     226A      0.931575   227A      0.936520   228A      0.946459  
     229A      0.949176   230A      0.951682   231A      0.954092  
     232A      0.957987   233A      0.963753   234A      0.973369  
     235A      0.975706   236A      0.981897   237A      0.985568  
     238A      0.987839   239A      0.996580   240A      1.003273  
     241A      1.005323   242A      1.014185   243A      1.016230  
     244A      1.022436   245A      1.023519   246A      1.030404  
     247A      1.037012   248A      1.041836   249A      1.044270  
     250A      1.049143   251A      1.060308   252A      1.067267  
     253A      1.072099   254A      1.080169   255A      1.086731  
     256A      1.088427   257A      1.091773   258A      1.097288  
     259A      1.100252   260A      1.103849   261A      1.110859  
     262A      1.112641   263A      1.121589   264A      1.125434  
     265A      1.126882   266A      1.136622   267A      1.141400  
     268A      1.143557   269A      1.151546   270A      1.162123  
     271A      1.165210   272A      1.166603   273A      1.178087  
     274A      1.182294   275A      1.185349   276A      1.190912  
     277A      1.196070   278A      1.205744   279A      1.208199  
     280A      1.212537   281A      1.214554   282A      1.222849  
     283A      1.227797   284A      1.229419   285A      1.238985  
     286A      1.243019   287A      1.245458   288A      1.255307  
     289A      1.256644   290A      1.263299   291A      1.271202  
     292A      1.273988   293A      1.286371   294A      1.286592  
     295A      1.292258   296A      1.296848   297A      1.299636  
     298A      1.304372   299A      1.308852   300A      1.312680  
[...]
	 Skipping Hessian update for step 12.
	Denominators (dg)(dq) or (dq)(dq) are very small.
	 Skipping Hessian update for step 11.
	Denominators (dg)(dq) or (dq)(dq) are very small.
	 Skipping Hessian update for step 10.
	Denominators (dg)(dq) or (dq)(dq) are very small.
	 Skipping Hessian update for step 9.
	Denominators (dg)(dq) or (dq)(dq) are very small.
	 Skipping Hessian update for step 8.
	Denominators (dg)(dq) or (dq)(dq) are very small.
	 Skipping Hessian update for step 7.
	Denominators (dg)(dq) or (dq)(dq) are very small.
	 Skipping Hessian update for step 6.
	Denominators (dg)(dq) or (dq)(dq) are very small.
	 Skipping Hessian update for step 5.
	Denominators (dg)(dq) or (dq)(dq) are very small.
	 Skipping Hessian update for step 4.
	Denominators (dg)(dq) or (dq)(dq) are very small.
	 Skipping Hessian update for step 3.
	Denominators (dg)(dq) or (dq)(dq) are very small.
	 Skipping Hessian update for step 2.
	Steps to be used in Hessian update: 1
	Taking RFO optimization step.
	Going to follow RFO solution 1.
	Using RFO vector 1.
	Norm of target step-size    0.00003
	Projected energy change by RFO approximation:        -0.0000000000

	Back-transformation to cartesian coordinates...
	Successfully converged to displaced geometry.

	--- Internal Coordinate Step in ANG or DEG, aJ/ANG or AJ/DEG ---
	 ---------------------------------------------------------------------------
	   Coordinate                Previous        Force       Change         New 
	   ----------                --------       ------       ------       ------
	    1 R(1,2)          =      1.089298     0.000001    -0.000000     1.089298
	    2 R(1,3)          =      1.091397     0.000001    -0.000000     1.091397
	    3 R(1,4)          =      1.089726     0.000000    -0.000000     1.089726
	    4 R(1,9)          =      1.524992     0.000000     0.000000     1.524992
	    5 R(5,6)          =      1.090696     0.000004     0.000000     1.090696
	    6 R(5,7)          =      1.090802     0.000004     0.000000     1.090802
	    7 R(5,8)          =      1.089712     0.000003     0.000000     1.089712
	    8 R(5,12)         =      1.523935     0.000001     0.000000     1.523935
	    9 R(9,10)         =      1.093533     0.000001    -0.000000     1.093533
	   10 R(9,11)         =      1.092272    -0.000000    -0.000000     1.092272
	   11 R(9,15)         =      1.526800     0.000001     0.000000     1.526800
	   12 R(12,13)        =      1.091662     0.000006     0.000000     1.091662
	   13 R(12,14)        =      1.093932     0.000005     0.000000     1.093932
	   14 R(12,24)        =      1.524642     0.000001     0.000000     1.524642
	   15 R(15,16)        =      1.093895     0.000002    -0.000000     1.093895
	   16 R(15,17)        =      1.094979     0.000002    -0.000000     1.094979
	   17 R(15,18)        =      1.524764    -0.000001    -0.000000     1.524763
	   18 R(18,19)        =      1.093735     0.000003     0.000000     1.093735
	   19 R(18,20)        =      1.093687     0.000005     0.000000     1.093687
	   20 R(18,21)        =      1.525026     0.000000    -0.000000     1.525026
	   21 R(21,22)        =      1.093955     0.000005     0.000000     1.093955
	   22 R(21,23)        =      1.094859     0.000005     0.000000     1.094859
	   23 R(21,24)        =      1.526405    -0.000001    -0.000000     1.526405
	   24 R(24,25)        =      1.095048     0.000006     0.000000     1.095048
	   25 R(24,26)        =      1.094050     0.000005     0.000000     1.094050
	   26 B(1,9,10)       =    109.609406     0.000000     0.000003   109.609409
	   27 B(1,9,11)       =    109.178903    -0.000000     0.000010   109.178914
	   28 B(1,9,15)       =    113.265172    -0.000000    -0.000032   113.265140
	   29 B(2,1,3)        =    107.821596    -0.000000     0.000001   107.821597
	   30 B(2,1,4)        =    107.610264    -0.000000    -0.000003   107.610262
	   31 B(2,1,9)        =    111.573931    -0.000000    -0.000020   111.573912
	   32 B(3,1,4)        =    107.868763    -0.000000     0.000001   107.868764
	   33 B(3,1,9)        =    110.607383     0.000000     0.000001   110.607383
	   34 B(4,1,9)        =    111.196827     0.000000     0.000020   111.196847
	   35 B(5,12,13)      =    109.384960     0.000000     0.000020   109.384980
	   36 B(5,12,14)      =    109.797412    -0.000000    -0.000017   109.797395
	   37 B(5,12,24)      =    112.060143    -0.000000    -0.000010   112.060133
	   38 B(6,5,7)        =    107.681602    -0.000000    -0.000009   107.681592
	   39 B(6,5,8)        =    107.962953    -0.000000    -0.000003   107.962950
	   40 B(6,5,12)       =    110.774011     0.000000    -0.000000   110.774010
	   41 B(7,5,8)        =    107.895039    -0.000000    -0.000001   107.895038
	   42 B(7,5,12)       =    110.678551     0.000000     0.000017   110.678568
	   43 B(8,5,12)       =    111.695430    -0.000000    -0.000004   111.695426
	   44 B(9,15,16)      =    109.199586     0.000000     0.000002   109.199588
	   45 B(9,15,17)      =    109.253010    -0.000000    -0.000022   109.252989
	   46 B(9,15,18)      =    113.902066    -0.000000    -0.000026   113.902039
	   47 B(10,9,11)      =    106.466771    -0.000000     0.000006   106.466777
	   48 B(10,9,15)      =    109.070508     0.000000    -0.000008   109.070500
	   49 B(11,9,15)      =    109.023010     0.000000     0.000024   109.023034
	   50 B(12,24,21)     =    113.935307     0.000000     0.000043   113.935350
	   51 B(12,24,25)     =    109.107536    -0.000000     0.000008   109.107544
	   52 B(12,24,26)     =    108.621699    -0.000000    -0.000018   108.621681
	   53 B(13,12,14)     =    106.570128    -0.000000    -0.000032   106.570096
	   54 B(13,12,24)     =    109.868506     0.000000     0.000022   109.868528
	   55 B(14,12,24)     =    109.007415     0.000000     0.000016   109.007432
	   56 B(15,18,19)     =    110.110566    -0.000000    -0.000021   110.110545
	   57 B(15,18,20)     =    108.805964     0.000000     0.000025   108.805989
	   58 B(15,18,21)     =    112.233363    -0.000000    -0.000046   112.233317
	   59 B(16,15,17)     =    106.445254    -0.000000     0.000004   106.445258
	   60 B(16,15,18)     =    108.627925     0.000000     0.000012   108.627937
	   61 B(17,15,18)     =    109.145793     0.000000     0.000032   109.145825
	   62 B(18,21,22)     =    108.616604     0.000000    -0.000007   108.616597
	   63 B(18,21,23)     =    109.169962     0.000000    -0.000025   109.169937
	   64 B(18,21,24)     =    113.906442     0.000000     0.000042   113.906484
	   65 B(19,18,20)     =    106.686599    -0.000000    -0.000001   106.686599
	   66 B(19,18,21)     =    108.774767     0.000000    -0.000002   108.774766
	   67 B(20,18,21)     =    110.078949     0.000000     0.000047   110.078995
	   68 B(21,24,25)     =    109.278714    -0.000000    -0.000001   109.278713
	   69 B(21,24,26)     =    109.230959    -0.000000    -0.000021   109.230938
	   70 B(22,21,23)     =    106.404857    -0.000000    -0.000008   106.404849
	   71 B(22,21,24)     =    109.185347    -0.000000    -0.000008   109.185339
	   72 B(23,21,24)     =    109.286775    -0.000000     0.000003   109.286778
	   73 B(25,24,26)     =    106.393203     0.000000    -0.000015   106.393188
	   74 D(1,9,15,16)    =    175.200446    -0.000000     0.000117   175.200563
	   75 D(1,9,15,17)    =     59.150194     0.000000     0.000123    59.150317
	   76 D(1,9,15,18)    =    -63.179016    -0.000000     0.000116   -63.178900
	   77 D(2,1,9,10)     =    -57.819090     0.000000     0.000214   -57.818876
	   78 D(2,1,9,11)     =   -174.083427     0.000000     0.000199  -174.083228
	   79 D(2,1,9,15)     =     64.235327     0.000000     0.000183    64.235510
	   80 D(3,1,9,10)     =   -177.838160     0.000000     0.000225  -177.837934
	   81 D(3,1,9,11)     =     65.897504     0.000000     0.000210    65.897714
	   82 D(3,1,9,15)     =    -55.783742     0.000000     0.000194   -55.783548
	   83 D(4,1,9,10)     =     62.331946    -0.000000     0.000211    62.332157
	   84 D(4,1,9,11)     =    -53.932391     0.000000     0.000196   -53.932195
	   85 D(4,1,9,15)     =   -175.613637     0.000000     0.000180  -175.613457
	   86 D(5,12,24,21)   =   -175.857270    -0.000000    -0.000256  -175.857526
	   87 D(5,12,24,25)   =     61.726826    -0.000000    -0.000291    61.726535
	   88 D(5,12,24,26)   =    -53.862396    -0.000000    -0.000268   -53.862663
	   89 D(6,5,12,13)    =   -178.038880     0.000000     0.000056  -178.038823
	   90 D(6,5,12,14)    =    -61.424815    -0.000000     0.000019   -61.424796
	   91 D(6,5,12,24)    =     59.865198     0.000000     0.000021    59.865219
	   92 D(7,5,12,13)    =     62.594520     0.000000     0.000057    62.594577
	   93 D(7,5,12,14)    =    179.208584    -0.000000     0.000020   179.208604
	   94 D(7,5,12,24)    =    -59.501402     0.000000     0.000022   -59.501380
	   95 D(8,5,12,13)    =    -57.646555     0.000000     0.000050   -57.646505
	   96 D(8,5,12,14)    =     58.967510    -0.000000     0.000012    58.967522
	   97 D(8,5,12,24)    =   -179.742477     0.000000     0.000015  -179.742462
	   98 D(9,15,18,19)   =     63.297944    -0.000000    -0.000159    63.297785
	   99 D(9,15,18,20)   =    -53.299334     0.000000    -0.000161   -53.299495
	  100 D(9,15,18,21)   =   -175.373141    -0.000000    -0.000207  -175.373348
	  101 D(10,9,15,16)   =    -62.444837    -0.000000     0.000092   -62.444744
	  102 D(10,9,15,17)   =   -178.495088     0.000000     0.000099  -178.494990
	  103 D(10,9,15,18)   =     59.175701    -0.000000     0.000091    59.175793
	  104 D(11,9,15,16)   =     53.431875    -0.000000     0.000108    53.431983
	  105 D(11,9,15,17)   =    -62.618377     0.000000     0.000115   -62.618262
	  106 D(11,9,15,18)   =    175.052413     0.000000     0.000108   175.052520
	  107 D(12,24,21,18)  =    -63.214076    -0.000000     0.000005   -63.214071
	  108 D(12,24,21,22)  =    175.187454    -0.000000    -0.000008   175.187446
	  109 D(12,24,21,23)  =     59.174689     0.000000     0.000004    59.174693
	  110 D(13,12,24,21)  =     62.323220    -0.000000    -0.000290    62.322930
	  111 D(13,12,24,25)  =    -60.092684    -0.000000    -0.000324   -60.093009
	  112 D(13,12,24,26)  =   -175.681906    -0.000000    -0.000301  -175.682207
	  113 D(14,12,24,21)  =    -54.113507    -0.000000    -0.000273   -54.113780
	  114 D(14,12,24,25)  =   -176.529411    -0.000000    -0.000308  -176.529719
	  115 D(14,12,24,26)  =     67.881367    -0.000000    -0.000284    67.881083
	  116 D(15,18,21,22)  =    -53.088117     0.000000     0.000302   -53.087815
	  117 D(15,18,21,23)  =     62.545880     0.000000     0.000275    62.546155
	  118 D(15,18,21,24)  =   -175.001206     0.000000     0.000289  -175.000916
	  119 D(16,15,18,19)  =   -174.765336    -0.000000    -0.000166  -174.765501
	  120 D(16,15,18,20)  =     68.637386    -0.000000    -0.000167    68.637219
	  121 D(16,15,18,21)  =    -53.436421    -0.000000    -0.000214   -53.436634
	  122 D(17,15,18,19)  =    -59.090192     0.000000    -0.000137   -59.090329
	  123 D(17,15,18,20)  =   -175.687470     0.000000    -0.000139  -175.687609
	  124 D(17,15,18,21)  =     62.238723     0.000000    -0.000185    62.238538
	  125 D(18,21,24,25)  =     59.107821     0.000000     0.000044    59.107865
	  126 D(18,21,24,26)  =    175.127640    -0.000000     0.000014   175.127654
	  127 D(19,18,21,22)  =     69.003976    -0.000000     0.000244    69.004220
	  128 D(19,18,21,23)  =   -175.362027    -0.000000     0.000217  -175.361810
	  129 D(19,18,21,24)  =    -52.909113    -0.000000     0.000232   -52.908881
	  130 D(20,18,21,22)  =   -174.434634    -0.000000     0.000268  -174.434365
	  131 D(20,18,21,23)  =    -58.800637    -0.000000     0.000242   -58.800395
	  132 D(20,18,21,24)  =     63.652277    -0.000000     0.000256    63.652533
	  133 D(22,21,24,25)  =    -62.490649     0.000000     0.000031   -62.490618
	  134 D(22,21,24,26)  =     53.529170    -0.000000     0.000001    53.529171
	  135 D(23,21,24,25)  =   -178.503415     0.000000     0.000044  -178.503371
	  136 D(23,21,24,26)  =    -62.483595    -0.000000     0.000013   -62.483582
	 ---------------------------------------------------------------------------

  ==> Convergence Check <==

  Measures of convergence in internal coordinates in au.
  Criteria marked as inactive (o), active & met (*), and active & unmet ( ).
  ---------------------------------------------------------------------------------------------
   Step     Total Energy     Delta E     MAX Force     RMS Force      MAX Disp      RMS Disp   
  ---------------------------------------------------------------------------------------------
    Convergence Criteria             o    2.00e-06 *    1.00e-06 *    6.00e-06 *    4.00e-06 *
  ---------------------------------------------------------------------------------------------
     22    -314.98376958   -5.37e-09 o    7.25e-07 *    1.73e-07 *    5.66e-06 *    2.20e-06 *  ~
  ---------------------------------------------------------------------------------------------


  **** Optimization is complete! (in 22 steps) ****

  ==> Optimization Summary <==

  Measures of convergence in internal coordinates in au.
  --------------------------------------------------------------------------------------------------------------- ~
   Step         Total Energy             Delta E       MAX Force       RMS Force        MAX Disp        RMS Disp  ~
  --------------------------------------------------------------------------------------------------------------- ~
      1    -314.983769578050   -314.983769578050      0.00000161      0.00000037      0.00013700      0.00005282  ~
      2    -314.983769573050      0.000000005000      0.00000245      0.00000062      0.00009604      0.00003493  ~
      3    -314.983769576856     -0.000000003805      0.00000094      0.00000022      0.00003005      0.00001011  ~
      4    -314.983769573587      0.000000003269      0.00000115      0.00000027      0.00003908      0.00001496  ~
      5    -314.983769577105     -0.000000003518      0.00000100      0.00000024      0.00005328      0.00001936  ~
      6    -314.983769573603      0.000000003502      0.00000163      0.00000040      0.00004971      0.00001610  ~
      7    -314.983769574441     -0.000000000839      0.00000119      0.00000031      0.00003133      0.00001110  ~
      8    -314.983769577037     -0.000000002596      0.00000149      0.00000033      0.00004607      0.00001150  ~
      9    -314.983769571367      0.000000005670      0.00000131      0.00000026      0.00002113      0.00000803  ~
     10    -314.983769572759     -0.000000001392      0.00000152      0.00000038      0.00004522      0.00001256  ~
     11    -314.983769575421     -0.000000002663      0.00000096      0.00000028      0.00004096      0.00001327  ~
     12    -314.983769577446     -0.000000002025      0.00000280      0.00000068      0.00068204      0.00021140  ~
     13    -314.983769560797      0.000000016650      0.00001950      0.00000474      0.00069058      0.00021368  ~
     14    -314.983769576994     -0.000000016197      0.00000076      0.00000020      0.00003192      0.00001202  ~
     15    -314.983769572777      0.000000004217      0.00000139      0.00000032      0.00002010      0.00000762  ~
     16    -314.983769572441      0.000000000336      0.00000122      0.00000030      0.00003671      0.00001126  ~
     17    -314.983769573991     -0.000000001550      0.00000131      0.00000031      0.00000780      0.00000320  ~
     18    -314.983769576772     -0.000000002781      0.00000089      0.00000024      0.00005689      0.00001764  ~
     19    -314.983769573125      0.000000003647      0.00000166      0.00000050      0.00005431      0.00001838  ~
     20    -314.983769573367     -0.000000000242      0.00000146      0.00000035      0.00006732      0.00002523  ~
     21    -314.983769570105      0.000000003262      0.00000258      0.00000065      0.00006670      0.00002298  ~
     22    -314.983769575478     -0.000000005372      0.00000072      0.00000017      0.00000566      0.00000220  ~
  --------------------------------------------------------------------------------------------------------------- ~

	Writing optimization data to binary file.
	Final energy is   -314.9837695754779
	Final (previous) structure:
	Cartesian Geometry (in Angstrom)
	    C     3.3770628092   1.0623060324  -0.4885107357
	    H     2.5509141723   1.7253890885  -0.7422233151
	    H     3.6310989140   0.4884340033  -1.3814181603
	    H     4.2346380984   1.6856249430  -0.2364361278
	    C    -3.8537582585   0.9417590826  -0.0264052540
	    H    -4.5573995567   0.1227076116  -0.1802254552
	    H    -3.7747196607   1.4913714063  -0.9653026457
	    H    -4.2775354807   1.6131804934   0.7199716669
	    C     3.0149743981   0.1306997587   0.6632719767
	    H     2.7265256044   0.7219900899   1.5367637729
	    H     3.8993027833  -0.4405169320   0.9543617158
	    C    -2.4913346010   0.4105352521   0.4025232403
	    H    -1.8161352191   1.2490033718   0.5836372834
	    H    -2.5846810042  -0.1254770207   1.3515566226
	    C     1.8860623725  -0.8390981594   0.3224399258
	    H     1.7392398658  -1.5285260529   1.1589439051
	    H     2.1827609511  -1.4513909131  -0.5354922560
	    C     0.5575754321  -0.1570456346   0.0144934778
	    H     0.6539247865   0.4686310310  -0.8774153713
	    H     0.3047485268   0.5121889412   0.8417512324
	    C    -0.5682489162  -1.1610535424  -0.2095442859
	    H    -0.2499771394  -1.8783118317  -0.9717651701
	    H    -0.7257304086  -1.7355403048   0.7090851719
	    C    -1.8877769848  -0.5251683507  -0.6389714447
	    H    -1.7360548403   0.0273309781  -1.5721676102
	    H    -2.6123757589  -1.3140727477  -0.8615267179
	Saving final (previous) structure.
			--------------------------
			 OPTKING Finished Execution 
			--------------------------

    Final optimized geometry and variables:
    Molecular point group: c1
    Full point group: C1

    Geometry (in Angstrom), charge = 0, multiplicity = 1:

    C            3.377062809212     1.062306032446    -0.488510735711
    H            2.550914172275     1.725389088537    -0.742223315145
    H            3.631098913960     0.488434003330    -1.381418160308
    H            4.234638098371     1.685624943029    -0.236436127800
    C           -3.853758258549     0.941759082640    -0.026405254025
    H           -4.557399556748     0.122707611618    -0.180225455196
    H           -3.774719660678     1.491371406321    -0.965302645687
    H           -4.277535480657     1.613180493445     0.719971666932
    C            3.014974398134     0.130699758662     0.663271976738
    H            2.726525604386     0.721990089943     1.536763772919
    H            3.899302783297    -0.440516932005     0.954361715794
    C           -2.491334601026     0.410535252110     0.402523240278
    H           -1.816135219068     1.249003371817     0.583637283449
    H           -2.584681004210    -0.125477020713     1.351556622554
    C            1.886062372532    -0.839098159376     0.322439925838
    H            1.739239865798    -1.528526052864     1.158943905130
    H            2.182760951079    -1.451390913061    -0.535492256050
    C            0.557575432098    -0.157045634554     0.014493477755
    H            0.653924786527     0.468631030962    -0.877415371294
    H            0.304748526828     0.512188941234     0.841751232434
    C           -0.568248916167    -1.161053542379    -0.209544285947
    H           -0.249977139445    -1.878311831707    -0.971765170142
    H           -0.725730408573    -1.735540304792     0.709085171857
    C           -1.887776984780    -0.525168350741    -0.638971444712
    H           -1.736054840274     0.027330978132    -1.572167610213
    H           -2.612375758875    -1.314072747665    -0.861526717877

	Cleaning optimization helper files.

*** Psi4 exiting successfully. Buy a developer a beer!
