    -----------------------------------------------------------------------
          Psi4: An Open-Source Ab Initio Electronic Structure Package
                              Psi4 1.0.0 Driver

                          Git: Rev {master} 6a9a71b dirty

    J. M. Turney, A. C. Simmonett, R. M. Parrish, E. G. Hohenstein,
    F. A. Evangelista, J. T. Fermann, B. J. Mintz, L. A. Burns, J. J. Wilke,
    M. L. Abrams, N. J. Russ, M. L. Leininger, C. L. Janssen, E. T. Seidl,
    W. D. Allen, H. F. Schaefer, R. A. King, E. F. Valeev, C. D. Sherrill,
    and T. D. Crawford, WIREs Comput. Mol. Sci. 2, 556-565 (2012)
    (doi: 10.1002/wcms.93)

                         Additional Contributions by
    A. E. DePrince, U. Bozkaya, A. Yu. Sokolov, D. G. A. Smith, R. Di Remigio,
    R. M. Richard, J. F. Gonthier, H. R. McAlexander, M. Saitow, and
    B. P. Pritchard
    -----------------------------------------------------------------------


    Psi4 started on: Tue Sep 20 23:22:56 2016

    Process ID:  29845
    PSI4DATADIR: /usr/local/hpc5/psi4conda/share/psi4
    Memory level set to 256.000 MB

  ==> Input File <==

--------------------------------------------------------------------------
memory 60 Gb

molecule molecule_58_psi {
0 1
C            2.208962860692    -1.567667954145    -0.598541654431
H            2.252890442055    -1.258287072749    -1.643975394945
H            1.164570422813    -1.754032483686    -0.347983547373
H            2.743597059521    -2.512997348778    -0.505758935720
C           -3.663753288210    -0.570669732780     0.495088728755
H           -3.974301217525    -1.500942360801     0.970103077877
H           -4.208004464385    -0.475185853198    -0.445307965197
H           -3.969758821044     0.253847316580     1.140309309447
C            2.818335770607    -0.505910123518     0.310032204873
H            3.885385524311    -0.415985502575     0.093169152322
H            2.741214392812    -0.835570427498     1.349893906763
C           -2.159294969550    -0.535914696448     0.254434768954
H           -1.637887088374    -0.665257418699     1.204839957576
H           -1.866778487598    -1.378348934521    -0.379153024464
C            2.169458861025     0.872569632057     0.186982684456
H            2.326023870448     1.258538025274    -0.825426089703
H            2.693158895034     1.555271900591     0.859413881890
C            0.667331495667     0.884038729651     0.505678115155
H            0.408963334628     1.798571586039     1.046381497448
H            0.442761469534     0.056040207920     1.183920966321
C           -0.223042124442     0.809371379160    -0.733403780208
H           -0.012850705306     1.685156331016    -1.353960831819
H            0.042721551424    -0.063201311152    -1.335291204848
C           -1.714622561737     0.761607236692    -0.412572815871
H           -1.975469798579     1.606980999094     0.233083928003
H           -2.287117226298     0.890044431097    -1.335920447515
}

set globals {
  reference rhf
  g_convergence gau_verytight
  basis aug-cc-pvtz
  freeze_core true
  scf_type df
  mp_type df
}
optimize('mp2')
--------------------------------------------------------------------------
/usr/local/hpc5/psi4conda/lib/python2.7/site-packages/v2rdm_casscf/v2rdm_casscf.so loaded.

  Memory set to  60.000 GiB by Python script.
gradient() will perform analytic gradient computation.

*** tstart() called on wr25
*** at Tue Sep 20 23:22:57 2016


         ---------------------------------------------------------
                                   SCF
            by Justin Turney, Rob Parrish, and Andy Simmonett
                              RHF Reference
                       12 Threads,  60000 MiB Core
         ---------------------------------------------------------

  ==> Geometry <==

    Molecular point group: c1
    Full point group: C1

    Geometry (in Angstrom), charge = 0, multiplicity = 1:

       Center              X                  Y                   Z               Mass       
    ------------   -----------------  -----------------  -----------------  -----------------
           C          2.208962860692    -1.567667954145    -0.598541654431    12.000000000000
           H          2.252890442055    -1.258287072749    -1.643975394945     1.007825032070
           H          1.164570422813    -1.754032483686    -0.347983547373     1.007825032070
           H          2.743597059521    -2.512997348778    -0.505758935720     1.007825032070
           C         -3.663753288210    -0.570669732780     0.495088728755    12.000000000000
           H         -3.974301217525    -1.500942360801     0.970103077877     1.007825032070
           H         -4.208004464385    -0.475185853198    -0.445307965197     1.007825032070
           H         -3.969758821044     0.253847316580     1.140309309447     1.007825032070
           C          2.818335770607    -0.505910123518     0.310032204873    12.000000000000
           H          3.885385524311    -0.415985502575     0.093169152322     1.007825032070
           H          2.741214392812    -0.835570427498     1.349893906763     1.007825032070
           C         -2.159294969550    -0.535914696448     0.254434768954    12.000000000000
           H         -1.637887088374    -0.665257418699     1.204839957576     1.007825032070
           H         -1.866778487598    -1.378348934521    -0.379153024464     1.007825032070
           C          2.169458861025     0.872569632057     0.186982684456    12.000000000000
           H          2.326023870448     1.258538025274    -0.825426089703     1.007825032070
           H          2.693158895034     1.555271900591     0.859413881890     1.007825032070
           C          0.667331495667     0.884038729651     0.505678115155    12.000000000000
           H          0.408963334628     1.798571586039     1.046381497448     1.007825032070
           H          0.442761469534     0.056040207920     1.183920966321     1.007825032070
           C         -0.223042124442     0.809371379160    -0.733403780208    12.000000000000
           H         -0.012850705306     1.685156331016    -1.353960831819     1.007825032070
           H          0.042721551424    -0.063201311152    -1.335291204848     1.007825032070
           C         -1.714622561737     0.761607236692    -0.412572815871    12.000000000000
           H         -1.975469798579     1.606980999094     0.233083928003     1.007825032070
           H         -2.287117226298     0.890044431097    -1.335920447515     1.007825032070

  Running in c1 symmetry.

  Rotational constants: A =      0.11841  B =      0.02704  C =      0.02450 [cm^-1]
  Rotational constants: A =   3549.85935  B =    810.60113  C =    734.49091 [MHz]
  Nuclear repulsion =  395.585111466296496

  Charge       = 0
  Multiplicity = 1
  Electrons    = 66
  Nalpha       = 33
  Nbeta        = 33

  ==> Algorithm <==

  SCF Algorithm Type is DF.
  DIIS enabled.
  MOM disabled.
  Fractional occupation disabled.
  Guess Type is SAD.
  Energy threshold   = 1.00e-10
  Density threshold  = 1.00e-10
  Integral threshold = 0.00e+00

  ==> Primary Basis <==

  Basis Set: AUG-CC-PVTZ
    Number of shells: 274
    Number of basis function: 782
    Number of Cartesian functions: 890
    Spherical Harmonics?: true
    Max angular momentum: 3

  ==> Pre-Iterations <==

   -------------------------------------------------------
    Irrep   Nso     Nmo     Nalpha   Nbeta   Ndocc  Nsocc
   -------------------------------------------------------
     A        782     782       0       0       0       0
   -------------------------------------------------------
    Total     782     782      33      33      33       0
   -------------------------------------------------------

  ==> Integral Setup <==

  ==> DFJK: Density-Fitted J/K Matrices <==

    J tasked:                  Yes
    K tasked:                  Yes
    wK tasked:                  No
    OpenMP threads:             12
    Integrals threads:          12
    Memory (MB):             42915
    Algorithm:                Core
    Integral Cache:           NONE
    Schwarz Cutoff:          1E-12
    Fitting Condition:       1E-12

   => Auxiliary Basis Set <=

  Basis Set: 
    Number of shells: 492
    Number of basis function: 1660
    Number of Cartesian functions: 2038
    Spherical Harmonics?: true
    Max angular momentum: 4

  Minimum eigenvalue in the overlap matrix is 1.4498422805E-06.
  Using Symmetric Orthogonalization.
  SCF Guess: Superposition of Atomic Densities via on-the-fly atomic UHF.

  ==> Iterations <==

                           Total Energy        Delta E     RMS |[F,P]|

   @DF-RHF iter   0:  -317.15661833882683   -3.17157e+02   7.12000e-03 
   @DF-RHF iter   1:  -313.30588815267816    3.85073e+00   6.80548e-04 
   @DF-RHF iter   2:  -313.51166817549876   -2.05780e-01   2.29747e-04 DIIS
   @DF-RHF iter   3:  -313.53416508903234   -2.24969e-02   9.81752e-05 DIIS
   @DF-RHF iter   4:  -313.53858543332450   -4.42034e-03   1.68346e-05 DIIS
   @DF-RHF iter   5:  -313.53877651035344   -1.91077e-04   3.96594e-06 DIIS
   @DF-RHF iter   6:  -313.53878669827901   -1.01879e-05   1.21910e-06 DIIS
   @DF-RHF iter   7:  -313.53878756587341   -8.67594e-07   2.76529e-07 DIIS
   @DF-RHF iter   8:  -313.53878761581160   -4.99382e-08   7.99581e-08 DIIS
   @DF-RHF iter   9:  -313.53878762000221   -4.19061e-09   2.09833e-08 DIIS
   @DF-RHF iter  10:  -313.53878762033588   -3.33671e-10   6.01700e-09 DIIS
   @DF-RHF iter  11:  -313.53878762035748   -2.16005e-11   1.61677e-09 DIIS
   @DF-RHF iter  12:  -313.53878762035998   -2.50111e-12   3.44127e-10 DIIS
   @DF-RHF iter  13:  -313.53878762035873    1.25056e-12   1.01668e-10 DIIS
   @DF-RHF iter  14:  -313.53878762035930   -5.68434e-13   3.10875e-11 DIIS

  ==> Post-Iterations <==

    Orbital Energies (a.u.)
    -----------------------

    Doubly Occupied:                                                      

       1A    -11.213152     2A    -11.212217     3A    -11.210405  
       4A    -11.210129     5A    -11.209602     6A    -11.208930  
       7A    -11.207032     8A    -11.206867     9A     -1.093332  
      10A     -1.060355    11A     -1.007228    12A     -0.949142  
      13A     -0.883635    14A     -0.828451    15A     -0.781499  
      16A     -0.766929    17A     -0.644328    18A     -0.625342  
      19A     -0.611198    20A     -0.597047    21A     -0.578807  
      22A     -0.557128    23A     -0.548357    24A     -0.526672  
      25A     -0.511916    26A     -0.504278    27A     -0.487724  
      28A     -0.482758    29A     -0.464148    30A     -0.458615  
      31A     -0.444732    32A     -0.439541    33A     -0.432306  

    Virtual:                                                              

      34A      0.029986    35A      0.032697    36A      0.034399  
      37A      0.035310    38A      0.045215    39A      0.047526  
      40A      0.049902    41A      0.053178    42A      0.056435  
      43A      0.065886    44A      0.069711    45A      0.070696  
      46A      0.071466    47A      0.078466    48A      0.088634  
      49A      0.093326    50A      0.098545    51A      0.102055  
      52A      0.114764    53A      0.116165    54A      0.119782  
      55A      0.123799    56A      0.124590    57A      0.127279  
      58A      0.131840    59A      0.135511    60A      0.140541  
      61A      0.146468    62A      0.151454    63A      0.152613  
      64A      0.154917    65A      0.157307    66A      0.161978  
      67A      0.163834    68A      0.166065    69A      0.171786  
      70A      0.172163    71A      0.177465    72A      0.184534  
      73A      0.190127    74A      0.194916    75A      0.196755  
      76A      0.207948    77A      0.216612    78A      0.220770  
      79A      0.230065    80A      0.233450    81A      0.239253  
      82A      0.245174    83A      0.254258    84A      0.258470  
      85A      0.262278    86A      0.269450    87A      0.273685  
      88A      0.277528    89A      0.287675    90A      0.293543  
      91A      0.298985    92A      0.299114    93A      0.310215  
      94A      0.313413    95A      0.317779    96A      0.319753  
      97A      0.324790    98A      0.328155    99A      0.334559  
     100A      0.336166   101A      0.338070   102A      0.345291  
     103A      0.348898   104A      0.351344   105A      0.352881  
     106A      0.358463   107A      0.365801   108A      0.366680  
     109A      0.373647   110A      0.376148   111A      0.377639  
     112A      0.379954   113A      0.385180   114A      0.388625  
     115A      0.394446   116A      0.398404   117A      0.402017  
     118A      0.404299   119A      0.408966   120A      0.411628  
     121A      0.414524   122A      0.415380   123A      0.424034  
     124A      0.426577   125A      0.431548   126A      0.433027  
     127A      0.436655   128A      0.440641   129A      0.443797  
     130A      0.449854   131A      0.454467   132A      0.460391  
     133A      0.463381   134A      0.466526   135A      0.469376  
     136A      0.474634   137A      0.478758   138A      0.480728  
     139A      0.485178   140A      0.487737   141A      0.491548  
     142A      0.493674   143A      0.500529   144A      0.507932  
     145A      0.511680   146A      0.515720   147A      0.516556  
     148A      0.517406   149A      0.524001   150A      0.530376  
     151A      0.534717   152A      0.536558   153A      0.540188  
     154A      0.541183   155A      0.546536   156A      0.553795  
     157A      0.555540   158A      0.557987   159A      0.558920  
     160A      0.564490   161A      0.575539   162A      0.579068  
     163A      0.582735   164A      0.585621   165A      0.590134  
     166A      0.594347   167A      0.597994   168A      0.609820  
     169A      0.615149   170A      0.619876   171A      0.625099  
     172A      0.627949   173A      0.633724   174A      0.637413  
     175A      0.640131   176A      0.647862   177A      0.650534  
     178A      0.654413   179A      0.663350   180A      0.668242  
     181A      0.675479   182A      0.683105   183A      0.685832  
     184A      0.688545   185A      0.695430   186A      0.699589  
     187A      0.707439   188A      0.710390   189A      0.713712  
     190A      0.719944   191A      0.725670   192A      0.735648  
     193A      0.742319   194A      0.744744   195A      0.751631  
     196A      0.758452   197A      0.763688   198A      0.767442  
     199A      0.783300   200A      0.798787   201A      0.800573  
     202A      0.805383   203A      0.818832   204A      0.835265  
     205A      0.836641   206A      0.842755   207A      0.847244  
     208A      0.849912   209A      0.851538   210A      0.856952  
     211A      0.865042   212A      0.866456   213A      0.875064  
     214A      0.879151   215A      0.884096   216A      0.892557  
     217A      0.897321   218A      0.902137   219A      0.907393  
     220A      0.913715   221A      0.917842   222A      0.920696  
     223A      0.925848   224A      0.932480   225A      0.933467  
     226A      0.940130   227A      0.940695   228A      0.948492  
     229A      0.951771   230A      0.960512   231A      0.966166  
     232A      0.970881   233A      0.973625   234A      0.980759  
     235A      0.985672   236A      0.989897   237A      0.993336  
     238A      0.998653   239A      1.005684   240A      1.007449  
     241A      1.012656   242A      1.016876   243A      1.023353  
     244A      1.031208   245A      1.041385   246A      1.043170  
     247A      1.049215   248A      1.054896   249A      1.060342  
     250A      1.067979   251A      1.073986   252A      1.080043  
     253A      1.082586   254A      1.087457   255A      1.090042  
     256A      1.098672   257A      1.104622   258A      1.111530  
     259A      1.113865   260A      1.116265   261A      1.124271  
     262A      1.130433   263A      1.135633   264A      1.137681  
     265A      1.140162   266A      1.147586   267A      1.151668  
     268A      1.152583   269A      1.156785   270A      1.163733  
     271A      1.170626   272A      1.174341   273A      1.177979  
     274A      1.188179   275A      1.196441   276A      1.199686  
     277A      1.204115   278A      1.210330   279A      1.214495  
     280A      1.219198   281A      1.230494   282A      1.239467  
     283A      1.244858   284A      1.246468   285A      1.253550  
     286A      1.254517   287A      1.265940   288A      1.268437  
     289A      1.273934   290A      1.276444   291A      1.277790  
     292A      1.283973   293A      1.289239   294A      1.298163  
     295A      1.303291   296A      1.317398   297A      1.318532  
     298A      1.321051   299A      1.331529   300A      1.333951  
     301A      1.336216   302A      1.343580   303A      1.349211  
     304A      1.359589   305A      1.368742   306A      1.371681  
     307A      1.378781   308A      1.383586   309A      1.392113  
     310A      1.392488   311A      1.402738   312A      1.407045  
     313A      1.413896   314A      1.423950   315A      1.433760  
     316A      1.441555   317A      1.447682   318A      1.454144  
     319A      1.462311   320A      1.472436   321A      1.473981  
     322A      1.493338   323A      1.494249   324A      1.506333  
     325A      1.515705   326A      1.519762   327A      1.522253  
     328A      1.536320   329A      1.547567   330A      1.549033  
     331A      1.558632   332A      1.561786   333A      1.580352  
     334A      1.584650   335A      1.589924   336A      1.592242  
     337A      1.600607   338A      1.609568   339A      1.619087  
     340A      1.621517   341A      1.629641   342A      1.639497  
     343A      1.642940   344A      1.649798   345A      1.662764  
     346A      1.667215   347A      1.669253   348A      1.673190  
     349A      1.679176   350A      1.684880   351A      1.691262  
     352A      1.697505   353A      1.703849   354A      1.714146  
     355A      1.717896   356A      1.721366   357A      1.724925  
     358A      1.732649   359A      1.734547   360A      1.738840  
     361A      1.752137   362A      1.752692   363A      1.756522  
     364A      1.768907   365A      1.774364   366A      1.781620  
     367A      1.782818   368A      1.784732   369A      1.793339  
     370A      1.796250   371A      1.803734   372A      1.806677  
     373A      1.818950   374A      1.822491   375A      1.825378  
     376A      1.830884   377A      1.843725   378A      1.849739  
     379A      1.851088   380A      1.856634   381A      1.867886  
     382A      1.873768   383A      1.875703   384A      1.891368  
     385A      1.894010   386A      1.897119   387A      1.901518  
     388A      1.905070   389A      1.921842   390A      1.930872  
     391A      1.932310   392A      1.939575   393A      1.951130  
     394A      1.957159   395A      1.958578   396A      1.968117  
     397A      1.968317   398A      1.972636   399A      1.983159  
     400A      1.991630   401A      1.999324   402A      2.009988  
     403A      2.020180   404A      2.028292   405A      2.031407  
     406A      2.036951   407A      2.046585   408A      2.050821  
     409A      2.067258   410A      2.069946   411A      2.080652  
     412A      2.082952   413A      2.092706   414A      2.095585  
     415A      2.099285   416A      2.115328   417A      2.120495  
     418A      2.123743   419A      2.131270   420A      2.137821  
     421A      2.150194   422A      2.155500   423A      2.167241  
     424A      2.178929   425A      2.183813   426A      2.193223  
     427A      2.201470   428A      2.210056   429A      2.224077  
     430A      2.237037   431A      2.241735   432A      2.250052  
     433A      2.255735   434A      2.262934   435A      2.265862  
     436A      2.276932   437A      2.289846   438A      2.296538  
     439A      2.303755   440A      2.314971   441A      2.323281  
     442A      2.336106   443A      2.343424   444A      2.348180  
     445A      2.356885   446A      2.360257   447A      2.366750  
     448A      2.379266   449A      2.383320   450A      2.388598  
     451A      2.399099   452A      2.401691   453A      2.421221  
     454A      2.430076   455A      2.446508   456A      2.459893  
     457A      2.473649   458A      2.478316   459A      2.484735  
     460A      2.492452   461A      2.509276   462A      2.519774  
     463A      2.531050   464A      2.534594   465A      2.545924  
     466A      2.550839   467A      2.568739   468A      2.570145  
     469A      2.594930   470A      2.597320   471A      2.608626  
     472A      2.622128   473A      2.647663   474A      2.660318  
     475A      2.687485   476A      2.699331   477A      2.720916  
     478A      2.741869   479A      2.752993   480A      2.766038  
     481A      2.784791   482A      2.804458   483A      2.824192  
     484A      2.834307   485A      2.898443   486A      2.954104  
     487A      3.008142   488A      3.038249   489A      3.077637  
     490A      3.133097   491A      3.189581   492A      3.226384  
     493A      3.290589   494A      3.336254   495A      3.368770  
     496A      3.422917   497A      3.424082   498A      3.462520  
     499A      3.464426   500A      3.480266   501A      3.508057  
     502A      3.511697   503A      3.522150   504A      3.530235  
     505A      3.546855   506A      3.554494   507A      3.560740  
     508A      3.565545   509A      3.573131   510A      3.584773  
     511A      3.600046   512A      3.612755   513A      3.614206  
     514A      3.635748   515A      3.646269   516A      3.658918  
     517A      3.668562   518A      3.679941   519A      3.682122  
     520A      3.690801   521A      3.705989   522A      3.715389  
     523A      3.725445   524A      3.729971   525A      3.747798  
     526A      3.756820   527A      3.761147   528A      3.764790  
     529A      3.769765   530A      3.784634   531A      3.793526  
     532A      3.797145   533A      3.808097   534A      3.811925  
     535A      3.818975   536A      3.827405   537A      3.834886  
     538A      3.838094   539A      3.849445   540A      3.864850  
     541A      3.886476   542A      3.890378   543A      3.901906  
     544A      3.910564   545A      3.912138   546A      3.924604  
     547A      3.931615   548A      3.936356   549A      3.938514  
     550A      3.943704   551A      3.948997   552A      3.958250  
     553A      3.965111   554A      3.966576   555A      3.981444  
     556A      3.985871   557A      3.990209   558A      3.998091  
     559A      4.012288   560A      4.014050   561A      4.020043  
     562A      4.024205   563A      4.043597   564A      4.049227  
     565A      4.054320   566A      4.066792   567A      4.070311  
     568A      4.071673   569A      4.083828   570A      4.092585  
     571A      4.105223   572A      4.109704   573A      4.115869  
     574A      4.120329   575A      4.134963   576A      4.143843  
     577A      4.149717   578A      4.170299   579A      4.172398  
     580A      4.185318   581A      4.199567   582A      4.207645  
     583A      4.210414   584A      4.215590   585A      4.230307  
     586A      4.244585   587A      4.259324   588A      4.263235  
     589A      4.271539   590A      4.282694   591A      4.289737  
     592A      4.299347   593A      4.307469   594A      4.315011  
     595A      4.330281   596A      4.338014   597A      4.344690  
     598A      4.346168   599A      4.361822   600A      4.368930  
     601A      4.388398   602A      4.392931   603A      4.398727  
     604A      4.412474   605A      4.422635   606A      4.444334  
     607A      4.445495   608A      4.451233   609A      4.475717  
     610A      4.492830   611A      4.505133   612A      4.510836  
     613A      4.532027   614A      4.555321   615A      4.558336  
     616A      4.579540   617A      4.584518   618A      4.605578  
     619A      4.616395   620A      4.622273   621A      4.636190  
     622A      4.647886   623A      4.658723   624A      4.671214  
     625A      4.678479   626A      4.698113   627A      4.705005  
     628A      4.715723   629A      4.720669   630A      4.732211  
     631A      4.749309   632A      4.750787   633A      4.760502  
     634A      4.771989   635A      4.776166   636A      4.785213  
     637A      4.808430   638A      4.822752   639A      4.825956  
     640A      4.834552   641A      4.850912   642A      4.860313  
     643A      4.872211   644A      4.882117   645A      4.890676  
     646A      4.895638   647A      4.898818   648A      4.916762  
     649A      4.924635   650A      4.932377   651A      4.948711  
     652A      4.959948   653A      4.974576   654A      4.985754  
     655A      4.998814   656A      5.004049   657A      5.017327  
     658A      5.035878   659A      5.039434   660A      5.054794  
     661A      5.080010   662A      5.086195   663A      5.092156  
     664A      5.110792   665A      5.131627   666A      5.139773  
     667A      5.150190   668A      5.171649   669A      5.174877  
     670A      5.180608   671A      5.190949   672A      5.196836  
     673A      5.213972   674A      5.221116   675A      5.234060  
     676A      5.247790   677A      5.258494   678A      5.267394  
     679A      5.287412   680A      5.296715   681A      5.309026  
     682A      5.318269   683A      5.328579   684A      5.336007  
     685A      5.356200   686A      5.366163   687A      5.376083  
     688A      5.390946   689A      5.392699   690A      5.406030  
     691A      5.420190   692A      5.424858   693A      5.440977  
     694A      5.452550   695A      5.462622   696A      5.467354  
     697A      5.473889   698A      5.478896   699A      5.492562  
     700A      5.509829   701A      5.512856   702A      5.529093  
     703A      5.536320   704A      5.556827   705A      5.580494  
     706A      5.585413   707A      5.592531   708A      5.617295  
     709A      5.624749   710A      5.644195   711A      5.654778  
     712A      5.660584   713A      5.667525   714A      5.683350  
     715A      5.699294   716A      5.709959   717A      5.722343  
     718A      5.726269   719A      5.734903   720A      5.745657  
     721A      5.748380   722A      5.767329   723A      5.777986  
     724A      5.785567   725A      5.805778   726A      5.837972  
     727A      5.842320   728A      5.862817   729A      5.885529  
     730A      5.907158   731A      5.934093   732A      5.948621  
     733A      5.964900   734A      6.005659   735A      6.022114  
     736A      6.043415   737A      6.067844   738A      6.078223  
     739A      6.104797   740A      6.133101   741A      6.148198  
     742A      6.172873   743A      6.178393   744A      6.208868  
     745A      6.217868   746A      6.229292   747A      6.247484  
     748A      6.276017   749A      6.278767   750A      6.290252  
     751A      6.315513   752A      6.329491   753A      6.346267  
     754A      6.362683   755A      6.390580   756A      6.409315  
     757A      6.423096   758A      6.469953   759A      6.588736  
     760A      6.621344   761A      6.650661   762A      6.675805  
     763A      6.725754   764A      6.773304   765A      6.802862  
     766A      6.812170   767A      6.880523   768A      6.893044  
     769A      6.949304   770A      6.972694   771A      6.995165  
     772A      7.060356   773A      7.082268   774A      7.144032  
     775A     17.975421   776A     18.143224   777A     18.311468  
     778A     18.558807   779A     18.712701   780A     19.315734  
     781A     19.578643   782A     19.767187  

    Final Occupation by Irrep:
              A 
    DOCC [    33 ]

  Energy converged.

  @DF-RHF Final Energy:  -313.53878762035930

   => Energetics <=

    Nuclear Repulsion Energy =            395.5851114662964960
    One-Electron Energy =               -1206.3201909567410439
    Two-Electron Energy =                 497.1962918700845080
    DFT Exchange-Correlation Energy =       0.0000000000000000
    Empirical Dispersion Energy =           0.0000000000000000
    PCM Polarization Energy =               0.0000000000000000
    EFP Energy =                            0.0000000000000000
    Total Energy =                       -313.5387876203600968


  Saving occupied orbitals to File 180.

*** tstop() called on wr25 at Tue Sep 20 23:24:16 2016
Module time:
	user time   =     857.17 seconds =      14.29 minutes
	system time =      10.67 seconds =       0.18 minutes
	total time  =         79 seconds =       1.32 minutes
Total time:
	user time   =     857.17 seconds =      14.29 minutes
	system time =      10.67 seconds =       0.18 minutes
	total time  =         79 seconds =       1.32 minutes


Properties will be evaluated at   0.000000,   0.000000,   0.000000 Bohr

Properties computed using the SCF density matrix

  Nuclear Dipole Moment: (a.u.)
     X:    -1.1539      Y:    -1.6456      Z:    -0.0859

  Electronic Dipole Moment: (a.u.)
     X:     1.1946      Y:     1.6571      Z:     0.0997

  Dipole Moment: (a.u.)
     X:     0.0406      Y:     0.0115      Z:     0.0138     Total:     0.0444

  Dipole Moment: (Debye)
     X:     0.1033      Y:     0.0293      Z:     0.0350     Total:     0.1129


  //>>>>>>>>>>>>>>>>>>>>>>>>>>>>>>>>>>>//
  //               DFMP2               //
  //<<<<<<<<<<<<<<<<<<<<<<<<<<<<<<<<<<<//


*** tstart() called on wr25
*** at Tue Sep 20 23:24:16 2016


*** tstop() called on wr25 at Tue Sep 20 23:24:17 2016
Module time:
	user time   =       2.98 seconds =       0.05 minutes
	system time =       0.12 seconds =       0.00 minutes
	total time  =          1 seconds =       0.02 minutes
Total time:
	user time   =     860.26 seconds =      14.34 minutes
	system time =      10.80 seconds =       0.18 minutes
	total time  =         80 seconds =       1.33 minutes
	 --------------------------------------------------------
	                          DF-MP2                         
	      2nd-Order Density-Fitted Moller-Plesset Theory     
	              RMP2 Wavefunction,  12 Threads             
	                                                         
	        Rob Parrish, Justin Turney, Andy Simmonett,      
	           Ed Hohenstein, and C. David Sherrill          
	 --------------------------------------------------------

   => Auxiliary Basis Set <=

  Basis Set: 
    Number of shells: 476
    Number of basis function: 1676
    Number of Cartesian functions: 2078
    Spherical Harmonics?: true
    Max angular momentum: 4

	 --------------------------------------------------------
	                 NBF =   782, NAUX =  1676
	 --------------------------------------------------------
	   CLASS    FOCC     OCC    AOCC    AVIR     VIR    FVIR
	   PAIRS       8      33      25     749     749       0
	 --------------------------------------------------------

DGAS Warning! /src/lib/libfock/apps.cc:80 is not currently checking restricted

         ------------------------------------------------------------
                                     CPHF                           
                                  Rob Parrish                       
         ------------------------------------------------------------

  ==> Geometry <==

    Molecular point group: c1
    Full point group: C1

    Geometry (in Angstrom), charge = 0, multiplicity = 1:

       Center              X                  Y                   Z               Mass       
    ------------   -----------------  -----------------  -----------------  -----------------
           C          2.208962860692    -1.567667954145    -0.598541654431    12.000000000000
           H          2.252890442055    -1.258287072749    -1.643975394945     1.007825032070
           H          1.164570422813    -1.754032483686    -0.347983547373     1.007825032070
           H          2.743597059521    -2.512997348778    -0.505758935720     1.007825032070
           C         -3.663753288210    -0.570669732780     0.495088728755    12.000000000000
           H         -3.974301217525    -1.500942360801     0.970103077877     1.007825032070
           H         -4.208004464385    -0.475185853198    -0.445307965197     1.007825032070
           H         -3.969758821044     0.253847316580     1.140309309447     1.007825032070
           C          2.818335770607    -0.505910123518     0.310032204873    12.000000000000
           H          3.885385524311    -0.415985502575     0.093169152322     1.007825032070
           H          2.741214392812    -0.835570427498     1.349893906763     1.007825032070
           C         -2.159294969550    -0.535914696448     0.254434768954    12.000000000000
           H         -1.637887088374    -0.665257418699     1.204839957576     1.007825032070
           H         -1.866778487598    -1.378348934521    -0.379153024464     1.007825032070
           C          2.169458861025     0.872569632057     0.186982684456    12.000000000000
           H          2.326023870448     1.258538025274    -0.825426089703     1.007825032070
           H          2.693158895034     1.555271900591     0.859413881890     1.007825032070
           C          0.667331495667     0.884038729651     0.505678115155    12.000000000000
           H          0.408963334628     1.798571586039     1.046381497448     1.007825032070
           H          0.442761469534     0.056040207920     1.183920966321     1.007825032070
           C         -0.223042124442     0.809371379160    -0.733403780208    12.000000000000
           H         -0.012850705306     1.685156331016    -1.353960831819     1.007825032070
           H          0.042721551424    -0.063201311152    -1.335291204848     1.007825032070
           C         -1.714622561737     0.761607236692    -0.412572815871    12.000000000000
           H         -1.975469798579     1.606980999094     0.233083928003     1.007825032070
           H         -2.287117226298     0.890044431097    -1.335920447515     1.007825032070

  Nuclear repulsion =  395.585111466296496
  Reference energy  = -313.538787620359301

  ==> Basis Set <==

  Basis Set: AUG-CC-PVTZ
    Number of shells: 274
    Number of basis function: 782
    Number of Cartesian functions: 890
    Spherical Harmonics?: true
    Max angular momentum: 3

  ==> CGRSolver (by Rob Parrish) <==

   Number of roots    =         1
   Preconditioning    =    JACOBI
   Convergence cutoff =     1E-06
   Maximum iterations =       100

  ==> CPHFRHamiltonian (by Rob Parrish) <== 

  ==> DFJK: Density-Fitted J/K Matrices <==

    J tasked:                  Yes
    K tasked:                  Yes
    wK tasked:                  No
    OpenMP threads:             12
    Integrals threads:          12
    Memory (MB):             42915
    Algorithm:                Core
    Integral Cache:           NONE
    Schwarz Cutoff:          1E-12
    Fitting Condition:       1E-12

   => Auxiliary Basis Set <=

  Basis Set: 
    Number of shells: 492
    Number of basis function: 1660
    Number of Cartesian functions: 2038
    Spherical Harmonics?: true
    Max angular momentum: 4

  ==> CPHF Iterations <==

  => Iterations <=

             Iter  Converged  Remaining    Residual
  CGR           1          0          1   9.129E-02
  CGR           2          0          1   1.319E-02
  CGR           3          0          1   3.782E-03
  CGR           4          0          1   8.485E-04
  CGR           5          0          1   1.982E-04
  CGR           6          0          1   4.566E-05
  CGR           7          0          1   1.325E-05
  CGR           8          0          1   3.211E-06
  CGR           9          1          0   7.884E-07

    CGRSolver converged.

  ==> DFCorrGrad: Density-Fitted Correlated Gradients <==

    OpenMP threads:             12
    Integrals threads:          12
    Memory (MB):             42915
    Schwarz Cutoff:          0E+00
    Fitting Condition:       1E-12

   => Auxiliary Basis Set <=

  Basis Set: 
    Number of shells: 492
    Number of basis function: 1660
    Number of Cartesian functions: 2038
    Spherical Harmonics?: true
    Max angular momentum: 4

	-----------------------------------------------------------
	 ==================> DF-MP2 Energies <==================== 
	-----------------------------------------------------------
	 Reference Energy          =    -313.5387876203593009 [Eh]
	 Singles Energy            =      -0.0000000000000000 [Eh]
	 Same-Spin Energy          =      -0.3163312783051797 [Eh]
	 Opposite-Spin Energy      =      -1.1256556104716531 [Eh]
	 Correlation Energy        =      -1.4419868887768328 [Eh]
	 Total Energy              =    -314.9807745091361539 [Eh]
	-----------------------------------------------------------
	 ================> DF-SCS-MP2 Energies <================== 
	-----------------------------------------------------------
	 SCS Same-Spin Scale       =       0.3333333333333333 [-]
	 SCS Opposite-Spin Scale   =       1.2000000000000000 [-]
	 SCS Same-Spin Energy      =      -0.1054437594350599 [Eh]
	 SCS Opposite-Spin Energy  =      -1.3507867325659837 [Eh]
	 SCS Correlation Energy    =      -1.4562304920010436 [Eh]
	 SCS Total Energy          =    -314.9950181123603556 [Eh]
	-----------------------------------------------------------


  -Total Gradient:
     Atom            X                  Y                   Z
    ------   -----------------  -----------------  -----------------
       1        0.000000003909    -0.000000105796    -0.000000087047
       2        0.000000001495     0.000000013923     0.000000031470
       3        0.000000031326    -0.000000000410     0.000000042231
       4       -0.000000044425     0.000000114792    -0.000000003856
       5       -0.000000165917     0.000000075337    -0.000000034976
       6        0.000000092020     0.000000146257    -0.000000095244
       7        0.000000142450    -0.000000028963     0.000000165116
       8        0.000000086241    -0.000000172548    -0.000000108734
       9        0.000000344106    -0.000000282302     0.000000367105
      10       -0.000000101481     0.000000007515     0.000000013958
      11       -0.000000015103     0.000000030571    -0.000000119216
      12        0.000000360090    -0.000000450525     0.000000171573
      13       -0.000000199190     0.000000192809    -0.000000330980
      14       -0.000000144404     0.000000339214     0.000000163635
      15        0.000000049299     0.000000022728    -0.000000213362
      16        0.000000033994     0.000000091544    -0.000000179638
      17        0.000000012701     0.000000000985     0.000000051718
      18       -0.000000554546    -0.000000033392     0.000000130184
      19       -0.000000088419     0.000000121530     0.000000033649
      20        0.000000064810     0.000000029791    -0.000000028607
      21        0.000000397329    -0.000000194514    -0.000000363601
      22       -0.000000009523    -0.000000184272     0.000000216347
      23       -0.000000230474     0.000000182505     0.000000107204
      24       -0.000000367027     0.000000603712    -0.000000072595
      25        0.000000034502    -0.000000434429    -0.000000337175
      26        0.000000266238    -0.000000086064     0.000000480839


			-----------------------------------------
			 OPTKING 2.0: for geometry optimizations 
			  - R.A. King,  Bethel University        
			-----------------------------------------

	Internal coordinates to be generated automatically.
	Detected frag 1 with atoms:  1 2 3 4 5 6 7 8 9 10 11 12 13 14 15 16 17 18 19 20
	 21 22 23 24 25 26
	---Fragment 1 Bond Connectivity---
	 1 : 2 3 4 9
	 2 : 1
	 3 : 1
	 4 : 1
	 5 : 6 7 8 12
	 6 : 5
	 7 : 5
	 8 : 5
	 9 : 1 10 11 15
	 10 : 9
	 11 : 9
	 12 : 5 13 14 24
	 13 : 12
	 14 : 12
	 15 : 9 16 17 18
	 16 : 15
	 17 : 15
	 18 : 15 19 20 21
	 19 : 18
	 20 : 18
	 21 : 18 22 23 24
	 22 : 21
	 23 : 21
	 24 : 12 21 25 26
	 25 : 24
	 26 : 24

	---Fragment 1 Geometry and Gradient---
	 C           4.1743348444       -2.9624631006       -1.1310798060
	 H           4.2573459429       -2.3778179640       -3.1066632656
	 H           2.2007191616       -3.3146410224       -0.6575936033
	 H           5.1846470615       -4.7488767619       -0.9557458778
	 C          -6.9234903332       -1.0784095073        0.9355821088
	 H          -7.5103408707       -2.8363700032        1.8332291379
	 H          -7.9519760036       -0.8979711248       -0.8415100990
	 H          -7.5017569854        0.4797019079        2.1548723016
	 C           5.3258827570       -0.9560315813        0.5858759596
	 H           7.3423145616       -0.7860986751        0.1760641819
	 H           5.1801444739       -1.5789992727        2.5509297922
	 C          -4.0804761326       -1.0127320069        0.4808120320
	 H          -3.0951580336       -1.2571543292        2.2768175538
	 H          -3.5277000923       -2.6047020018       -0.7164953787
	 C           4.0996831039        1.6489176365        0.3533460652
	 H           4.3955480937        2.3782921956       -1.5598292525
	 H           5.0893327440        2.9390379543        1.6240568716
	 C           1.2610737667        1.6705910899        0.9555931490
	 H           0.7728287008        3.3988077280        1.9773744607
	 H           0.8366979196        0.1059006454        2.2372863893
	 C          -0.4214885313        1.5294902464       -1.3859322894
	 H          -0.0242843136        3.1844839567       -2.5586151668
	 H           0.0807320322       -0.1194331693       -2.5233346848
	 C          -3.2401670629        1.4392290982       -0.7796496319
	 H          -3.7330969031        3.0367539890        0.4404647899
	 H          -4.3220251915        1.6819402209       -2.5245237811
	             0.0000000039       -0.0000001058       -0.0000000870
	             0.0000000015        0.0000000139        0.0000000315
	             0.0000000313       -0.0000000004        0.0000000422
	            -0.0000000444        0.0000001148       -0.0000000039
	            -0.0000001659        0.0000000753       -0.0000000350
	             0.0000000920        0.0000001463       -0.0000000952
	             0.0000001424       -0.0000000290        0.0000001651
	             0.0000000862       -0.0000001725       -0.0000001087
	             0.0000003441       -0.0000002823        0.0000003671
	            -0.0000001015        0.0000000075        0.0000000140
	            -0.0000000151        0.0000000306       -0.0000001192
	             0.0000003601       -0.0000004505        0.0000001716
	            -0.0000001992        0.0000001928       -0.0000003310
	            -0.0000001444        0.0000003392        0.0000001636
	             0.0000000493        0.0000000227       -0.0000002134
	             0.0000000340        0.0000000915       -0.0000001796
	             0.0000000127        0.0000000010        0.0000000517
	            -0.0000005545       -0.0000000334        0.0000001302
	            -0.0000000884        0.0000001215        0.0000000336
	             0.0000000648        0.0000000298       -0.0000000286
	             0.0000003973       -0.0000001945       -0.0000003636
	            -0.0000000095       -0.0000001843        0.0000002163
	            -0.0000002305        0.0000001825        0.0000001072
	            -0.0000003670        0.0000006037       -0.0000000726
	             0.0000000345       -0.0000004344       -0.0000003372
	             0.0000002662       -0.0000000861        0.0000004808

	Previous optimization step data not found.  Starting new optimization.

	---Fragment 1 Intrafragment Coordinates---
	 - Coordinate -           - BOHR/RAD -       - ANG/DEG -
	 R(1,2)           =         2.061948	       1.091136
	 R(1,3)           =         2.059946	       1.090076
	 R(1,4)           =         2.059793	       1.089995
	 R(1,9)           =         2.880932	       1.524523
	 R(5,6)           =         2.059269	       1.089718
	 R(5,7)           =         2.061164	       1.090721
	 R(5,8)           =         2.061255	       1.090769
	 R(5,12)          =         2.879906	       1.523981
	 R(9,10)          =         2.064660	       1.092571
	 R(9,11)          =         2.066583	       1.093589
	 R(9,15)          =         2.888494	       1.528525
	 R(12,13)         =         2.063063	       1.091726
	 R(12,14)         =         2.067238	       1.093935
	 R(12,24)         =         2.882186	       1.525187
	 R(15,16)         =         2.068759	       1.094740
	 R(15,17)         =         2.063619	       1.092020
	 R(15,18)         =         2.901874	       1.535606
	 R(18,19)         =         2.066193	       1.093382
	 R(18,20)         =         2.066661	       1.093630
	 R(18,21)         =         2.886809	       1.527634
	 R(21,22)         =         2.066872	       1.093742
	 R(21,23)         =         2.065153	       1.092832
	 R(21,24)         =         2.884558	       1.526442
	 R(24,25)         =         2.069721	       1.095249
	 R(24,26)         =         2.067344	       1.093991
	 B(1,9,10)        =         1.906470	     109.232661
	 B(1,9,11)        =         1.905575	     109.181411
	 B(1,9,15)        =         1.993717	     114.231593
	 B(2,1,3)         =         1.883122	     107.894964
	 B(2,1,4)         =         1.883591	     107.921789
	 B(2,1,9)         =         1.936328	     110.943426
	 B(3,1,4)         =         1.877688	     107.583571
	 B(3,1,9)         =         1.944477	     111.410314
	 B(4,1,9)         =         1.936098	     110.930246
	 B(5,12,13)       =         1.908487	     109.348267
	 B(5,12,14)       =         1.915449	     109.747157
	 B(5,12,24)       =         1.956572	     112.103340
	 B(6,5,7)         =         1.884266	     107.960514
	 B(6,5,8)         =         1.883364	     107.908795
	 B(6,5,12)        =         1.949410	     111.692953
	 B(7,5,8)         =         1.879522	     107.688659
	 B(7,5,12)        =         1.933118	     110.759529
	 B(8,5,12)        =         1.931698	     110.678122
	 B(9,15,16)       =         1.908894	     109.371575
	 B(9,15,17)       =         1.886674	     108.098453
	 B(9,15,18)       =         1.988087	     113.909004
	 B(10,9,11)       =         1.857114	     106.404820
	 B(10,9,15)       =         1.901164	     108.928671
	 B(11,9,15)       =         1.894908	     108.570240
	 B(12,24,21)      =         1.986062	     113.792965
	 B(12,24,25)      =         1.906459	     109.232071
	 B(12,24,26)      =         1.892748	     108.446467
	 B(13,12,14)      =         1.860076	     106.574505
	 B(13,12,24)      =         1.920120	     110.014782
	 B(14,12,24)      =         1.900634	     108.898293
	 B(15,18,19)      =         1.917744	     109.878656
	 B(15,18,20)      =         1.900668	     108.900266
	 B(15,18,21)      =         1.983882	     113.668053
	 B(16,15,17)      =         1.855067	     106.287504
	 B(16,15,18)      =         1.906246	     109.219844
	 B(17,15,18)      =         1.914154	     109.672938
	 B(18,21,22)      =         1.884995	     108.002261
	 B(18,21,23)      =         1.921984	     110.121560
	 B(18,21,24)      =         1.982948	     113.614554
	 B(19,18,20)      =         1.852562	     106.143960
	 B(19,18,21)      =         1.879968	     107.714215
	 B(20,18,21)      =         1.924466	     110.263774
	 B(21,24,25)      =         1.909723	     109.419050
	 B(21,24,26)      =         1.907402	     109.286106
	 B(22,21,23)      =         1.854714	     106.267297
	 B(22,21,24)      =         1.909319	     109.395936
	 B(23,21,24)      =         1.905415	     109.172254
	 B(25,24,26)      =         1.856991	     106.397754
	 D(1,9,15,16)     =        -1.107341	     -63.445966
	 D(1,9,15,17)     =        -3.120052	    -178.765828
	 D(1,9,15,18)     =         1.031014	      59.072766
	 D(2,1,9,10)      =        -1.137083	     -65.150054
	 D(2,1,9,11)      =         3.121863	     178.869589
	 D(2,1,9,15)      =         0.996781	      57.111357
	 D(3,1,9,10)      =         3.047699	     174.620263
	 D(3,1,9,11)      =         1.023459	      58.639907
	 D(3,1,9,15)      =        -1.101623	     -63.118325
	 D(4,1,9,10)      =         0.956326	      54.793437
	 D(4,1,9,11)      =        -1.067913	     -61.186919
	 D(4,1,9,15)      =         3.090190	     177.054849
	 D(5,12,24,21)    =        -3.092591	    -177.192389
	 D(5,12,24,25)    =         1.050965	      60.215834
	 D(5,12,24,26)    =        -0.966042	     -55.350147
	 D(6,5,12,13)     =        -1.009066	     -57.815221
	 D(6,5,12,14)     =         1.025453	      58.754124
	 D(6,5,12,24)     =         3.139843	     179.899733
	 D(7,5,12,13)     =        -3.110053	    -178.192885
	 D(7,5,12,14)     =        -1.075534	     -61.623541
	 D(7,5,12,24)     =         1.038856	      59.522068
	 D(8,5,12,13)     =         1.089807	      62.441335
	 D(8,5,12,14)     =         3.124326	     179.010679
	 D(8,5,12,24)     =        -1.044470	     -59.843711
	 D(9,15,18,19)    =         2.477510	     141.950870
	 D(9,15,18,20)    =         0.455214	      26.081855
	 D(9,15,18,21)    =        -1.697668	     -97.269230
	 D(10,9,15,16)    =         1.029421	      58.981493
	 D(10,9,15,17)    =        -0.983290	     -56.338368
	 D(10,9,15,18)    =        -3.115409	    -178.499775
	 D(11,9,15,16)    =         3.044909	     174.460425
	 D(11,9,15,17)    =         1.032198	      59.140564
	 D(11,9,15,18)    =        -1.099921	     -63.020843
	 D(12,24,21,18)   =        -1.198691	     -68.679963
	 D(12,24,21,22)   =         2.976746	     170.554962
	 D(12,24,21,23)   =         0.953882	      54.653386
	 D(13,12,24,21)   =         1.062952	      60.902691
	 D(13,12,24,25)   =        -1.076678	     -61.689086
	 D(13,12,24,26)   =        -3.093685	    -177.255067
	 D(14,12,24,21)   =        -0.969687	     -55.558951
	 D(14,12,24,25)   =        -3.109317	    -178.150728
	 D(14,12,24,26)   =         1.156862	      66.283291
	 D(15,18,21,22)   =        -1.062641	     -60.884861
	 D(15,18,21,23)   =         0.955687	      54.756856
	 D(15,18,21,24)   =         3.099177	     177.569778
	 D(16,15,18,19)   =        -1.665868	     -95.447205
	 D(16,15,18,20)   =         2.595022	     148.683780
	 D(16,15,18,21)   =         0.442139	      25.332694
	 D(17,15,18,19)   =         0.360598	      20.660738
	 D(17,15,18,20)   =        -1.661698	     -95.208278
	 D(17,15,18,21)   =         2.468605	     141.440637
	 D(18,21,24,25)   =         0.939145	      53.809045
	 D(18,21,24,26)   =         2.966083	     169.944018
	 D(19,18,21,22)   =         1.066445	      61.102790
	 D(19,18,21,23)   =         3.084774	     176.744508
	 D(19,18,21,24)   =        -1.054922	     -60.442570
	 D(20,18,21,22)   =         3.080709	     176.511624
	 D(20,18,21,23)   =        -1.184148	     -67.846659
	 D(20,18,21,24)   =         0.959342	      54.966263
	 D(22,21,24,25)   =        -1.168603	     -66.956030
	 D(22,21,24,26)   =         0.858334	      49.178943
	 D(23,21,24,25)   =         3.091718	     177.142394
	 D(23,21,24,26)   =        -1.164530	     -66.722633
	 R(1,21)          =         6.431500	       3.403403

	Current energy   :      -314.9807745091

	Generating empirical Hessian (Schlegel '84) for each fragment.
	Taking RFO optimization step.
	Going to follow RFO solution 1.
	Using RFO vector 1.
	Norm of target step-size    0.00006
	Projected energy change by RFO approximation:         0.0000000000

	Back-transformation to cartesian coordinates...
	Successfully converged to displaced geometry.

	--- Internal Coordinate Step in ANG or DEG, aJ/ANG or AJ/DEG ---
	 ---------------------------------------------------------------------------
	   Coordinate                Previous        Force       Change         New 
	   ----------                --------       ------       ------       ------
	    1 R(1,2)          =      1.091136     0.000000     0.000000     1.091136
	    2 R(1,3)          =      1.090076     0.000000     0.000000     1.090076
	    3 R(1,4)          =      1.089995     0.000001     0.000000     1.089996
	    4 R(1,9)          =      1.524523    -0.000000    -0.000000     1.524523
	    5 R(5,6)          =      1.089718     0.000002     0.000000     1.089719
	    6 R(5,7)          =      1.090721     0.000002     0.000000     1.090721
	    7 R(5,8)          =      1.090769     0.000002     0.000000     1.090769
	    8 R(5,12)         =      1.523981     0.000001     0.000000     1.523981
	    9 R(9,10)         =      1.092571     0.000001     0.000000     1.092571
	   10 R(9,11)         =      1.093589     0.000001     0.000000     1.093589
	   11 R(9,15)         =      1.528525    -0.000002    -0.000001     1.528525
	   12 R(12,13)        =      1.091726     0.000003     0.000001     1.091727
	   13 R(12,14)        =      1.093935     0.000003     0.000001     1.093936
	   14 R(12,24)        =      1.525187     0.000001     0.000000     1.525187
	   15 R(15,16)        =      1.094740    -0.000002    -0.000000     1.094740
	   16 R(15,17)        =      1.092020    -0.000000    -0.000000     1.092020
	   17 R(15,18)        =      1.535606    -0.000003    -0.000001     1.535605
	   18 R(18,19)        =      1.093382    -0.000001    -0.000000     1.093382
	   19 R(18,20)        =      1.093630     0.000000     0.000000     1.093630
	   20 R(18,21)        =      1.527634     0.000002     0.000000     1.527634
	   21 R(21,22)        =      1.093742     0.000002     0.000000     1.093742
	   22 R(21,23)        =      1.092832     0.000002     0.000000     1.092832
	   23 R(21,24)        =      1.526442     0.000001     0.000000     1.526442
	   24 R(24,25)        =      1.095249     0.000004     0.000001     1.095250
	   25 R(24,26)        =      1.093991     0.000005     0.000001     1.093992
	   26 B(1,9,10)       =    109.232661    -0.000000     0.000009   109.232670
	   27 B(1,9,11)       =    109.181411    -0.000000    -0.000023   109.181388
	   28 B(1,9,15)       =    114.231593     0.000000     0.000051   114.231644
	   29 B(2,1,3)        =    107.894964    -0.000000    -0.000011   107.894953
	   30 B(2,1,4)        =    107.921789    -0.000000    -0.000005   107.921785
	   31 B(2,1,9)        =    110.943426     0.000000     0.000009   110.943435
	   32 B(3,1,4)        =    107.583571    -0.000000    -0.000004   107.583567
	   33 B(3,1,9)        =    111.410314     0.000000     0.000011   111.410325
	   34 B(4,1,9)        =    110.930246    -0.000000    -0.000000   110.930246
	   35 B(5,12,13)      =    109.348267    -0.000000    -0.000013   109.348254
	   36 B(5,12,14)      =    109.747157     0.000000     0.000011   109.747168
	   37 B(5,12,24)      =    112.103340    -0.000000    -0.000000   112.103339
	   38 B(6,5,7)        =    107.960514    -0.000000    -0.000007   107.960508
	   39 B(6,5,8)        =    107.908795    -0.000000    -0.000007   107.908788
	   40 B(6,5,12)       =    111.692953     0.000000     0.000025   111.692978
	   41 B(7,5,8)        =    107.688659    -0.000000    -0.000025   107.688634
	   42 B(7,5,12)       =    110.759529     0.000000     0.000010   110.759539
	   43 B(8,5,12)       =    110.678122     0.000000     0.000001   110.678122
	   44 B(9,15,16)      =    109.371575     0.000000    -0.000026   109.371549
	   45 B(9,15,17)      =    108.098453     0.000000     0.000044   108.098497
	   46 B(9,15,18)      =    113.909004    -0.000000    -0.000035   113.908969
	   47 B(10,9,11)      =    106.404820     0.000000    -0.000022   106.404798
	   48 B(10,9,15)      =    108.928671    -0.000000     0.000019   108.928690
	   49 B(11,9,15)      =    108.570240    -0.000000    -0.000038   108.570201
	   50 B(12,24,21)     =    113.792965     0.000000     0.000108   113.793073
	   51 B(12,24,25)     =    109.232071    -0.000000     0.000002   109.232073
	   52 B(12,24,26)     =    108.446467    -0.000000    -0.000011   108.446456
	   53 B(13,12,14)     =    106.574505    -0.000000    -0.000062   106.574443
	   54 B(13,12,24)     =    110.014782     0.000000     0.000040   110.014822
	   55 B(14,12,24)     =    108.898293     0.000000     0.000022   108.898315
	   56 B(15,18,19)     =    109.878656    -0.000000    -0.000022   109.878634
	   57 B(15,18,20)     =    108.900266     0.000000     0.000010   108.900277
	   58 B(15,18,21)     =    113.668053     0.000000     0.000030   113.668083
	   59 B(16,15,17)     =    106.287504    -0.000000     0.000002   106.287506
	   60 B(16,15,18)     =    109.219844     0.000000    -0.000023   109.219820
	   61 B(17,15,18)     =    109.672938     0.000000     0.000042   109.672980
	   62 B(18,21,22)     =    108.002261    -0.000000     0.000014   108.002275
	   63 B(18,21,23)     =    110.121560    -0.000000    -0.000081   110.121479
	   64 B(18,21,24)     =    113.614554     0.000000     0.000080   113.614634
	   65 B(19,18,20)     =    106.143960     0.000000    -0.000015   106.143945
	   66 B(19,18,21)     =    107.714215     0.000000     0.000020   107.714235
	   67 B(20,18,21)     =    110.263774    -0.000000    -0.000027   110.263747
	   68 B(21,24,25)     =    109.419050    -0.000000    -0.000077   109.418973
	   69 B(21,24,26)     =    109.286106    -0.000000    -0.000026   109.286080
	   70 B(22,21,23)     =    106.267297     0.000000    -0.000043   106.267255
	   71 B(22,21,24)     =    109.395936    -0.000000    -0.000023   109.395913
	   72 B(23,21,24)     =    109.172254     0.000000     0.000045   109.172299
	   73 B(25,24,26)     =    106.397754     0.000000    -0.000002   106.397752
	   74 D(1,9,15,16)    =    -63.445966    -0.000000    -0.000443   -63.446409
	   75 D(1,9,15,17)    =   -178.765828    -0.000000    -0.000456  -178.766283
	   76 D(1,9,15,18)    =     59.072766    -0.000000    -0.000518    59.072248
	   77 D(2,1,9,10)     =    -65.150054    -0.000000     0.000402   -65.149653
	   78 D(2,1,9,11)     =    178.869589     0.000000     0.000436   178.870026
	   79 D(2,1,9,15)     =     57.111357     0.000000     0.000468    57.111825
	   80 D(3,1,9,10)     =    174.620263    -0.000000     0.000403   174.620666
	   81 D(3,1,9,11)     =     58.639907     0.000000     0.000437    58.640344
	   82 D(3,1,9,15)     =    -63.118325     0.000000     0.000469   -63.117856
	   83 D(4,1,9,10)     =     54.793437    -0.000000     0.000401    54.793838
	   84 D(4,1,9,11)     =    -61.186919     0.000000     0.000436   -61.186483
	   85 D(4,1,9,15)     =    177.054849     0.000000     0.000467   177.055316
	   86 D(5,12,24,21)   =   -177.192389    -0.000000    -0.000310  -177.192699
	   87 D(5,12,24,25)   =     60.215834    -0.000000    -0.000287    60.215547
	   88 D(5,12,24,26)   =    -55.350147    -0.000000    -0.000280   -55.350427
	   89 D(6,5,12,13)    =    -57.815221     0.000000     0.000312   -57.814909
	   90 D(6,5,12,14)    =     58.754124    -0.000000     0.000236    58.754359
	   91 D(6,5,12,24)    =    179.899733     0.000000     0.000271   179.900004
	   92 D(7,5,12,13)    =   -178.192885     0.000000     0.000297  -178.192589
	   93 D(7,5,12,14)    =    -61.623541    -0.000000     0.000220   -61.623321
	   94 D(7,5,12,24)    =     59.522068    -0.000000     0.000256    59.522324
	   95 D(8,5,12,13)    =     62.441335     0.000000     0.000321    62.441656
	   96 D(8,5,12,14)    =    179.010679    -0.000000     0.000244   179.010924
	   97 D(8,5,12,24)    =    -59.843711     0.000000     0.000280   -59.843432
	   98 D(9,15,18,19)   =    141.950870    -0.000000    -0.000167   141.950704
	   99 D(9,15,18,20)   =     26.081855     0.000000    -0.000142    26.081713
	  100 D(9,15,18,21)   =    -97.269230     0.000000    -0.000136   -97.269366
	  101 D(10,9,15,16)   =     58.981493     0.000000    -0.000383    58.981111
	  102 D(10,9,15,17)   =    -56.338368     0.000000    -0.000395   -56.338763
	  103 D(10,9,15,18)   =   -178.499775    -0.000000    -0.000457  -178.500232
	  104 D(11,9,15,16)   =    174.460425    -0.000000    -0.000420   174.460006
	  105 D(11,9,15,17)   =     59.140564    -0.000000    -0.000432    59.140131
	  106 D(11,9,15,18)   =    -63.020843    -0.000000    -0.000495   -63.021337
	  107 D(12,24,21,18)  =    -68.679963     0.000000    -0.000648   -68.680611
	  108 D(12,24,21,22)  =    170.554962    -0.000000    -0.000703   170.554259
	  109 D(12,24,21,23)  =     54.653386    -0.000000    -0.000664    54.652722
	  110 D(13,12,24,21)  =     60.902691    -0.000000    -0.000321    60.902370
	  111 D(13,12,24,25)  =    -61.689086    -0.000000    -0.000298   -61.689384
	  112 D(13,12,24,26)  =   -177.255067    -0.000000    -0.000291  -177.255358
	  113 D(14,12,24,21)  =    -55.558951    -0.000000    -0.000281   -55.559232
	  114 D(14,12,24,25)  =   -178.150728     0.000000    -0.000258  -178.150986
	  115 D(14,12,24,26)  =     66.283291     0.000000    -0.000251    66.283041
	  116 D(15,18,21,22)  =    -60.884861     0.000000    -0.000434   -60.885296
	  117 D(15,18,21,23)  =     54.756856    -0.000000    -0.000521    54.756335
	  118 D(15,18,21,24)  =    177.569778     0.000000    -0.000467   177.569312
	  119 D(16,15,18,19)  =    -95.447205    -0.000000    -0.000243   -95.447448
	  120 D(16,15,18,20)  =    148.683780    -0.000000    -0.000218   148.683562
	  121 D(16,15,18,21)  =     25.332694    -0.000000    -0.000212    25.332482
	  122 D(17,15,18,19)  =     20.660738    -0.000000    -0.000230    20.660508
	  123 D(17,15,18,20)  =    -95.208278    -0.000000    -0.000205   -95.208483
	  124 D(17,15,18,21)  =    141.440637     0.000000    -0.000199   141.440438
	  125 D(18,21,24,25)  =     53.809045     0.000000    -0.000628    53.808418
	  126 D(18,21,24,26)  =    169.944018    -0.000000    -0.000688   169.943330
	  127 D(19,18,21,22)  =     61.102790     0.000000    -0.000428    61.102362
	  128 D(19,18,21,23)  =    176.744508    -0.000000    -0.000515   176.743993
	  129 D(19,18,21,24)  =    -60.442570     0.000000    -0.000461   -60.443030
	  130 D(20,18,21,22)  =    176.511624     0.000000    -0.000449   176.511175
	  131 D(20,18,21,23)  =    -67.846659    -0.000000    -0.000536   -67.847195
	  132 D(20,18,21,24)  =     54.966263    -0.000000    -0.000481    54.965782
	  133 D(22,21,24,25)  =    -66.956030    -0.000000    -0.000682   -66.956712
	  134 D(22,21,24,26)  =     49.178943    -0.000000    -0.000743    49.178200
	  135 D(23,21,24,25)  =    177.142394     0.000000    -0.000643   177.141751
	  136 D(23,21,24,26)  =    -66.722633    -0.000000    -0.000704   -66.723337
	  137 R(1,21)         =      3.403403    -0.000000    -0.000001     3.403402
	 ---------------------------------------------------------------------------

  ==> Convergence Check <==

  Measures of convergence in internal coordinates in au.
  Criteria marked as inactive (o), active & met (*), and active & unmet ( ).
  --------------------------------------------------------------------------------------------- ~
   Step     Total Energy     Delta E     MAX Force     RMS Force      MAX Disp      RMS Disp    ~
  --------------------------------------------------------------------------------------------- ~
    Convergence Criteria             o    2.00e-06 *    1.00e-06 *    6.00e-06 *    4.00e-06 *  ~
  --------------------------------------------------------------------------------------------- ~
      1    -314.98077451   -3.15e+02 o    5.61e-07 *    1.24e-07 *    1.30e-05      5.08e-06    ~
  ---------------------------------------------------------------------------------------------

	Writing optimization data to binary file.
	Structure for next step:
	Cartesian Geometry (in Angstrom)
	    C     2.2089498606  -1.5676717513  -0.5985272895
	    H     2.2528747863  -1.2583037241  -1.6439649686
	    H     1.1645571108  -1.7540252290  -0.3479621175
	    H     2.7435771710  -2.5130044138  -0.5057359343
	    C    -3.6637499122  -0.5706772215   0.4950853113
	    H    -3.9742971607  -1.5009544461   0.9700917637
	    H    -4.2080071417  -0.4751819448  -0.4453071116
	    H    -3.9697499676   0.2538338288   1.1403167166
	    C     2.8183354730  -0.5059079813   0.3100310578
	    H     3.8853836214  -0.4159891283   0.0931569473
	    H     2.7412232925  -0.8355593129   1.3498964935
	    C    -2.1592927485  -0.5359224530   0.2544222463
	    H    -1.6378790695  -0.6652819945   1.2048226749
	    H    -1.8667820750  -1.3783484787  -0.3791801982
	    C     2.1694624862   0.8725726966   0.1869775091
	    H     2.3260250942   1.2585353209  -0.8254334973
	    H     2.6931664104   1.5552770831   0.8594034318
	    C     0.6673365838   0.8840465614   0.5056767723
	    H     0.4089729847   1.7985807596   1.0463796349
	    H     0.4427657989   0.0560497570   1.1839215927
	    C    -0.2230413648   0.8093796121  -0.7334024258
	    H    -0.0128551362   1.6851671909  -1.3539582663
	    H     0.0427252861  -0.0631904110  -1.3352931457
	    C    -1.7146210987   0.7616087968  -0.4125683288
	    H    -1.9754667754   1.6069743499   0.2331012006
	    H    -2.2871183125   0.8900590879  -1.3359135812
			--------------------------
			 OPTKING Finished Execution 
			--------------------------

    Structure for next step:
    Molecular point group: c1
    Full point group: C1

    Geometry (in Angstrom), charge = 0, multiplicity = 1:

    C            2.208949548990    -1.567672116245    -0.598526962136
    H            2.252874474747    -1.258304089041    -1.643964641254
    H            1.164556799247    -1.754025593871    -0.347961790177
    H            2.743576859407    -2.513004778745    -0.505735607000
    C           -3.663750223815    -0.570677586407     0.495085638678
    H           -3.974297472251    -1.500954811008     0.970092090994
    H           -4.208007453272    -0.475182309729    -0.445306784253
    H           -3.969750279206     0.253833463918     1.140317043976
    C            2.818335161420    -0.505908346168     0.310031385125
    H            3.885383309830    -0.415989493160     0.093157274610
    H            2.741222980963    -0.835559677838     1.349896820809
    C           -2.159293060055    -0.535922817940     0.254422573609
    H           -1.637879381065    -0.665282359446     1.204823002227
    H           -1.866782386547    -1.378348843555    -0.379179870864
    C            2.169462174663     0.872572331679     0.186977836438
    H            2.326024782657     1.258534955989    -0.825433169985
    H            2.693166098822     1.555276718208     0.859403759125
    C            0.667336272191     0.884046196475     0.505677099607
    H            0.408972673143     1.798580394738     1.046379962233
    H            0.442765487359     0.056049392132     1.183921920054
    C           -0.223041676338     0.809379247193    -0.733402098504
    H           -0.012855447767     1.685166825972    -1.353957938946
    H            0.042724974530    -0.063190775934    -1.335292818377
    C           -1.714621410238     0.761608431946    -0.412568001458
    H           -1.975467086985     1.606973985020     0.233101527961
    H           -2.287118624118     0.890058722987    -1.335913253892

gradient() will perform analytic gradient computation.

*** tstart() called on wr25
*** at Tue Sep 20 23:29:16 2016


         ---------------------------------------------------------
                                   SCF
            by Justin Turney, Rob Parrish, and Andy Simmonett
                              RHF Reference
                       12 Threads,  60000 MiB Core
         ---------------------------------------------------------

  ==> Geometry <==

    Molecular point group: c1
    Full point group: C1

    Geometry (in Angstrom), charge = 0, multiplicity = 1:

       Center              X                  Y                   Z               Mass       
    ------------   -----------------  -----------------  -----------------  -----------------
           C          2.208949548990    -1.567672116245    -0.598526962136    12.000000000000
           H          2.252874474747    -1.258304089041    -1.643964641254     1.007825032070
           H          1.164556799247    -1.754025593871    -0.347961790177     1.007825032070
           H          2.743576859407    -2.513004778745    -0.505735607000     1.007825032070
           C         -3.663750223815    -0.570677586407     0.495085638678    12.000000000000
           H         -3.974297472251    -1.500954811008     0.970092090994     1.007825032070
           H         -4.208007453272    -0.475182309729    -0.445306784253     1.007825032070
           H         -3.969750279206     0.253833463918     1.140317043976     1.007825032070
           C          2.818335161420    -0.505908346168     0.310031385125    12.000000000000
           H          3.885383309830    -0.415989493160     0.093157274610     1.007825032070
           H          2.741222980963    -0.835559677838     1.349896820809     1.007825032070
           C         -2.159293060055    -0.535922817940     0.254422573609    12.000000000000
           H         -1.637879381065    -0.665282359446     1.204823002227     1.007825032070
           H         -1.866782386547    -1.378348843555    -0.379179870864     1.007825032070
           C          2.169462174663     0.872572331679     0.186977836438    12.000000000000
           H          2.326024782657     1.258534955989    -0.825433169985     1.007825032070
           H          2.693166098822     1.555276718208     0.859403759125     1.007825032070
           C          0.667336272191     0.884046196475     0.505677099607    12.000000000000
           H          0.408972673143     1.798580394738     1.046379962233     1.007825032070
           H          0.442765487359     0.056049392132     1.183921920054     1.007825032070
           C         -0.223041676338     0.809379247193    -0.733402098504    12.000000000000
           H         -0.012855447767     1.685166825972    -1.353957938946     1.007825032070
           H          0.042724974530    -0.063190775934    -1.335292818377     1.007825032070
           C         -1.714621410238     0.761608431946    -0.412568001458    12.000000000000
           H         -1.975467086985     1.606973985020     0.233101527961     1.007825032070
           H         -2.287118624118     0.890058722987    -1.335913253892     1.007825032070

  Running in c1 symmetry.

  Rotational constants: A =      0.11841  B =      0.02704  C =      0.02450 [cm^-1]
  Rotational constants: A =   3549.84760  B =    810.60338  C =    734.49122 [MHz]
  Nuclear repulsion =  395.585125822584132

  Charge       = 0
  Multiplicity = 1
  Electrons    = 66
  Nalpha       = 33
  Nbeta        = 33

  ==> Algorithm <==

  SCF Algorithm Type is DF.
  DIIS enabled.
  MOM disabled.
  Fractional occupation disabled.
  Guess Type is READ.
  Energy threshold   = 1.00e-10
  Density threshold  = 1.00e-10
  Integral threshold = 0.00e+00

  ==> Primary Basis <==

  Basis Set: AUG-CC-PVTZ
    Number of shells: 274
    Number of basis function: 782
    Number of Cartesian functions: 890
    Spherical Harmonics?: true
    Max angular momentum: 3

  ==> Pre-Iterations <==

   -------------------------------------------------------
    Irrep   Nso     Nmo     Nalpha   Nbeta   Ndocc  Nsocc
   -------------------------------------------------------
     A        782     782       0       0       0       0
   -------------------------------------------------------
    Total     782     782      33      33      33       0
   -------------------------------------------------------

  ==> Integral Setup <==

  ==> DFJK: Density-Fitted J/K Matrices <==

    J tasked:                  Yes
    K tasked:                  Yes
    wK tasked:                  No
    OpenMP threads:             12
    Integrals threads:          12
    Memory (MB):             42915
    Algorithm:                Core
    Integral Cache:           NONE
    Schwarz Cutoff:          1E-12
    Fitting Condition:       1E-12

   => Auxiliary Basis Set <=

  Basis Set: 
    Number of shells: 492
    Number of basis function: 1660
    Number of Cartesian functions: 2038
    Spherical Harmonics?: true
    Max angular momentum: 4

  Minimum eigenvalue in the overlap matrix is 1.4498365448E-06.
  Using Symmetric Orthogonalization.
  SCF Guess: Reading in previously saved MOs, projecting if necessary.

  Using orbitals from previous SCF, no projection.
  Recomputing DOCC and SOCC from number of alpha and beta electrons from previous calculation.
              A 
    DOCC [    33 ]

  ==> Iterations <==

                           Total Energy        Delta E     RMS |[F,P]|

   @DF-RHF iter   0:  -313.53878466016135   -3.13539e+02   4.10569e-08 
   @DF-RHF iter   1:  -313.53878757706150   -2.91690e-06   8.77045e-09 
   @DF-RHF iter   2:  -313.53878757711107   -4.95675e-11   3.24647e-09 DIIS
   @DF-RHF iter   3:  -313.53878757711891   -7.84439e-12   1.37997e-09 DIIS
   @DF-RHF iter   4:  -313.53878757711914   -2.27374e-13   1.70653e-10 DIIS
   @DF-RHF iter   5:  -313.53878757711971   -5.68434e-13   4.86558e-11 DIIS

  ==> Post-Iterations <==

    Orbital Energies (a.u.)
    -----------------------

    Doubly Occupied:                                                      

       1A    -11.213152     2A    -11.212218     3A    -11.210405  
       4A    -11.210129     5A    -11.209602     6A    -11.208930  
       7A    -11.207032     8A    -11.206867     9A     -1.093332  
      10A     -1.060355    11A     -1.007228    12A     -0.949142  
      13A     -0.883635    14A     -0.828451    15A     -0.781498  
      16A     -0.766929    17A     -0.644328    18A     -0.625342  
      19A     -0.611198    20A     -0.597046    21A     -0.578807  
      22A     -0.557128    23A     -0.548357    24A     -0.526671  
      25A     -0.511916    26A     -0.504278    27A     -0.487724  
      28A     -0.482758    29A     -0.464148    30A     -0.458615  
      31A     -0.444732    32A     -0.439541    33A     -0.432306  

    Virtual:                                                              

      34A      0.029986    35A      0.032697    36A      0.034399  
      37A      0.035310    38A      0.045215    39A      0.047526  
      40A      0.049902    41A      0.053178    42A      0.056435  
      43A      0.065886    44A      0.069711    45A      0.070696  
      46A      0.071466    47A      0.078466    48A      0.088634  
      49A      0.093326    50A      0.098545    51A      0.102055  
      52A      0.114764    53A      0.116165    54A      0.119782  
      55A      0.123799    56A      0.124591    57A      0.127279  
      58A      0.131840    59A      0.135510    60A      0.140541  
      61A      0.146468    62A      0.151454    63A      0.152612  
      64A      0.154917    65A      0.157307    66A      0.161978  
      67A      0.163834    68A      0.166065    69A      0.171786  
      70A      0.172163    71A      0.177465    72A      0.184534  
      73A      0.190126    74A      0.194916    75A      0.196754  
      76A      0.207948    77A      0.216613    78A      0.220770  
      79A      0.230065    80A      0.233449    81A      0.239252  
      82A      0.245174    83A      0.254258    84A      0.258470  
      85A      0.262278    86A      0.269450    87A      0.273685  
      88A      0.277528    89A      0.287675    90A      0.293543  
      91A      0.298985    92A      0.299114    93A      0.310215  
      94A      0.313413    95A      0.317779    96A      0.319752  
      97A      0.324790    98A      0.328154    99A      0.334559  
     100A      0.336166   101A      0.338070   102A      0.345292  
     103A      0.348898   104A      0.351344   105A      0.352881  
     106A      0.358463   107A      0.365800   108A      0.366681  
     109A      0.373647   110A      0.376148   111A      0.377638  
     112A      0.379954   113A      0.385180   114A      0.388625  
     115A      0.394446   116A      0.398404   117A      0.402017  
     118A      0.404299   119A      0.408966   120A      0.411629  
     121A      0.414523   122A      0.415381   123A      0.424035  
     124A      0.426577   125A      0.431548   126A      0.433027  
     127A      0.436655   128A      0.440640   129A      0.443797  
     130A      0.449853   131A      0.454466   132A      0.460391  
     133A      0.463381   134A      0.466526   135A      0.469376  
     136A      0.474634   137A      0.478758   138A      0.480728  
     139A      0.485178   140A      0.487736   141A      0.491548  
     142A      0.493675   143A      0.500529   144A      0.507932  
     145A      0.511680   146A      0.515720   147A      0.516556  
     148A      0.517406   149A      0.524001   150A      0.530376  
     151A      0.534718   152A      0.536558   153A      0.540188  
     154A      0.541183   155A      0.546536   156A      0.553794  
     157A      0.555540   158A      0.557988   159A      0.558920  
     160A      0.564490   161A      0.575539   162A      0.579068  
     163A      0.582735   164A      0.585622   165A      0.590134  
     166A      0.594347   167A      0.597995   168A      0.609820  
     169A      0.615148   170A      0.619876   171A      0.625099  
     172A      0.627949   173A      0.633724   174A      0.637413  
     175A      0.640132   176A      0.647863   177A      0.650534  
     178A      0.654413   179A      0.663349   180A      0.668242  
     181A      0.675478   182A      0.683105   183A      0.685833  
     184A      0.688546   185A      0.695430   186A      0.699588  
     187A      0.707439   188A      0.710390   189A      0.713712  
     190A      0.719945   191A      0.725670   192A      0.735648  
     193A      0.742320   194A      0.744744   195A      0.751630  
     196A      0.758451   197A      0.763688   198A      0.767442  
     199A      0.783299   200A      0.798787   201A      0.800573  
     202A      0.805384   203A      0.818831   204A      0.835266  
     205A      0.836641   206A      0.842754   207A      0.847244  
     208A      0.849911   209A      0.851538   210A      0.856952  
     211A      0.865043   212A      0.866456   213A      0.875063  
     214A      0.879151   215A      0.884095   216A      0.892557  
     217A      0.897321   218A      0.902137   219A      0.907393  
     220A      0.913715   221A      0.917840   222A      0.920697  
     223A      0.925849   224A      0.932481   225A      0.933467  
     226A      0.940131   227A      0.940694   228A      0.948492  
     229A      0.951771   230A      0.960512   231A      0.966166  
     232A      0.970881   233A      0.973624   234A      0.980760  
     235A      0.985672   236A      0.989898   237A      0.993336  
     238A      0.998653   239A      1.005685   240A      1.007449  
     241A      1.012657   242A      1.016876   243A      1.023352  
     244A      1.031208   245A      1.041386   246A      1.043169  
     247A      1.049215   248A      1.054896   249A      1.060342  
     250A      1.067979   251A      1.073986   252A      1.080042  
     253A      1.082585   254A      1.087458   255A      1.090042  
     256A      1.098671   257A      1.104622   258A      1.111529  
     259A      1.113864   260A      1.116265   261A      1.124271  
     262A      1.130432   263A      1.135633   264A      1.137680  
     265A      1.140162   266A      1.147585   267A      1.151668  
     268A      1.152584   269A      1.156786   270A      1.163733  
     271A      1.170626   272A      1.174341   273A      1.177979  
     274A      1.188179   275A      1.196441   276A      1.199687  
     277A      1.204114   278A      1.210331   279A      1.214495  
     280A      1.219198   281A      1.230494   282A      1.239466  
     283A      1.244858   284A      1.246468   285A      1.253550  
     286A      1.254517   287A      1.265941   288A      1.268436  
     289A      1.273934   290A      1.276444   291A      1.277790  
     292A      1.283972   293A      1.289238   294A      1.298163  
     295A      1.303291   296A      1.317398   297A      1.318532  
[...]
	 D(14,12,24,21)   =        -0.969692	     -55.559233
	 D(14,12,24,25)   =        -3.109321	    -178.150945
	 D(14,12,24,26)   =         1.156858	      66.283071
	 D(15,18,21,22)   =        -1.062640	     -60.884788
	 D(15,18,21,23)   =         0.955688	      54.756904
	 D(15,18,21,24)   =         3.099177	     177.569775
	 D(16,15,18,19)   =        -1.665868	     -95.447217
	 D(16,15,18,20)   =         2.595021	     148.683779
	 D(16,15,18,21)   =         0.442139	      25.332702
	 D(17,15,18,19)   =         0.360598	      20.660736
	 D(17,15,18,20)   =        -1.661698	     -95.208268
	 D(17,15,18,21)   =         2.468605	     141.440654
	 D(18,21,24,25)   =         0.939143	      53.808904
	 D(18,21,24,26)   =         2.966080	     169.943875
	 D(19,18,21,22)   =         1.066447	      61.102889
	 D(19,18,21,23)   =         3.084775	     176.744581
	 D(19,18,21,24)   =        -1.054921	     -60.442548
	 D(20,18,21,22)   =         3.080711	     176.511718
	 D(20,18,21,23)   =        -1.184146	     -67.846590
	 D(20,18,21,24)   =         0.959343	      54.966282
	 D(22,21,24,25)   =        -1.168607	     -66.956261
	 D(22,21,24,26)   =         0.858330	      49.178710
	 D(23,21,24,25)   =         3.091714	     177.142166
	 D(23,21,24,26)   =        -1.164534	     -66.722863
	 R(1,21)          =         6.431493	       3.403400

	Current energy   :      -314.9807745049

	Energy change for the previous step:
		Projected    :         0.0000000000
		Actual       :         0.0000000030

	Performing BFGS update.
	Previous computed or guess Hessian on step 1.
	Denominators (dg)(dq) or (dq)(dq) are very small.
	 Skipping Hessian update for step 8.
	Denominators (dg)(dq) or (dq)(dq) are very small.
	 Skipping Hessian update for step 7.
	Denominators (dg)(dq) or (dq)(dq) are very small.
	 Skipping Hessian update for step 6.
	Denominators (dg)(dq) or (dq)(dq) are very small.
	 Skipping Hessian update for step 5.
	Denominators (dg)(dq) or (dq)(dq) are very small.
	 Skipping Hessian update for step 4.
	Denominators (dg)(dq) or (dq)(dq) are very small.
	 Skipping Hessian update for step 3.
	Denominators (dg)(dq) or (dq)(dq) are very small.
	 Skipping Hessian update for step 2.
	Steps to be used in Hessian update: 1
	Taking RFO optimization step.
	Going to follow RFO solution 1.
	Rejecting RFO root 1 because normalization gives large value.
	Rejecting RFO root 2 because normalization gives large value.
	Using RFO vector 3.
	Norm of target step-size    0.00002
	Projected energy change by RFO approximation:        -0.0000000000

	Back-transformation to cartesian coordinates...
	Successfully converged to displaced geometry.

	--- Internal Coordinate Step in ANG or DEG, aJ/ANG or AJ/DEG ---
	 ---------------------------------------------------------------------------
	   Coordinate                Previous        Force       Change         New 
	   ----------                --------       ------       ------       ------
	    1 R(1,2)          =      1.091136    -0.000001     0.000000     1.091136
	    2 R(1,3)          =      1.090077    -0.000002     0.000000     1.090077
	    3 R(1,4)          =      1.089996    -0.000001     0.000000     1.089996
	    4 R(1,9)          =      1.524523    -0.000001    -0.000000     1.524523
	    5 R(5,6)          =      1.089718     0.000001     0.000000     1.089718
	    6 R(5,7)          =      1.090721     0.000001     0.000000     1.090721
	    7 R(5,8)          =      1.090769     0.000001     0.000000     1.090769
	    8 R(5,12)         =      1.523981     0.000002     0.000000     1.523981
	    9 R(9,10)         =      1.092571    -0.000003    -0.000000     1.092571
	   10 R(9,11)         =      1.093589    -0.000003    -0.000000     1.093589
	   11 R(9,15)         =      1.528525    -0.000001    -0.000000     1.528524
	   12 R(12,13)        =      1.091726     0.000003     0.000000     1.091726
	   13 R(12,14)        =      1.093935     0.000003     0.000000     1.093935
	   14 R(12,24)        =      1.525187     0.000001     0.000000     1.525187
	   15 R(15,16)        =      1.094740    -0.000004    -0.000000     1.094740
	   16 R(15,17)        =      1.092020    -0.000003    -0.000000     1.092020
	   17 R(15,18)        =      1.535605     0.000001    -0.000000     1.535605
	   18 R(18,19)        =      1.093382    -0.000001    -0.000000     1.093382
	   19 R(18,20)        =      1.093630    -0.000001     0.000000     1.093630
	   20 R(18,21)        =      1.527634     0.000003     0.000000     1.527634
	   21 R(21,22)        =      1.093742    -0.000000     0.000000     1.093742
	   22 R(21,23)        =      1.092832     0.000003    -0.000000     1.092832
	   23 R(21,24)        =      1.526442     0.000003     0.000000     1.526442
	   24 R(24,25)        =      1.095249     0.000004    -0.000000     1.095249
	   25 R(24,26)        =      1.093992     0.000002     0.000000     1.093992
	   26 B(1,9,10)       =    109.232638     0.000000     0.000011   109.232649
	   27 B(1,9,11)       =    109.181388     0.000000    -0.000038   109.181350
	   28 B(1,9,15)       =    114.231687    -0.000000    -0.000028   114.231659
	   29 B(2,1,3)        =    107.894957     0.000000    -0.000009   107.894949
	   30 B(2,1,4)        =    107.921777    -0.000000    -0.000006   107.921772
	   31 B(2,1,9)        =    110.943438     0.000000     0.000026   110.943465
	   32 B(3,1,4)        =    107.583575    -0.000000    -0.000002   107.583573
	   33 B(3,1,9)        =    111.410331    -0.000000    -0.000014   111.410318
	   34 B(4,1,9)        =    110.930231     0.000000     0.000003   110.930234
	   35 B(5,12,13)      =    109.348255     0.000000    -0.000001   109.348254
	   36 B(5,12,14)      =    109.747159     0.000000    -0.000005   109.747154
	   37 B(5,12,24)      =    112.103361    -0.000000    -0.000000   112.103360
	   38 B(6,5,7)        =    107.960513    -0.000000     0.000002   107.960515
	   39 B(6,5,8)        =    107.908795    -0.000000    -0.000000   107.908795
	   40 B(6,5,12)       =    111.692977    -0.000000     0.000006   111.692983
	   41 B(7,5,8)        =    107.688652    -0.000000    -0.000004   107.688647
	   42 B(7,5,12)       =    110.759525     0.000000     0.000004   110.759529
	   43 B(8,5,12)       =    110.678109     0.000000    -0.000008   110.678101
	   44 B(9,15,16)      =    109.371560    -0.000000    -0.000004   109.371556
	   45 B(9,15,17)      =    108.098476     0.000000     0.000030   108.098506
	   46 B(9,15,18)      =    113.908982     0.000000    -0.000020   113.908962
	   47 B(10,9,11)      =    106.404781    -0.000000    -0.000002   106.404778
	   48 B(10,9,15)      =    108.928670     0.000000     0.000060   108.928729
	   49 B(11,9,15)      =    108.570223     0.000000    -0.000001   108.570223
	   50 B(12,24,21)     =    113.792987     0.000000     0.000050   113.793038
	   51 B(12,24,25)     =    109.232044    -0.000000     0.000003   109.232047
	   52 B(12,24,26)     =    108.446483    -0.000000    -0.000017   108.446466
	   53 B(13,12,14)     =    106.574485    -0.000000    -0.000009   106.574477
	   54 B(13,12,24)     =    110.014799     0.000000     0.000012   110.014812
	   55 B(14,12,24)     =    108.898282     0.000000     0.000002   108.898284
	   56 B(15,18,19)     =    109.878677    -0.000000    -0.000011   109.878666
	   57 B(15,18,20)     =    108.900253     0.000000     0.000040   108.900293
	   58 B(15,18,21)     =    113.668037     0.000000     0.000026   113.668062
	   59 B(16,15,17)     =    106.287506    -0.000000    -0.000005   106.287501
	   60 B(16,15,18)     =    109.219808     0.000000     0.000000   109.219808
	   61 B(17,15,18)     =    109.672988    -0.000000     0.000001   109.672989
	   62 B(18,21,22)     =    108.002308    -0.000000    -0.000034   108.002274
	   63 B(18,21,23)     =    110.121488    -0.000000     0.000013   110.121501
	   64 B(18,21,24)     =    113.614572     0.000000     0.000028   113.614600
	   65 B(19,18,20)     =    106.143947     0.000000    -0.000015   106.143932
	   66 B(19,18,21)     =    107.714226    -0.000000    -0.000004   107.714222
	   67 B(20,18,21)     =    110.263784    -0.000000    -0.000039   110.263745
	   68 B(21,24,25)     =    109.419003    -0.000000    -0.000023   109.418980
	   69 B(21,24,26)     =    109.286134    -0.000000    -0.000009   109.286125
	   70 B(22,21,23)     =    106.267286     0.000000    -0.000025   106.267262
	   71 B(22,21,24)     =    109.395961    -0.000000    -0.000023   109.395937
	   72 B(23,21,24)     =    109.172247     0.000000     0.000036   109.172283
	   73 B(25,24,26)     =    106.397762     0.000000    -0.000007   106.397755
	   74 D(1,9,15,16)    =    -63.446343    -0.000000    -0.000044   -63.446387
	   75 D(1,9,15,17)    =   -178.766211    -0.000000    -0.000052  -178.766263
	   76 D(1,9,15,18)    =     59.072316     0.000000    -0.000062    59.072254
	   77 D(2,1,9,10)     =    -65.149969    -0.000000     0.000157   -65.149811
	   78 D(2,1,9,11)     =    178.869748    -0.000000     0.000175   178.869923
	   79 D(2,1,9,15)     =     57.111490     0.000000     0.000223    57.111713
	   80 D(3,1,9,10)     =    174.620338    -0.000000     0.000160   174.620498
	   81 D(3,1,9,11)     =     58.640055    -0.000000     0.000177    58.640232
	   82 D(3,1,9,15)     =    -63.118203     0.000000     0.000226   -63.117978
	   83 D(4,1,9,10)     =     54.793505     0.000000     0.000170    54.793675
	   84 D(4,1,9,11)     =    -61.186778     0.000000     0.000187   -61.186591
	   85 D(4,1,9,15)     =    177.054964     0.000000     0.000236   177.055199
	   86 D(5,12,24,21)   =   -177.192681     0.000000    -0.000029  -177.192709
	   87 D(5,12,24,25)   =     60.215608    -0.000000    -0.000036    60.215572
	   88 D(5,12,24,26)   =    -55.350377     0.000000    -0.000020   -55.350396
	   89 D(6,5,12,13)    =    -57.815128     0.000000    -0.000004   -57.815131
	   90 D(6,5,12,14)    =     58.754187    -0.000000    -0.000017    58.754170
	   91 D(6,5,12,24)    =    179.899798     0.000000    -0.000019   179.899780
	   92 D(7,5,12,13)    =   -178.192804     0.000000    -0.000013  -178.192817
	   93 D(7,5,12,14)    =    -61.623489    -0.000000    -0.000027   -61.623516
	   94 D(7,5,12,24)    =     59.522122    -0.000000    -0.000028    59.522094
	   95 D(8,5,12,13)    =     62.441436     0.000000    -0.000005    62.441431
	   96 D(8,5,12,14)    =    179.010751    -0.000000    -0.000019   179.010732
	   97 D(8,5,12,24)    =    -59.843638    -0.000000    -0.000020   -59.843658
	   98 D(9,15,18,19)   =    141.950920    -0.000000    -0.000107   141.950813
	   99 D(9,15,18,20)   =     26.081916    -0.000000    -0.000105    26.081811
	  100 D(9,15,18,21)   =    -97.269161    -0.000000    -0.000103   -97.269265
	  101 D(10,9,15,16)   =     58.981151    -0.000000    -0.000005    58.981146
	  102 D(10,9,15,17)   =    -56.338718    -0.000000    -0.000012   -56.338730
	  103 D(10,9,15,18)   =   -178.500191     0.000000    -0.000022  -178.500213
	  104 D(11,9,15,16)   =    174.460027     0.000000     0.000024   174.460051
	  105 D(11,9,15,17)   =     59.140158     0.000000     0.000017    59.140175
	  106 D(11,9,15,18)   =    -63.021315     0.000000     0.000007   -63.021308
	  107 D(12,24,21,18)  =    -68.680050    -0.000000    -0.000053   -68.680103
	  108 D(12,24,21,22)  =    170.554785    -0.000000    -0.000011   170.554774
	  109 D(12,24,21,23)  =     54.653213     0.000000     0.000011    54.653224
	  110 D(13,12,24,21)  =     60.902388     0.000000    -0.000036    60.902351
	  111 D(13,12,24,25)  =    -61.689324    -0.000000    -0.000043   -61.689367
	  112 D(13,12,24,26)  =   -177.255308     0.000000    -0.000027  -177.255335
	  113 D(14,12,24,21)  =    -55.559233     0.000000    -0.000034   -55.559267
	  114 D(14,12,24,25)  =   -178.150945    -0.000000    -0.000041  -178.150986
	  115 D(14,12,24,26)  =     66.283071    -0.000000    -0.000025    66.283046
	  116 D(15,18,21,22)  =    -60.884788     0.000000     0.000174   -60.884614
	  117 D(15,18,21,23)  =     54.756904    -0.000000     0.000132    54.757036
	  118 D(15,18,21,24)  =    177.569775     0.000000     0.000210   177.569985
	  119 D(16,15,18,19)  =    -95.447217    -0.000000    -0.000126   -95.447343
	  120 D(16,15,18,20)  =    148.683779    -0.000000    -0.000125   148.683654
	  121 D(16,15,18,21)  =     25.332702     0.000000    -0.000123    25.332579
	  122 D(17,15,18,19)  =     20.660736    -0.000000    -0.000132    20.660603
	  123 D(17,15,18,20)  =    -95.208268    -0.000000    -0.000131   -95.208399
	  124 D(17,15,18,21)  =    141.440654    -0.000000    -0.000129   141.440526
	  125 D(18,21,24,25)  =     53.808904     0.000000    -0.000031    53.808873
	  126 D(18,21,24,26)  =    169.943875    -0.000000    -0.000058   169.943817
	  127 D(19,18,21,22)  =     61.102889     0.000000     0.000173    61.103062
	  128 D(19,18,21,23)  =    176.744581    -0.000000     0.000131   176.744712
	  129 D(19,18,21,24)  =    -60.442548     0.000000     0.000209   -60.442339
	  130 D(20,18,21,22)  =    176.511718    -0.000000     0.000132   176.511851
	  131 D(20,18,21,23)  =    -67.846590    -0.000000     0.000090   -67.846499
	  132 D(20,18,21,24)  =     54.966282    -0.000000     0.000168    54.966450
	  133 D(22,21,24,25)  =    -66.956261     0.000000     0.000011   -66.956250
	  134 D(22,21,24,26)  =     49.178710    -0.000000    -0.000016    49.178694
	  135 D(23,21,24,25)  =    177.142166     0.000000     0.000033   177.142199
	  136 D(23,21,24,26)  =    -66.722863     0.000000     0.000006   -66.722857
	  137 R(1,21)         =      3.403400    -0.000000     0.000000     3.403400
	 ---------------------------------------------------------------------------

  ==> Convergence Check <==

  Measures of convergence in internal coordinates in au.
  Criteria marked as inactive (o), active & met (*), and active & unmet ( ).
  ---------------------------------------------------------------------------------------------
   Step     Total Energy     Delta E     MAX Force     RMS Force      MAX Disp      RMS Disp   
  ---------------------------------------------------------------------------------------------
    Convergence Criteria             o    2.00e-06 *    1.00e-06 *    6.00e-06 *    4.00e-06 *
  ---------------------------------------------------------------------------------------------
      9    -314.98077450    2.98e-09 o    5.13e-07 *    1.31e-07 *    4.11e-06 *    1.30e-06 *  ~
  ---------------------------------------------------------------------------------------------


  **** Optimization is complete! (in 9 steps) ****

  ==> Optimization Summary <==

  Measures of convergence in internal coordinates in au.
  --------------------------------------------------------------------------------------------------------------- ~
   Step         Total Energy             Delta E       MAX Force       RMS Force        MAX Disp        RMS Disp  ~
  --------------------------------------------------------------------------------------------------------------- ~
      1    -314.980774509136   -314.980774509136      0.00000056      0.00000012      0.00001297      0.00000508  ~
      2    -314.980774506566      0.000000002570      0.00000092      0.00000025      0.00001208      0.00000409  ~
      3    -314.980774505768      0.000000000798      0.00000184      0.00000038      0.00002021      0.00000691  ~
      4    -314.980774502092      0.000000003676      0.00000157      0.00000035      0.00001591      0.00000580  ~
      5    -314.980774504812     -0.000000002720      0.00000128      0.00000029      0.00001657      0.00000521  ~
      6    -314.980774509575     -0.000000004763      0.00000232      0.00000052      0.00002836      0.00001144  ~
      7    -314.980774505674      0.000000003901      0.00000484      0.00000095      0.00002944      0.00001174  ~
      8    -314.980774507868     -0.000000002193      0.00000071      0.00000017      0.00000790      0.00000300  ~
      9    -314.980774504888      0.000000002980      0.00000051      0.00000013      0.00000411      0.00000130  ~
  --------------------------------------------------------------------------------------------------------------- ~

	Writing optimization data to binary file.
	Final energy is   -314.9807745048881
	Final (previous) structure:
	Cartesian Geometry (in Angstrom)
	    C     2.2089577739  -1.5676686315  -0.5985367467
	    H     2.2528805389  -1.2582914152  -1.6439718218
	    H     1.1645663265  -1.7540319682  -0.3479731868
	    H     2.7435922033  -2.5129980448  -0.5057534461
	    C    -3.6637517951  -0.5706703713   0.4950890947
	    H    -3.9742999788  -1.5009436874   0.9701019361
	    H    -4.2080060239  -0.4751828071  -0.4453054106
	    H    -3.9697535669   0.2538455327   1.1403129521
	    C     2.8183357356  -0.5059082120   0.3100307359
	    H     3.8853843931  -0.4159842810   0.0931609311
	    H     2.7412213731  -0.8355667462   1.3498937701
	    C    -2.1592942257  -0.5359170368   0.2544299644
	    H    -1.6378834138  -0.6652649047   1.2048328540
	    H    -1.8667814470  -1.3783492147  -0.3791620485
	    C     2.1694588911   0.8725713327   0.1869838132
	    H     2.3260232092   1.2585409529  -0.8254244760
	    H     2.6931590982   1.5552728840   0.8594155414
	    C     0.6673319778   0.8840390312   0.5056787261
	    H     0.4089627200   1.7985707513   1.0463831042
	    H     0.4427625885   0.0560395356   1.1839206553
	    C    -0.2230408827   0.8093721614  -0.7334036892
	    H    -0.0128493926   1.6851570650  -1.3539611860
	    H     0.0427241283  -0.0632003846  -1.3352902892
	    C    -1.7146213632   0.7616065180  -0.4125740913
	    H    -1.9754684942   1.6069783078   0.2330852966
	    H    -2.2871159153   0.8900466852  -1.3359216458
	Saving final (previous) structure.
			--------------------------
			 OPTKING Finished Execution 
			--------------------------

    Final optimized geometry and variables:
    Molecular point group: c1
    Full point group: C1

    Geometry (in Angstrom), charge = 0, multiplicity = 1:

    C            2.208957773921    -1.567668631529    -0.598536746742
    H            2.252880538948    -1.258291415215    -1.643971821801
    H            1.164566326495    -1.754031968168    -0.347973186779
    H            2.743592203326    -2.512998044785    -0.505753446069
    C           -3.663751795076    -0.570670371278     0.495089094680
    H           -3.974299978842    -1.500943687397     0.970101936122
    H           -4.208006023869    -0.475182807141    -0.445305410561
    H           -3.969753566871     0.253845532659     1.140312952132
    C            2.818335735648    -0.505908212007     0.310030735926
    H            3.885384393067    -0.415984280978     0.093160931082
    H            2.741221373092    -0.835566746176     1.349893770078
    C           -2.159294225675    -0.535917036779     0.254429964410
    H           -1.637883413792    -0.665264904734     1.204832854005
    H           -1.866781447047    -1.378349214669    -0.379162048538
    C            2.169458891121     0.872571332678     0.186983813200
    H            2.326023209156     1.258540952889    -0.825424476015
    H            2.693159098166     1.555272884018     0.859415541370
    C            0.667331977807     0.884039031247     0.505678726094
    H            0.408962720039     1.798570751323     1.046383104194
    H            0.442762588480     0.056039535576     1.183920655261
    C           -0.223040882683     0.809372161393    -0.733403689174
    H           -0.012849392638     1.685157064972    -1.353961185980
    H            0.042724128269    -0.063200384567    -1.335290289173
    C           -1.714621363237     0.761606518049    -0.412574091331
    H           -1.975468494185     1.606978307812     0.233085296552
    H           -2.287115915297     0.890046685181    -1.335921645808

	Cleaning optimization helper files.

*** Psi4 exiting successfully. Buy a developer a beer!
