    -----------------------------------------------------------------------
          Psi4: An Open-Source Ab Initio Electronic Structure Package
                              Psi4 1.0.0 Driver

                          Git: Rev {master} 6a9a71b dirty

    J. M. Turney, A. C. Simmonett, R. M. Parrish, E. G. Hohenstein,
    F. A. Evangelista, J. T. Fermann, B. J. Mintz, L. A. Burns, J. J. Wilke,
    M. L. Abrams, N. J. Russ, M. L. Leininger, C. L. Janssen, E. T. Seidl,
    W. D. Allen, H. F. Schaefer, R. A. King, E. F. Valeev, C. D. Sherrill,
    and T. D. Crawford, WIREs Comput. Mol. Sci. 2, 556-565 (2012)
    (doi: 10.1002/wcms.93)

                         Additional Contributions by
    A. E. DePrince, U. Bozkaya, A. Yu. Sokolov, D. G. A. Smith, R. Di Remigio,
    R. M. Richard, J. F. Gonthier, H. R. McAlexander, M. Saitow, and
    B. P. Pritchard
    -----------------------------------------------------------------------


    Psi4 started on: Tue Sep 20 22:40:02 2016

    Process ID:   3986
    PSI4DATADIR: /usr/local/hpc5/psi4conda/share/psi4
    Memory level set to 256.000 MB

  ==> Input File <==

--------------------------------------------------------------------------
memory 60 Gb

molecule molecule_28_psi {
0 1
C           -3.370513258808     1.060194064633     0.027585483087
H           -4.355979353959     1.012356881779    -0.435098056467
H           -2.888733838473     1.981083276446    -0.303464504270
H           -3.509724418757     1.128559505103     1.107222289794
C            2.062991087480     1.679417010997     0.451670730402
H            1.977285601513     2.714026716590     0.119582955485
H            3.005097287693     1.578519130815     0.993229112999
H            1.254349866486     1.490351071443     1.156905820673
C           -2.520145963759    -0.152285873413    -0.330959335356
H           -2.411376816133    -0.219097216159    -1.416919014783
H           -3.027410789330    -1.067612175156    -0.014104574345
C            2.020280224765     0.714678340213    -0.727926092307
H            1.081158626507     0.829754747545    -1.274232572076
H            2.812391020193     0.978731325830    -1.432568156061
C           -1.137176988613    -0.100855960093     0.305660483278
H           -1.243847137404    -0.033348430592     1.393547046411
H           -0.634050284349     0.815410605625    -0.010930466238
C           -0.287786290374    -1.323074683377    -0.031846781527
H           -0.202285653964    -1.416534860486    -1.119982153389
H           -0.833179831033    -2.208640753072     0.305638597527
C            1.115700292918    -1.321818217013     0.588971532150
H            1.090710252411    -0.784944025424     1.541321211201
H            1.401959705978    -2.347692140589     0.831105438179
C            2.205007849660    -0.744712680419    -0.317386922227
H            3.172296608023    -0.844474514564     0.184830510209
H            2.259288049014    -1.362512043247    -1.218501993097
}

set globals {
  reference rhf
  g_convergence gau_verytight
  basis aug-cc-pvtz
  freeze_core true
  scf_type df
  mp_type df
}
optimize('mp2')
--------------------------------------------------------------------------
/usr/local/hpc5/psi4conda/lib/python2.7/site-packages/v2rdm_casscf/v2rdm_casscf.so loaded.

  Memory set to  60.000 GiB by Python script.
gradient() will perform analytic gradient computation.

*** tstart() called on wr31
*** at Tue Sep 20 22:40:03 2016


         ---------------------------------------------------------
                                   SCF
            by Justin Turney, Rob Parrish, and Andy Simmonett
                              RHF Reference
                       12 Threads,  60000 MiB Core
         ---------------------------------------------------------

  ==> Geometry <==

    Molecular point group: c1
    Full point group: C1

    Geometry (in Angstrom), charge = 0, multiplicity = 1:

       Center              X                  Y                   Z               Mass       
    ------------   -----------------  -----------------  -----------------  -----------------
           C         -3.370513258808     1.060194064633     0.027585483087    12.000000000000
           H         -4.355979353959     1.012356881779    -0.435098056467     1.007825032070
           H         -2.888733838473     1.981083276446    -0.303464504270     1.007825032070
           H         -3.509724418757     1.128559505103     1.107222289794     1.007825032070
           C          2.062991087480     1.679417010997     0.451670730402    12.000000000000
           H          1.977285601513     2.714026716590     0.119582955485     1.007825032070
           H          3.005097287693     1.578519130815     0.993229112999     1.007825032070
           H          1.254349866486     1.490351071443     1.156905820673     1.007825032070
           C         -2.520145963759    -0.152285873413    -0.330959335356    12.000000000000
           H         -2.411376816133    -0.219097216159    -1.416919014783     1.007825032070
           H         -3.027410789330    -1.067612175156    -0.014104574345     1.007825032070
           C          2.020280224765     0.714678340213    -0.727926092307    12.000000000000
           H          1.081158626507     0.829754747545    -1.274232572076     1.007825032070
           H          2.812391020193     0.978731325830    -1.432568156061     1.007825032070
           C         -1.137176988613    -0.100855960093     0.305660483278    12.000000000000
           H         -1.243847137404    -0.033348430592     1.393547046411     1.007825032070
           H         -0.634050284349     0.815410605625    -0.010930466238     1.007825032070
           C         -0.287786290374    -1.323074683377    -0.031846781527    12.000000000000
           H         -0.202285653964    -1.416534860486    -1.119982153389     1.007825032070
           H         -0.833179831033    -2.208640753072     0.305638597527     1.007825032070
           C          1.115700292918    -1.321818217013     0.588971532150    12.000000000000
           H          1.090710252411    -0.784944025424     1.541321211201     1.007825032070
           H          1.401959705978    -2.347692140589     0.831105438179     1.007825032070
           C          2.205007849660    -0.744712680419    -0.317386922227    12.000000000000
           H          3.172296608023    -0.844474514564     0.184830510209     1.007825032070
           H          2.259288049014    -1.362512043247    -1.218501993097     1.007825032070

  Running in c1 symmetry.

  Rotational constants: A =      0.09699  B =      0.03139  C =      0.02623 [cm^-1]
  Rotational constants: A =   2907.59513  B =    941.02900  C =    786.48964 [MHz]
  Nuclear repulsion =  399.172853597838241

  Charge       = 0
  Multiplicity = 1
  Electrons    = 66
  Nalpha       = 33
  Nbeta        = 33

  ==> Algorithm <==

  SCF Algorithm Type is DF.
  DIIS enabled.
  MOM disabled.
  Fractional occupation disabled.
  Guess Type is SAD.
  Energy threshold   = 1.00e-10
  Density threshold  = 1.00e-10
  Integral threshold = 0.00e+00

  ==> Primary Basis <==

  Basis Set: AUG-CC-PVTZ
    Number of shells: 274
    Number of basis function: 782
    Number of Cartesian functions: 890
    Spherical Harmonics?: true
    Max angular momentum: 3

  ==> Pre-Iterations <==

   -------------------------------------------------------
    Irrep   Nso     Nmo     Nalpha   Nbeta   Ndocc  Nsocc
   -------------------------------------------------------
     A        782     782       0       0       0       0
   -------------------------------------------------------
    Total     782     782      33      33      33       0
   -------------------------------------------------------

  ==> Integral Setup <==

  ==> DFJK: Density-Fitted J/K Matrices <==

    J tasked:                  Yes
    K tasked:                  Yes
    wK tasked:                  No
    OpenMP threads:             12
    Integrals threads:          12
    Memory (MB):             42915
    Algorithm:                Core
    Integral Cache:           NONE
    Schwarz Cutoff:          1E-12
    Fitting Condition:       1E-12

   => Auxiliary Basis Set <=

  Basis Set: 
    Number of shells: 492
    Number of basis function: 1660
    Number of Cartesian functions: 2038
    Spherical Harmonics?: true
    Max angular momentum: 4

  Minimum eigenvalue in the overlap matrix is 1.5691141239E-06.
  Using Symmetric Orthogonalization.
  SCF Guess: Superposition of Atomic Densities via on-the-fly atomic UHF.

  ==> Iterations <==

                           Total Energy        Delta E     RMS |[F,P]|

   @DF-RHF iter   0:  -317.05847370156829   -3.17058e+02   7.04327e-03 
   @DF-RHF iter   1:  -313.29948082474988    3.75899e+00   7.14588e-04 
   @DF-RHF iter   2:  -313.50970813453347   -2.10227e-01   2.50288e-04 DIIS
   @DF-RHF iter   3:  -313.53403303560464   -2.43249e-02   9.60765e-05 DIIS
   @DF-RHF iter   4:  -313.53849421423735   -4.46118e-03   1.66615e-05 DIIS
   @DF-RHF iter   5:  -313.53867678383750   -1.82570e-04   4.41761e-06 DIIS
   @DF-RHF iter   6:  -313.53868866643933   -1.18826e-05   1.42181e-06 DIIS
   @DF-RHF iter   7:  -313.53868982721320   -1.16077e-06   3.01637e-07 DIIS
   @DF-RHF iter   8:  -313.53868989179460   -6.45814e-08   7.40311e-08 DIIS
   @DF-RHF iter   9:  -313.53868989553399   -3.73939e-09   2.17447e-08 DIIS
   @DF-RHF iter  10:  -313.53868989581423   -2.80238e-10   6.88929e-09 DIIS
   @DF-RHF iter  11:  -313.53868989584424   -3.00133e-11   1.52727e-09 DIIS
   @DF-RHF iter  12:  -313.53868989584481   -5.68434e-13   3.89394e-10 DIIS
   @DF-RHF iter  13:  -313.53868989584481    0.00000e+00   1.19103e-10 DIIS
   @DF-RHF iter  14:  -313.53868989584561   -7.95808e-13   3.22813e-11 DIIS

  ==> Post-Iterations <==

    Orbital Energies (a.u.)
    -----------------------

    Doubly Occupied:                                                      

       1A    -11.212447     2A    -11.212353     3A    -11.211047  
       4A    -11.210690     5A    -11.209901     6A    -11.209272  
       7A    -11.207248     8A    -11.206451     9A     -1.093773  
      10A     -1.059620    11A     -1.008135    12A     -0.949965  
      13A     -0.884341    14A     -0.827765    15A     -0.788738  
      16A     -0.756769    17A     -0.654852    18A     -0.625157  
      19A     -0.617244    20A     -0.582231    21A     -0.571545  
      22A     -0.565233    23A     -0.542899    24A     -0.530311  
      25A     -0.527309    26A     -0.493140    27A     -0.488160  
      28A     -0.475524    29A     -0.466213    30A     -0.463117  
      31A     -0.448450    32A     -0.439257    33A     -0.430828  

    Virtual:                                                              

      34A      0.028446    35A      0.032551    36A      0.034438  
      37A      0.035139    38A      0.046670    39A      0.048324  
      40A      0.049546    41A      0.053680    42A      0.056342  
      43A      0.066504    44A      0.068842    45A      0.070566  
      46A      0.075685    47A      0.079423    48A      0.080576  
      49A      0.092478    50A      0.096280    51A      0.102459  
      52A      0.113362    53A      0.116593    54A      0.121187  
      55A      0.122505    56A      0.126320    57A      0.128099  
      58A      0.136490    59A      0.137724    60A      0.139881  
      61A      0.143309    62A      0.148555    63A      0.151023  
      64A      0.156219    65A      0.157675    66A      0.162205  
      67A      0.165961    68A      0.170415    69A      0.171334  
      70A      0.174824    71A      0.179039    72A      0.182081  
      73A      0.186781    74A      0.192169    75A      0.204772  
      76A      0.209048    77A      0.211221    78A      0.217908  
      79A      0.224773    80A      0.234490    81A      0.237784  
      82A      0.242929    83A      0.259185    84A      0.260358  
      85A      0.265111    86A      0.268403    87A      0.273296  
      88A      0.276552    89A      0.289471    90A      0.294004  
      91A      0.303050    92A      0.304446    93A      0.307025  
      94A      0.312093    95A      0.319397    96A      0.324157  
      97A      0.327409    98A      0.328914    99A      0.332473  
     100A      0.334342   101A      0.340676   102A      0.345087  
     103A      0.348221   104A      0.357017   105A      0.358432  
     106A      0.361184   107A      0.363867   108A      0.365963  
     109A      0.371994   110A      0.374112   111A      0.377014  
     112A      0.381382   113A      0.381999   114A      0.385605  
     115A      0.390945   116A      0.399253   117A      0.402195  
     118A      0.403315   119A      0.410346   120A      0.411341  
     121A      0.414504   122A      0.417873   123A      0.421840  
     124A      0.426838   125A      0.433904   126A      0.438395  
     127A      0.438974   128A      0.448402   129A      0.451668  
     130A      0.452828   131A      0.455819   132A      0.459986  
     133A      0.463782   134A      0.464878   135A      0.470964  
     136A      0.475262   137A      0.478263   138A      0.480673  
     139A      0.485335   140A      0.489895   141A      0.492104  
     142A      0.493751   143A      0.500895   144A      0.506745  
     145A      0.508189   146A      0.514631   147A      0.516049  
     148A      0.519270   149A      0.527951   150A      0.529899  
     151A      0.537471   152A      0.540824   153A      0.541250  
     154A      0.546217   155A      0.548769   156A      0.552390  
     157A      0.555899   158A      0.560572   159A      0.568839  
     160A      0.574868   161A      0.578870   162A      0.582366  
     163A      0.584471   164A      0.588867   165A      0.596326  
     166A      0.601790   167A      0.607985   168A      0.609748  
     169A      0.613858   170A      0.617315   171A      0.626850  
     172A      0.629176   173A      0.634720   174A      0.639841  
     175A      0.644521   176A      0.647443   177A      0.655986  
     178A      0.659781   179A      0.663707   180A      0.666087  
     181A      0.675172   182A      0.677744   183A      0.682011  
     184A      0.686964   185A      0.690334   186A      0.700343  
     187A      0.707849   188A      0.712923   189A      0.718374  
     190A      0.721242   191A      0.728309   192A      0.730062  
     193A      0.737437   194A      0.739230   195A      0.745825  
     196A      0.759344   197A      0.763659   198A      0.773317  
     199A      0.781835   200A      0.787539   201A      0.799357  
     202A      0.810474   203A      0.823184   204A      0.826173  
     205A      0.833006   206A      0.835618   207A      0.844837  
     208A      0.848880   209A      0.860068   210A      0.864013  
     211A      0.868276   212A      0.869655   213A      0.871222  
     214A      0.881603   215A      0.889589   216A      0.897345  
     217A      0.904828   218A      0.908410   219A      0.914660  
     220A      0.918001   221A      0.923912   222A      0.926161  
     223A      0.931821   224A      0.934347   225A      0.942042  
     226A      0.945450   227A      0.949897   228A      0.952024  
     229A      0.957231   230A      0.963185   231A      0.969040  
     232A      0.971714   233A      0.976975   234A      0.982842  
     235A      0.985947   236A      0.989159   237A      1.001653  
     238A      1.003132   239A      1.006950   240A      1.011971  
     241A      1.014141   242A      1.020622   243A      1.029590  
     244A      1.032759   245A      1.037321   246A      1.045992  
     247A      1.048076   248A      1.055523   249A      1.060342  
     250A      1.066020   251A      1.071656   252A      1.076569  
     253A      1.081150   254A      1.088180   255A      1.098394  
     256A      1.101932   257A      1.104004   258A      1.107830  
     259A      1.116068   260A      1.119479   261A      1.122795  
     262A      1.126062   263A      1.137481   264A      1.139772  
     265A      1.144523   266A      1.151784   267A      1.157884  
     268A      1.167212   269A      1.174633   270A      1.180724  
     271A      1.184813   272A      1.192175   273A      1.193968  
     274A      1.197602   275A      1.200743   276A      1.206046  
     277A      1.212389   278A      1.216247   279A      1.222606  
     280A      1.225808   281A      1.230984   282A      1.233274  
     283A      1.241742   284A      1.249748   285A      1.250882  
     286A      1.258077   287A      1.268821   288A      1.271288  
     289A      1.276650   290A      1.282949   291A      1.286874  
     292A      1.293703   293A      1.294350   294A      1.301890  
     295A      1.308661   296A      1.315119   297A      1.316702  
     298A      1.332019   299A      1.334953   300A      1.336794  
     301A      1.338213   302A      1.349572   303A      1.353462  
     304A      1.356736   305A      1.364287   306A      1.374337  
     307A      1.386840   308A      1.393192   309A      1.396874  
     310A      1.407939   311A      1.415303   312A      1.423782  
     313A      1.429810   314A      1.436890   315A      1.443538  
     316A      1.448681   317A      1.461125   318A      1.470794  
     319A      1.472899   320A      1.474801   321A      1.487135  
     322A      1.491897   323A      1.504845   324A      1.509321  
     325A      1.516985   326A      1.525116   327A      1.534137  
     328A      1.537735   329A      1.549145   330A      1.551510  
     331A      1.558225   332A      1.563434   333A      1.565556  
     334A      1.575364   335A      1.578413   336A      1.584159  
     337A      1.589981   338A      1.608003   339A      1.619569  
     340A      1.621004   341A      1.625130   342A      1.633259  
     343A      1.639875   344A      1.648097   345A      1.651675  
     346A      1.656736   347A      1.666372   348A      1.674945  
     349A      1.679987   350A      1.681662   351A      1.690791  
     352A      1.698831   353A      1.707115   354A      1.711977  
     355A      1.718289   356A      1.724924   357A      1.726334  
     358A      1.736185   359A      1.740790   360A      1.750064  
     361A      1.758608   362A      1.768066   363A      1.770489  
     364A      1.772588   365A      1.790726   366A      1.794159  
     367A      1.797881   368A      1.800830   369A      1.804881  
     370A      1.810864   371A      1.815820   372A      1.826093  
     373A      1.829402   374A      1.833366   375A      1.843119  
     376A      1.844419   377A      1.852427   378A      1.855912  
     379A      1.861297   380A      1.868459   381A      1.875082  
     382A      1.878430   383A      1.887939   384A      1.895836  
     385A      1.899122   386A      1.908609   387A      1.916286  
     388A      1.919009   389A      1.923943   390A      1.932493  
     391A      1.941516   392A      1.946682   393A      1.961952  
     394A      1.966364   395A      1.978133   396A      1.982080  
     397A      1.989879   398A      1.992802   399A      1.998723  
     400A      2.000489   401A      2.010040   402A      2.015476  
     403A      2.021609   404A      2.030469   405A      2.033429  
     406A      2.037695   407A      2.048034   408A      2.058230  
     409A      2.063075   410A      2.067181   411A      2.072621  
     412A      2.087598   413A      2.092735   414A      2.096795  
     415A      2.107040   416A      2.116372   417A      2.123427  
     418A      2.127474   419A      2.131954   420A      2.148603  
     421A      2.157866   422A      2.171272   423A      2.181347  
     424A      2.189965   425A      2.196775   426A      2.206316  
     427A      2.213556   428A      2.224397   429A      2.228409  
     430A      2.232580   431A      2.249360   432A      2.254634  
     433A      2.272098   434A      2.281516   435A      2.282706  
     436A      2.289438   437A      2.292107   438A      2.295104  
     439A      2.315009   440A      2.329494   441A      2.332461  
     442A      2.345224   443A      2.352480   444A      2.356345  
     445A      2.364073   446A      2.371779   447A      2.378470  
     448A      2.393382   449A      2.396469   450A      2.400761  
     451A      2.414350   452A      2.425229   453A      2.427480  
     454A      2.435061   455A      2.441727   456A      2.455266  
     457A      2.462938   458A      2.478251   459A      2.479948  
     460A      2.494229   461A      2.500035   462A      2.519692  
     463A      2.533250   464A      2.537922   465A      2.558266  
     466A      2.560010   467A      2.579396   468A      2.600738  
     469A      2.602982   470A      2.617850   471A      2.630862  
     472A      2.633859   473A      2.652716   474A      2.659819  
     475A      2.675132   476A      2.687108   477A      2.706958  
     478A      2.729391   479A      2.743274   480A      2.766768  
     481A      2.781842   482A      2.810760   483A      2.837859  
     484A      2.897110   485A      2.930198   486A      2.964924  
     487A      2.993966   488A      3.008937   489A      3.106001  
     490A      3.123241   491A      3.169518   492A      3.256599  
     493A      3.281268   494A      3.299790   495A      3.356170  
     496A      3.398400   497A      3.426865   498A      3.450064  
     499A      3.465435   500A      3.471013   501A      3.489683  
     502A      3.512111   503A      3.521754   504A      3.531718  
     505A      3.538910   506A      3.540752   507A      3.561893  
     508A      3.573775   509A      3.578509   510A      3.588550  
     511A      3.599096   512A      3.621848   513A      3.643178  
     514A      3.653197   515A      3.656014   516A      3.673231  
     517A      3.681587   518A      3.689131   519A      3.690073  
     520A      3.710594   521A      3.715893   522A      3.718002  
     523A      3.727112   524A      3.733904   525A      3.755749  
     526A      3.759880   527A      3.770631   528A      3.774521  
     529A      3.781680   530A      3.788710   531A      3.808922  
     532A      3.811084   533A      3.815801   534A      3.829334  
     535A      3.844447   536A      3.851845   537A      3.855324  
     538A      3.863732   539A      3.866412   540A      3.877646  
     541A      3.891879   542A      3.900619   543A      3.906877  
     544A      3.910579   545A      3.918256   546A      3.925271  
     547A      3.933040   548A      3.938184   549A      3.947606  
     550A      3.951886   551A      3.954963   552A      3.968948  
     553A      3.979547   554A      3.989826   555A      3.997925  
     556A      4.002998   557A      4.005102   558A      4.007785  
     559A      4.018062   560A      4.024114   561A      4.030975  
     562A      4.044798   563A      4.046539   564A      4.053219  
     565A      4.058323   566A      4.067489   567A      4.082447  
     568A      4.082776   569A      4.091784   570A      4.092811  
     571A      4.106803   572A      4.121115   573A      4.124719  
     574A      4.134180   575A      4.146247   576A      4.159658  
     577A      4.167410   578A      4.173245   579A      4.179499  
     580A      4.186469   581A      4.198272   582A      4.201575  
     583A      4.210396   584A      4.226145   585A      4.235394  
     586A      4.239757   587A      4.244524   588A      4.256435  
     589A      4.263395   590A      4.267010   591A      4.280596  
     592A      4.298270   593A      4.305078   594A      4.321391  
     595A      4.333742   596A      4.335602   597A      4.346021  
     598A      4.357960   599A      4.369578   600A      4.373940  
     601A      4.388190   602A      4.392701   603A      4.400676  
     604A      4.421223   605A      4.427665   606A      4.439024  
     607A      4.444190   608A      4.464165   609A      4.481815  
     610A      4.496875   611A      4.511127   612A      4.516133  
     613A      4.531148   614A      4.535764   615A      4.553579  
     616A      4.574821   617A      4.586975   618A      4.602294  
     619A      4.611761   620A      4.625427   621A      4.634272  
     622A      4.655390   623A      4.661028   624A      4.685021  
     625A      4.690161   626A      4.692043   627A      4.703449  
     628A      4.712088   629A      4.722270   630A      4.736534  
     631A      4.740147   632A      4.757734   633A      4.772822  
     634A      4.786017   635A      4.799859   636A      4.809130  
     637A      4.819494   638A      4.822746   639A      4.837975  
     640A      4.840819   641A      4.853428   642A      4.859540  
     643A      4.872489   644A      4.890187   645A      4.895460  
     646A      4.901905   647A      4.907343   648A      4.920235  
     649A      4.929867   650A      4.948921   651A      4.952156  
     652A      4.975156   653A      4.979450   654A      4.991574  
     655A      5.005144   656A      5.009438   657A      5.023714  
     658A      5.031748   659A      5.044204   660A      5.071263  
     661A      5.081994   662A      5.093379   663A      5.108799  
     664A      5.125001   665A      5.135427   666A      5.152364  
     667A      5.156607   668A      5.167702   669A      5.181155  
     670A      5.197364   671A      5.203030   672A      5.228024  
     673A      5.240760   674A      5.247999   675A      5.258703  
     676A      5.264823   677A      5.270915   678A      5.277177  
     679A      5.288731   680A      5.298447   681A      5.309134  
     682A      5.319391   683A      5.327022   684A      5.336316  
     685A      5.343071   686A      5.358522   687A      5.368881  
     688A      5.371791   689A      5.391290   690A      5.399872  
     691A      5.408355   692A      5.417194   693A      5.426730  
     694A      5.447020   695A      5.449965   696A      5.473177  
     697A      5.474981   698A      5.480791   699A      5.499787  
     700A      5.514436   701A      5.530372   702A      5.536630  
     703A      5.545489   704A      5.566815   705A      5.576960  
     706A      5.587864   707A      5.600809   708A      5.619937  
     709A      5.623054   710A      5.640826   711A      5.665874  
     712A      5.670028   713A      5.676901   714A      5.684783  
     715A      5.693203   716A      5.706571   717A      5.721167  
     718A      5.723409   719A      5.744129   720A      5.750448  
     721A      5.763238   722A      5.773317   723A      5.791021  
     724A      5.806471   725A      5.830452   726A      5.845928  
     727A      5.864640   728A      5.875226   729A      5.879304  
     730A      5.898676   731A      5.905174   732A      5.963973  
     733A      5.978313   734A      5.988576   735A      6.016700  
     736A      6.050280   737A      6.062475   738A      6.072814  
     739A      6.086871   740A      6.120875   741A      6.144074  
     742A      6.161269   743A      6.195915   744A      6.201360  
     745A      6.219930   746A      6.238971   747A      6.253031  
     748A      6.281910   749A      6.295401   750A      6.308776  
     751A      6.317967   752A      6.338864   753A      6.350538  
     754A      6.377021   755A      6.393718   756A      6.407388  
     757A      6.419846   758A      6.464859   759A      6.569599  
     760A      6.597484   761A      6.676004   762A      6.719700  
     763A      6.751780   764A      6.776579   765A      6.794551  
     766A      6.885017   767A      6.894990   768A      6.924692  
     769A      6.943336   770A      6.990032   771A      7.002205  
     772A      7.077323   773A      7.089969   774A      7.144172  
     775A     18.000450   776A     18.065508   777A     18.256726  
     778A     18.554614   779A     18.752003   780A     19.148914  
     781A     19.706771   782A     19.794586  

    Final Occupation by Irrep:
              A 
    DOCC [    33 ]

  Energy converged.

  @DF-RHF Final Energy:  -313.53868989584561

   => Energetics <=

    Nuclear Repulsion Energy =            399.1728535978382411
    One-Electron Energy =               -1213.4831177557653064
    Two-Electron Energy =                 500.7715742620813444
    DFT Exchange-Correlation Energy =       0.0000000000000000
    Empirical Dispersion Energy =           0.0000000000000000
    PCM Polarization Energy =               0.0000000000000000
    EFP Energy =                            0.0000000000000000
    Total Energy =                       -313.5386898958457778


  Saving occupied orbitals to File 180.

*** tstop() called on wr31 at Tue Sep 20 22:41:25 2016
Module time:
	user time   =     879.30 seconds =      14.66 minutes
	system time =      10.82 seconds =       0.18 minutes
	total time  =         82 seconds =       1.37 minutes
Total time:
	user time   =     879.30 seconds =      14.66 minutes
	system time =      10.82 seconds =       0.18 minutes
	total time  =         82 seconds =       1.37 minutes


Properties will be evaluated at   0.000000,   0.000000,   0.000000 Bohr

Properties computed using the SCF density matrix

  Nuclear Dipole Moment: (a.u.)
     X:    -0.9863      Y:     2.1036      Z:     0.3821

  Electronic Dipole Moment: (a.u.)
     X:     1.0011      Y:    -2.1396      Z:    -0.4021

  Dipole Moment: (a.u.)
     X:     0.0149      Y:    -0.0360      Z:    -0.0200     Total:     0.0438

  Dipole Moment: (Debye)
     X:     0.0377      Y:    -0.0916      Z:    -0.0507     Total:     0.1113


  //>>>>>>>>>>>>>>>>>>>>>>>>>>>>>>>>>>>//
  //               DFMP2               //
  //<<<<<<<<<<<<<<<<<<<<<<<<<<<<<<<<<<<//


*** tstart() called on wr31
*** at Tue Sep 20 22:41:25 2016


*** tstop() called on wr31 at Tue Sep 20 22:41:26 2016
Module time:
	user time   =       4.45 seconds =       0.07 minutes
	system time =       0.21 seconds =       0.00 minutes
	total time  =          1 seconds =       0.02 minutes
Total time:
	user time   =     884.79 seconds =      14.75 minutes
	system time =      11.09 seconds =       0.18 minutes
	total time  =         83 seconds =       1.38 minutes
	 --------------------------------------------------------
	                          DF-MP2                         
	      2nd-Order Density-Fitted Moller-Plesset Theory     
	              RMP2 Wavefunction,  12 Threads             
	                                                         
	        Rob Parrish, Justin Turney, Andy Simmonett,      
	           Ed Hohenstein, and C. David Sherrill          
	 --------------------------------------------------------

   => Auxiliary Basis Set <=

  Basis Set: 
    Number of shells: 476
    Number of basis function: 1676
    Number of Cartesian functions: 2078
    Spherical Harmonics?: true
    Max angular momentum: 4

	 --------------------------------------------------------
	                 NBF =   782, NAUX =  1676
	 --------------------------------------------------------
	   CLASS    FOCC     OCC    AOCC    AVIR     VIR    FVIR
	   PAIRS       8      33      25     749     749       0
	 --------------------------------------------------------

DGAS Warning! /src/lib/libfock/apps.cc:80 is not currently checking restricted

         ------------------------------------------------------------
                                     CPHF                           
                                  Rob Parrish                       
         ------------------------------------------------------------

  ==> Geometry <==

    Molecular point group: c1
    Full point group: C1

    Geometry (in Angstrom), charge = 0, multiplicity = 1:

       Center              X                  Y                   Z               Mass       
    ------------   -----------------  -----------------  -----------------  -----------------
           C         -3.370513258808     1.060194064633     0.027585483087    12.000000000000
           H         -4.355979353959     1.012356881779    -0.435098056467     1.007825032070
           H         -2.888733838473     1.981083276446    -0.303464504270     1.007825032070
           H         -3.509724418757     1.128559505103     1.107222289794     1.007825032070
           C          2.062991087480     1.679417010997     0.451670730402    12.000000000000
           H          1.977285601513     2.714026716590     0.119582955485     1.007825032070
           H          3.005097287693     1.578519130815     0.993229112999     1.007825032070
           H          1.254349866486     1.490351071443     1.156905820673     1.007825032070
           C         -2.520145963759    -0.152285873413    -0.330959335356    12.000000000000
           H         -2.411376816133    -0.219097216159    -1.416919014783     1.007825032070
           H         -3.027410789330    -1.067612175156    -0.014104574345     1.007825032070
           C          2.020280224765     0.714678340213    -0.727926092307    12.000000000000
           H          1.081158626507     0.829754747545    -1.274232572076     1.007825032070
           H          2.812391020193     0.978731325830    -1.432568156061     1.007825032070
           C         -1.137176988613    -0.100855960093     0.305660483278    12.000000000000
           H         -1.243847137404    -0.033348430592     1.393547046411     1.007825032070
           H         -0.634050284349     0.815410605625    -0.010930466238     1.007825032070
           C         -0.287786290374    -1.323074683377    -0.031846781527    12.000000000000
           H         -0.202285653964    -1.416534860486    -1.119982153389     1.007825032070
           H         -0.833179831033    -2.208640753072     0.305638597527     1.007825032070
           C          1.115700292918    -1.321818217013     0.588971532150    12.000000000000
           H          1.090710252411    -0.784944025424     1.541321211201     1.007825032070
           H          1.401959705978    -2.347692140589     0.831105438179     1.007825032070
           C          2.205007849660    -0.744712680419    -0.317386922227    12.000000000000
           H          3.172296608023    -0.844474514564     0.184830510209     1.007825032070
           H          2.259288049014    -1.362512043247    -1.218501993097     1.007825032070

  Nuclear repulsion =  399.172853597838241
  Reference energy  = -313.538689895845607

  ==> Basis Set <==

  Basis Set: AUG-CC-PVTZ
    Number of shells: 274
    Number of basis function: 782
    Number of Cartesian functions: 890
    Spherical Harmonics?: true
    Max angular momentum: 3

  ==> CGRSolver (by Rob Parrish) <==

   Number of roots    =         1
   Preconditioning    =    JACOBI
   Convergence cutoff =     1E-06
   Maximum iterations =       100

  ==> CPHFRHamiltonian (by Rob Parrish) <== 

  ==> DFJK: Density-Fitted J/K Matrices <==

    J tasked:                  Yes
    K tasked:                  Yes
    wK tasked:                  No
    OpenMP threads:             12
    Integrals threads:          12
    Memory (MB):             42915
    Algorithm:                Core
    Integral Cache:           NONE
    Schwarz Cutoff:          1E-12
    Fitting Condition:       1E-12

   => Auxiliary Basis Set <=

  Basis Set: 
    Number of shells: 492
    Number of basis function: 1660
    Number of Cartesian functions: 2038
    Spherical Harmonics?: true
    Max angular momentum: 4

  ==> CPHF Iterations <==

  => Iterations <=

             Iter  Converged  Remaining    Residual
  CGR           1          0          1   9.181E-02
  CGR           2          0          1   1.336E-02
  CGR           3          0          1   4.000E-03
  CGR           4          0          1   8.881E-04
  CGR           5          0          1   2.232E-04
  CGR           6          0          1   4.814E-05
  CGR           7          0          1   1.373E-05
  CGR           8          0          1   3.508E-06
  CGR           9          1          0   8.869E-07

    CGRSolver converged.

  ==> DFCorrGrad: Density-Fitted Correlated Gradients <==

    OpenMP threads:             12
    Integrals threads:          12
    Memory (MB):             42915
    Schwarz Cutoff:          0E+00
    Fitting Condition:       1E-12

   => Auxiliary Basis Set <=

  Basis Set: 
    Number of shells: 492
    Number of basis function: 1660
    Number of Cartesian functions: 2038
    Spherical Harmonics?: true
    Max angular momentum: 4

	-----------------------------------------------------------
	 ==================> DF-MP2 Energies <==================== 
	-----------------------------------------------------------
	 Reference Energy          =    -313.5386898958456072 [Eh]
	 Singles Energy            =      -0.0000000000000001 [Eh]
	 Same-Spin Energy          =      -0.3167119558461343 [Eh]
	 Opposite-Spin Energy      =      -1.1260295605863047 [Eh]
	 Correlation Energy        =      -1.4427415164324389 [Eh]
	 Total Energy              =    -314.9814314122780274 [Eh]
	-----------------------------------------------------------
	 ================> DF-SCS-MP2 Energies <================== 
	-----------------------------------------------------------
	 SCS Same-Spin Scale       =       0.3333333333333333 [-]
	 SCS Opposite-Spin Scale   =       1.2000000000000000 [-]
	 SCS Same-Spin Energy      =      -0.1055706519487114 [Eh]
	 SCS Opposite-Spin Energy  =      -1.3512354727035656 [Eh]
	 SCS Correlation Energy    =      -1.4568061246522770 [Eh]
	 SCS Total Energy          =    -314.9954960204979102 [Eh]
	-----------------------------------------------------------


  -Total Gradient:
     Atom            X                  Y                   Z
    ------   -----------------  -----------------  -----------------
       1       -0.000000272533    -0.000000146432    -0.000000144375
       2       -0.000000066027     0.000000069550     0.000000069865
       3        0.000000054875     0.000000136848    -0.000000034876
       4       -0.000000070544     0.000000049345     0.000000216655
       5       -0.000000403735     0.000000722102     0.000000786925
       6        0.000000004994    -0.000000609909     0.000000370084
       7       -0.000000767196     0.000000036738    -0.000000429822
       8        0.000000591098     0.000000142441    -0.000000462036
       9       -0.000000063125     0.000000136436    -0.000000068465
      10        0.000000035885    -0.000000078270    -0.000000122495
      11       -0.000000039975    -0.000000123036    -0.000000049887
      12        0.000000325208    -0.000000342862    -0.000001326540
      13        0.000001464897    -0.000000206796     0.000000802728
      14       -0.000000738749    -0.000000162353     0.000000127604
      15       -0.000000176467    -0.000000273589    -0.000000003420
      16        0.000000001043    -0.000000077804     0.000000180881
      17        0.000000412704     0.000000016601    -0.000000201332
      18        0.000000608737     0.000000002171    -0.000000176740
      19       -0.000000262649     0.000000180184     0.000000450900
      20        0.000000276821     0.000000193071    -0.000000081963
      21        0.000000073974    -0.000000263656     0.000000726219
      22        0.000000282095    -0.000000539265    -0.000001006162
      23       -0.000000357067     0.000000616811    -0.000000017414
      24        0.000000255961    -0.000000236158    -0.000000049250
      25       -0.000000986965     0.000000123126    -0.000000572380
      26       -0.000000183260     0.000000634709     0.000001015297


			-----------------------------------------
			 OPTKING 2.0: for geometry optimizations 
			  - R.A. King,  Bethel University        
			-----------------------------------------

	Internal coordinates to be generated automatically.
	Detected frag 1 with atoms:  1 2 3 4 5 6 7 8 9 10 11 12 13 14 15 16 17 18 19 20
	 21 22 23 24 25 26
	---Fragment 1 Bond Connectivity---
	 1 : 2 3 4 9
	 2 : 1
	 3 : 1
	 4 : 1
	 5 : 6 7 8 12
	 6 : 5
	 7 : 5
	 8 : 5
	 9 : 1 10 11 15
	 10 : 9
	 11 : 9
	 12 : 5 13 14 24
	 13 : 12
	 14 : 12
	 15 : 9 16 17 18
	 16 : 15
	 17 : 15
	 18 : 15 19 20 21
	 19 : 18
	 20 : 18
	 21 : 18 22 23 24
	 22 : 21
	 23 : 21
	 24 : 12 21 25 26
	 25 : 24
	 26 : 24

	---Fragment 1 Geometry and Gradient---
	 C          -6.3693469864        2.0034764299        0.0521290083
	 H          -8.2316080195        1.9130772553       -0.8222161677
	 H          -5.4589158255        3.7437048389       -0.5734648041
	 H          -6.6324179534        2.1326683893        2.0923468959
	 C           3.8984881699        3.1736382137        0.8535339827
	 H           3.7365282734        5.1287672117        0.2259790360
	 H           5.6788108764        2.9829688528        1.8769310108
	 H           2.3703777225        2.8163553669        2.1862351626
	 C          -4.7623856864       -0.2877785947       -0.6254225049
	 H          -4.5568417857       -0.4140337350       -2.6775888904
	 H          -5.7209772836       -2.0174946272       -0.0266537827
	 C           3.8177763365        1.3505463361       -1.3755809594
	 H           2.0430937103        1.5680092303       -2.4079505908
	 H           5.3146488068        1.8495341635       -2.7071614816
	 C          -2.1489530731       -0.1905901434        0.5776146030
	 H          -2.3505304409       -0.0630194008        2.6334222710
	 H          -1.1981813919        1.5409027305       -0.0206555877
	 C          -0.5438372736       -2.5002488049       -0.0601816953
	 H          -0.3822644866       -2.6768629440       -2.1164595436
	 H          -1.5744817001       -4.1737261492        0.5775732450
	 C           2.1083680000       -2.4978744276        1.1129948958
	 H           2.0611436674       -1.4833292377        2.9126749720
	 H           2.6493198936       -4.4364951900        1.5705616657
	 C           4.1668609567       -1.4073030137       -0.5997743612
	 H           5.9947718014       -1.5958255587        0.3492790453
	 H           4.2694356679       -2.5747746145       -2.3026350593
	            -0.0000002725       -0.0000001464       -0.0000001444
	            -0.0000000660        0.0000000695        0.0000000699
	             0.0000000549        0.0000001368       -0.0000000349
	            -0.0000000705        0.0000000493        0.0000002167
	            -0.0000004037        0.0000007221        0.0000007869
	             0.0000000050       -0.0000006099        0.0000003701
	            -0.0000007672        0.0000000367       -0.0000004298
	             0.0000005911        0.0000001424       -0.0000004620
	            -0.0000000631        0.0000001364       -0.0000000685
	             0.0000000359       -0.0000000783       -0.0000001225
	            -0.0000000400       -0.0000001230       -0.0000000499
	             0.0000003252       -0.0000003429       -0.0000013265
	             0.0000014649       -0.0000002068        0.0000008027
	            -0.0000007387       -0.0000001624        0.0000001276
	            -0.0000001765       -0.0000002736       -0.0000000034
	             0.0000000010       -0.0000000778        0.0000001809
	             0.0000004127        0.0000000166       -0.0000002013
	             0.0000006087        0.0000000022       -0.0000001767
	            -0.0000002626        0.0000001802        0.0000004509
	             0.0000002768        0.0000001931       -0.0000000820
	             0.0000000740       -0.0000002637        0.0000007262
	             0.0000002821       -0.0000005393       -0.0000010062
	            -0.0000003571        0.0000006168       -0.0000000174
	             0.0000002560       -0.0000002362       -0.0000000492
	            -0.0000009870        0.0000001231       -0.0000005724
	            -0.0000001833        0.0000006347        0.0000010153

	Previous optimization step data not found.  Starting new optimization.

	---Fragment 1 Intrafragment Coordinates---
	 - Coordinate -           - BOHR/RAD -       - ANG/DEG -
	 R(1,2)           =         2.059288	       1.089728
	 R(1,3)           =         2.061225	       1.090753
	 R(1,4)           =         2.061161	       1.090720
	 R(1,9)           =         2.879453	       1.523741
	 R(5,6)           =         2.059754	       1.089975
	 R(5,7)           =         2.062340	       1.091343
	 R(5,8)           =         2.058850	       1.089497
	 R(5,12)          =         2.880821	       1.524465
	 R(9,10)          =         2.066295	       1.093436
	 R(9,11)          =         2.066238	       1.093406
	 R(9,15)          =         2.878676	       1.523330
	 R(12,13)         =         2.064601	       1.092540
	 R(12,14)         =         2.064636	       1.092558
	 R(12,24)         =         2.886082	       1.527249
	 R(15,16)         =         2.069602	       1.095186
	 R(15,17)         =         2.063967	       1.092205
	 R(15,18)         =         2.884043	       1.526170
	 R(18,19)         =         2.070163	       1.095483
	 R(18,20)         =         2.066273	       1.093425
	 R(18,21)         =         2.900093	       1.534663
	 R(21,22)         =         2.066490	       1.093539
	 R(21,23)         =         2.064037	       1.092241
	 R(21,24)         =         2.891421	       1.530074
	 R(24,25)         =         2.068212	       1.094451
	 R(24,26)         =         2.067183	       1.093906
	 B(1,9,10)        =         1.915409	     109.744837
	 B(1,9,11)        =         1.916682	     109.817781
	 B(1,9,15)        =         1.962166	     112.423815
	 B(2,1,3)         =         1.883499	     107.916565
	 B(2,1,4)         =         1.883469	     107.914808
	 B(2,1,9)         =         1.949638	     111.706041
	 B(3,1,4)         =         1.879557	     107.690695
	 B(3,1,9)         =         1.932523	     110.725425
	 B(4,1,9)         =         1.932661	     110.733337
	 B(5,12,13)       =         1.922333	     110.141583
	 B(5,12,14)       =         1.902640	     109.013246
	 B(5,12,24)       =         1.975049	     113.161989
	 B(6,5,7)         =         1.882651	     107.867942
	 B(6,5,8)         =         1.879240	     107.672547
	 B(6,5,12)        =         1.942002	     111.268515
	 B(7,5,8)         =         1.879123	     107.665798
	 B(7,5,12)        =         1.927994	     110.465940
	 B(8,5,12)        =         1.950080	     111.731333
	 B(9,15,16)       =         1.905812	     109.195002
	 B(9,15,17)       =         1.902223	     108.989360
	 B(9,15,18)       =         1.966884	     112.694155
	 B(10,9,11)       =         1.857513	     106.427635
	 B(10,9,15)       =         1.903722	     109.075255
	 B(11,9,15)       =         1.905343	     109.168113
	 B(12,24,21)      =         2.019211	     115.692293
	 B(12,24,25)      =         1.893734	     108.502970
	 B(12,24,26)      =         1.901003	     108.919458
	 B(13,12,14)      =         1.849642	     105.976700
	 B(13,12,24)      =         1.916685	     109.817963
	 B(14,12,24)      =         1.892960	     108.458645
	 B(15,18,19)      =         1.908609	     109.355235
	 B(15,18,20)      =         1.878364	     107.622303
	 B(15,18,21)      =         2.002989	     114.762804
	 B(16,15,17)      =         1.855724	     106.325173
	 B(16,15,18)      =         1.899952	     108.859229
	 B(17,15,18)      =         1.929818	     110.570409
	 B(18,21,22)      =         1.909011	     109.378276
	 B(18,21,23)      =         1.905609	     109.183344
	 B(18,21,24)      =         1.995179	     114.315334
	 B(19,18,20)      =         1.850857	     106.046273
	 B(19,18,21)      =         1.907640	     109.299734
	 B(20,18,21)      =         1.909181	     109.388011
	 B(21,24,25)      =         1.899707	     108.845172
	 B(21,24,26)      =         1.886279	     108.075821
	 B(22,21,23)      =         1.848394	     105.905161
	 B(22,21,24)      =         1.925141	     110.302463
	 B(23,21,24)      =         1.874429	     107.396879
	 B(25,24,26)      =         1.857371	     106.419538
	 D(1,9,15,16)     =         1.012371	      58.004562
	 D(1,9,15,17)     =        -1.007983	     -57.753170
	 D(1,9,15,18)     =         3.126024	     179.107966
	 D(2,1,9,10)      =         1.017736	      58.311952
	 D(2,1,9,11)      =        -1.018411	     -58.350638
	 D(2,1,9,15)      =         3.139771	     179.895627
	 D(3,1,9,10)      =        -1.082025	     -61.995461
	 D(3,1,9,11)      =        -3.118171	    -178.658050
	 D(3,1,9,15)      =         1.040011	      59.588214
	 D(4,1,9,10)      =         3.117551	     178.622534
	 D(4,1,9,11)      =         1.081405	      61.959945
	 D(4,1,9,15)      =        -1.043599	     -59.793791
	 D(5,12,24,21)    =         1.107516	      63.455996
	 D(5,12,24,25)    =        -1.032520	     -59.159011
	 D(5,12,24,26)    =        -3.047592	    -174.614165
	 D(6,5,12,13)     =        -1.037441	     -59.440981
	 D(6,5,12,14)     =         0.985036	      56.438378
	 D(6,5,12,24)     =         3.092959	     177.213498
	 D(7,5,12,13)     =        -3.128033	    -179.223063
	 D(7,5,12,14)     =        -1.105556	     -63.343704
	 D(7,5,12,24)     =         1.002367	      57.431416
	 D(8,5,12,13)     =         1.063706	      60.945866
	 D(8,5,12,14)     =         3.086182	     176.825225
	 D(8,5,12,24)     =        -1.089079	     -62.399656
	 D(9,15,18,19)    =         0.993566	      56.927128
	 D(9,15,18,20)    =        -1.009552	     -57.843041
	 D(9,15,18,21)    =        -3.139069	    -179.855427
	 D(10,9,15,16)    =         3.141054	     179.969139
	 D(10,9,15,17)    =         1.120700	      64.211406
	 D(10,9,15,18)    =        -1.028478	     -58.927457
	 D(11,9,15,16)    =        -1.119072	     -64.118090
	 D(11,9,15,17)    =        -3.139425	    -179.875822
	 D(11,9,15,18)    =         0.994581	      56.985315
	 D(12,24,21,18)   =         1.066094	      61.082685
	 D(12,24,21,22)   =        -1.093526	     -62.654414
	 D(12,24,21,23)   =        -3.100107	    -177.623059
	 D(13,12,24,21)   =        -1.048380	     -60.067730
	 D(13,12,24,25)   =         3.094770	     177.317262
	 D(13,12,24,26)   =         1.079697	      61.862109
	 D(14,12,24,21)   =        -3.062267	    -175.454972
	 D(14,12,24,25)   =         1.080883	      61.930020
	 D(14,12,24,26)   =        -0.934190	     -53.525134
	 D(15,18,21,22)   =         0.533731	      30.580545
	 D(15,18,21,23)   =         2.548969	     146.045141
	 D(15,18,21,24)   =        -1.634522	     -93.651230
	 D(16,15,18,19)   =         3.110556	     178.221739
	 D(16,15,18,20)   =         1.107439	      63.451569
	 D(16,15,18,21)   =        -1.022079	     -58.560816
	 D(17,15,18,19)   =        -1.140152	     -65.325895
	 D(17,15,18,20)   =         3.139916	     179.903935
	 D(17,15,18,21)   =         1.010398	      57.891550
	 D(18,21,24,25)   =        -3.080221	    -176.483683
	 D(18,21,24,26)   =        -1.069819	     -61.296140
	 D(19,18,21,22)   =         2.684800	     153.827701
	 D(19,18,21,23)   =        -1.583148	     -90.707703
	 D(19,18,21,24)   =         0.516546	      29.595926
	 D(20,18,21,22)   =        -1.578974	     -90.468565
	 D(20,18,21,23)   =         0.436263	      24.996032
	 D(20,18,21,24)   =         2.535957	     145.299660
	 D(22,21,24,25)   =         1.043344	      59.779219
	 D(22,21,24,26)   =         3.053746	     174.966761
	 D(23,21,24,25)   =        -0.963237	     -55.189426
	 D(23,21,24,26)   =         1.047165	      59.998116
	 R(5,15)          =         6.925728	       3.664937
	 R(12,15)         =         6.464668	       3.420955

	Current energy   :      -314.9814314123

	Generating empirical Hessian (Schlegel '84) for each fragment.
	Taking RFO optimization step.
	Going to follow RFO solution 1.
	Using RFO vector 1.
	Norm of target step-size    0.00018
	Projected energy change by RFO approximation:         0.0000000001

	Back-transformation to cartesian coordinates...
	Successfully converged to displaced geometry.

	--- Internal Coordinate Step in ANG or DEG, aJ/ANG or AJ/DEG ---
	 ---------------------------------------------------------------------------
	   Coordinate                Previous        Force       Change         New 
	   ----------                --------       ------       ------       ------
	    1 R(1,2)          =      1.089728    -0.000000    -0.000000     1.089728
	    2 R(1,3)          =      1.090753    -0.000001    -0.000000     1.090753
	    3 R(1,4)          =      1.090720    -0.000002    -0.000000     1.090719
	    4 R(1,9)          =      1.523741    -0.000003    -0.000001     1.523740
	    5 R(5,6)          =      1.089975     0.000006     0.000001     1.089976
	    6 R(5,7)          =      1.091343     0.000007     0.000001     1.091345
	    7 R(5,8)          =      1.089497     0.000006     0.000001     1.089498
	    8 R(5,12)         =      1.524465    -0.000003    -0.000001     1.524464
	    9 R(9,10)         =      1.093436    -0.000001    -0.000000     1.093436
	   10 R(9,11)         =      1.093406    -0.000001    -0.000000     1.093406
	   11 R(9,15)         =      1.523330    -0.000003    -0.000001     1.523329
	   12 R(12,13)        =      1.092540     0.000014     0.000003     1.092542
	   13 R(12,14)        =      1.092558     0.000005     0.000001     1.092559
	   14 R(12,24)        =      1.527249     0.000004     0.000001     1.527250
	   15 R(15,16)        =      1.095186    -0.000001    -0.000000     1.095186
	   16 R(15,17)        =      1.092205    -0.000002    -0.000000     1.092204
	   17 R(15,18)        =      1.526170     0.000001     0.000000     1.526170
	   18 R(18,19)        =      1.095483     0.000004     0.000001     1.095484
	   19 R(18,20)        =      1.093425     0.000003     0.000000     1.093425
	   20 R(18,21)        =      1.534663     0.000004     0.000001     1.534664
	   21 R(21,22)        =      1.093539     0.000009     0.000002     1.093541
	   22 R(21,23)        =      1.092241     0.000006     0.000001     1.092242
	   23 R(21,24)        =      1.530074     0.000004     0.000001     1.530075
	   24 R(24,25)        =      1.094451     0.000009     0.000002     1.094452
	   25 R(24,26)        =      1.093906     0.000010     0.000002     1.093908
	   26 B(1,9,10)       =    109.744837    -0.000000    -0.000067   109.744770
	   27 B(1,9,11)       =    109.817781     0.000000     0.000051   109.817832
	   28 B(1,9,15)       =    112.423815    -0.000000    -0.000058   112.423757
	   29 B(2,1,3)        =    107.916565     0.000000     0.000007   107.916573
	   30 B(2,1,4)        =    107.914808     0.000000     0.000040   107.914848
	   31 B(2,1,9)        =    111.706041    -0.000000    -0.000061   111.705979
	   32 B(3,1,4)        =    107.690695     0.000000     0.000024   107.690718
	   33 B(3,1,9)        =    110.725425     0.000000     0.000001   110.725426
	   34 B(4,1,9)        =    110.733337    -0.000000    -0.000006   110.733331
	   35 B(5,12,13)      =    110.141583     0.000000     0.000115   110.141698
	   36 B(5,12,14)      =    109.013246    -0.000000    -0.000201   109.013045
	   37 B(5,12,24)      =    113.161989     0.000000    -0.000054   113.161935
	   38 B(6,5,7)        =    107.867942     0.000000    -0.000007   107.867935
	   39 B(6,5,8)        =    107.672547     0.000000     0.000028   107.672575
	   40 B(6,5,12)       =    111.268515    -0.000000    -0.000111   111.268404
	   41 B(7,5,8)        =    107.665798     0.000000     0.000041   107.665839
	   42 B(7,5,12)       =    110.465940     0.000000     0.000041   110.465981
	   43 B(8,5,12)       =    111.731333     0.000000     0.000012   111.731346
	   44 B(9,15,16)      =    109.195002     0.000000    -0.000014   109.194988
	   45 B(9,15,17)      =    108.989360    -0.000000    -0.000093   108.989266
	   46 B(9,15,18)      =    112.694155    -0.000000    -0.000053   112.694102
	   47 B(10,9,11)      =    106.427635     0.000000     0.000050   106.427685
	   48 B(10,9,15)      =    109.075255     0.000000    -0.000001   109.075253
	   49 B(11,9,15)      =    109.168113     0.000000     0.000033   109.168146
	   50 B(12,24,21)     =    115.692293    -0.000000    -0.000051   115.692242
	   51 B(12,24,25)     =    108.502970     0.000000    -0.000052   108.502918
	   52 B(12,24,26)     =    108.919458     0.000000     0.000065   108.919523
	   53 B(13,12,14)     =    105.976700     0.000000     0.000132   105.976832
	   54 B(13,12,24)     =    109.817963     0.000000     0.000148   109.818111
	   55 B(14,12,24)     =    108.458645    -0.000000    -0.000136   108.458508
	   56 B(15,18,19)     =    109.355235     0.000000     0.000114   109.355349
	   57 B(15,18,20)     =    107.622303    -0.000000    -0.000046   107.622256
	   58 B(15,18,21)     =    114.762804    -0.000000    -0.000016   114.762788
	   59 B(16,15,17)     =    106.325173    -0.000000    -0.000061   106.325112
	   60 B(16,15,18)     =    108.859229     0.000000     0.000069   108.859298
	   61 B(17,15,18)     =    110.570409     0.000000     0.000150   110.570559
	   62 B(18,21,22)     =    109.378276    -0.000000    -0.000098   109.378178
	   63 B(18,21,23)     =    109.183344     0.000000    -0.000004   109.183341
	   64 B(18,21,24)     =    114.315334     0.000000     0.000131   114.315465
	   65 B(19,18,20)     =    106.046273    -0.000000    -0.000000   106.046272
	   66 B(19,18,21)     =    109.299734    -0.000000    -0.000095   109.299639
	   67 B(20,18,21)     =    109.388011     0.000000     0.000047   109.388058
	   68 B(21,24,25)     =    108.845172     0.000000    -0.000071   108.845101
	   69 B(21,24,26)     =    108.075821     0.000000     0.000122   108.075943
	   70 B(22,21,23)     =    105.905161     0.000000     0.000019   105.905180
	   71 B(22,21,24)     =    110.302463     0.000000     0.000088   110.302550
	   72 B(23,21,24)     =    107.396879    -0.000000    -0.000144   107.396734
	   73 B(25,24,26)     =    106.419538    -0.000000    -0.000010   106.419529
	   74 D(1,9,15,16)    =     58.004562     0.000000     0.001467    58.006029
	   75 D(1,9,15,17)    =    -57.753170     0.000000     0.001599   -57.751571
	   76 D(1,9,15,18)    =    179.107966     0.000000     0.001510   179.109476
	   77 D(2,1,9,10)     =     58.311952     0.000000    -0.000112    58.311840
	   78 D(2,1,9,11)     =    -58.350638    -0.000000    -0.000162   -58.350800
	   79 D(2,1,9,15)     =    179.895627    -0.000000    -0.000200   179.895427
	   80 D(3,1,9,10)     =    -61.995461     0.000000    -0.000080   -61.995541
	   81 D(3,1,9,11)     =   -178.658050    -0.000000    -0.000131  -178.658181
	   82 D(3,1,9,15)     =     59.588214     0.000000    -0.000169    59.588045
	   83 D(4,1,9,10)     =    178.622534     0.000000    -0.000107   178.622427
	   84 D(4,1,9,11)     =     61.959945    -0.000000    -0.000157    61.959787
	   85 D(4,1,9,15)     =    -59.793791    -0.000000    -0.000195   -59.793986
	   86 D(5,12,24,21)   =     63.455996     0.000000     0.000302    63.456298
	   87 D(5,12,24,25)   =    -59.159011     0.000000     0.000472   -59.158539
	   88 D(5,12,24,26)   =   -174.614165     0.000000     0.000477  -174.613688
	   89 D(6,5,12,13)    =    -59.440981     0.000000    -0.000263   -59.441244
	   90 D(6,5,12,14)    =     56.438378     0.000000    -0.000155    56.438223
	   91 D(6,5,12,24)    =    177.213498    -0.000000    -0.000505   177.212993
	   92 D(7,5,12,13)    =   -179.223063     0.000000    -0.000209  -179.223271
	   93 D(7,5,12,14)    =    -63.343704     0.000000    -0.000101   -63.343804
	   94 D(7,5,12,24)    =     57.431416    -0.000000    -0.000450    57.430966
	   95 D(8,5,12,13)    =     60.945866    -0.000000    -0.000296    60.945570
	   96 D(8,5,12,14)    =    176.825225     0.000000    -0.000188   176.825037
	   97 D(8,5,12,24)    =    -62.399656    -0.000000    -0.000537   -62.400193
	   98 D(9,15,18,19)   =     56.927128     0.000000     0.000472    56.927600
	   99 D(9,15,18,20)   =    -57.843041    -0.000000     0.000439   -57.842603
	  100 D(9,15,18,21)   =   -179.855427    -0.000000     0.000424  -179.855003
	  101 D(10,9,15,16)   =    179.969139    -0.000000     0.001342   179.970481
	  102 D(10,9,15,17)   =     64.211406     0.000000     0.001474    64.212880
	  103 D(10,9,15,18)   =    -58.927457    -0.000000     0.001385   -58.926072
	  104 D(11,9,15,16)   =    -64.118090     0.000000     0.001419   -64.116671
	  105 D(11,9,15,17)   =   -179.875822     0.000000     0.001551  -179.874271
	  106 D(11,9,15,18)   =     56.985315     0.000000     0.001462    56.986777
	  107 D(12,24,21,18)  =     61.082685     0.000000     0.001584    61.084269
	  108 D(12,24,21,22)  =    -62.654414     0.000000     0.001547   -62.652867
	  109 D(12,24,21,23)  =   -177.623059     0.000000     0.001560  -177.621499
	  110 D(13,12,24,21)  =    -60.067730     0.000000     0.000079   -60.067651
	  111 D(13,12,24,25)  =    177.317262     0.000000     0.000249   177.317512
	  112 D(13,12,24,26)  =     61.862109     0.000000     0.000254    61.862363
	  113 D(14,12,24,21)  =   -175.454972    -0.000000    -0.000083  -175.455055
	  114 D(14,12,24,25)  =     61.930020    -0.000000     0.000088    61.930108
	  115 D(14,12,24,26)  =    -53.525134    -0.000000     0.000092   -53.525041
	  116 D(15,18,21,22)  =     30.580545     0.000000     0.002411    30.582956
	  117 D(15,18,21,23)  =    146.045141     0.000000     0.002377   146.047518
	  118 D(15,18,21,24)  =    -93.651230    -0.000000     0.002276   -93.648954
	  119 D(16,15,18,19)  =    178.221739     0.000000     0.000467   178.222206
	  120 D(16,15,18,20)  =     63.451569    -0.000000     0.000434    63.452004
	  121 D(16,15,18,21)  =    -58.560816    -0.000000     0.000419   -58.560397
	  122 D(17,15,18,19)  =    -65.325895     0.000000     0.000520   -65.325375
	  123 D(17,15,18,20)  =    179.903935     0.000000     0.000487   179.904422
	  124 D(17,15,18,21)  =     57.891550     0.000000     0.000472    57.892022
	  125 D(18,21,24,25)  =   -176.483683    -0.000000     0.001423  -176.482259
	  126 D(18,21,24,26)  =    -61.296140     0.000000     0.001440   -61.294700
	  127 D(19,18,21,22)  =    153.827701     0.000000     0.002475   153.830176
	  128 D(19,18,21,23)  =    -90.707703     0.000000     0.002441   -90.705262
	  129 D(19,18,21,24)  =     29.595926     0.000000     0.002340    29.598266
	  130 D(20,18,21,22)  =    -90.468565     0.000000     0.002447   -90.466118
	  131 D(20,18,21,23)  =     24.996032     0.000000     0.002413    24.998445
	  132 D(20,18,21,24)  =    145.299660    -0.000000     0.002312   145.301972
	  133 D(22,21,24,25)  =     59.779219     0.000000     0.001387    59.780605
	  134 D(22,21,24,26)  =    174.966761     0.000000     0.001403   174.968164
	  135 D(23,21,24,25)  =    -55.189426     0.000000     0.001399   -55.188027
	  136 D(23,21,24,26)  =     59.998116     0.000000     0.001416    59.999532
	  137 R(5,15)         =      3.664937     0.000001     0.000018     3.664955
	  138 R(12,15)        =      3.420955    -0.000001    -0.000022     3.420933
	 ---------------------------------------------------------------------------

  ==> Convergence Check <==

  Measures of convergence in internal coordinates in au.
  Criteria marked as inactive (o), active & met (*), and active & unmet ( ).
  --------------------------------------------------------------------------------------------- ~
   Step     Total Energy     Delta E     MAX Force     RMS Force      MAX Disp      RMS Disp    ~
  --------------------------------------------------------------------------------------------- ~
    Convergence Criteria             o    2.00e-06 *    1.00e-06 *    6.00e-06 *    4.00e-06 *  ~
  --------------------------------------------------------------------------------------------- ~
      1    -314.98143141   -3.15e+02 o    1.68e-06 *    3.04e-07 *    4.32e-05      1.52e-05    ~
  ---------------------------------------------------------------------------------------------

	Writing optimization data to binary file.
	Structure for next step:
	Cartesian Geometry (in Angstrom)
	    C    -3.3705003840   1.0602013257   0.0275488420
	    H    -4.3559751680   1.0123506323  -0.4351147120
	    H    -2.8887145400   1.9810649110  -0.3035622966
	    H    -3.5096909581   1.1286296580   1.1071839620
	    C     2.0630113573   1.6794127977   0.4517127900
	    H     1.9773103382   2.7140326400   0.1196519620
	    H     3.0051305234   1.5784903266   0.9932467243
	    H     1.2543834762   1.4903384527   1.1569627105
	    C    -2.5201566823  -0.1523102022  -0.3309426190
	    H    -2.4114104150  -0.2191845065  -1.4169005160
	    H    -3.0274263502  -1.0676117907  -0.0140247726
	    C     2.0202607753   0.7147062374  -0.7279077717
	    H     1.0811240037   0.8298038820  -1.2741888532
	    H     2.8123580738   0.9787729962  -1.4325614081
	    C    -1.1371748230  -0.1008597588   0.3056457800
	    H    -1.2438220812  -0.0333133681   1.3935319023
	    H    -0.6340559475   0.8153960304  -0.0109874051
	    C    -0.2877935353  -1.3230922135  -0.0318377007
	    H    -0.2023083339  -1.4165872048  -1.1199720438
	    H    -0.8331859772  -2.2086459422   0.3056834277
	    C     1.1157035890  -1.3218214852   0.5889590956
	    H     1.0907192090  -0.7849539741   1.5413147254
	    H     1.4019807613  -2.3476943438   0.8310811793
	    C     2.2049928735  -0.7446970393  -0.3174112262
	    H     3.1722937989  -0.8444743660   0.1847835572
	    H     2.2592522639  -1.3624745916  -1.2185447440
			--------------------------
			 OPTKING Finished Execution 
			--------------------------

    Structure for next step:
    Molecular point group: c1
    Full point group: C1

    Geometry (in Angstrom), charge = 0, multiplicity = 1:

    C           -3.370499056637     1.060201551028     0.027549025707
    H           -4.355973840660     1.012350857572    -0.435114528349
    H           -2.888713212668     1.981065136323    -0.303562112888
    H           -3.509689630720     1.128629883309     1.107184145664
    C            2.063012684676     1.679413023009     0.451712973676
    H            1.977311665490     2.714032865362     0.119652145695
    H            3.005131850746     1.578490551940     0.993246907966
    H            1.254384803535     1.490338677980     1.156962894166
    C           -2.520155354998    -0.152309976840    -0.330942435296
    H           -2.411409087648    -0.219184281160    -1.416900332258
    H           -3.027425022861    -1.067611565399    -0.014024588938
    C            2.020262102588     0.714706462674    -0.727907587961
    H            1.081125331001     0.829804107319    -1.274188669457
    H            2.812359401131     0.978773221552    -1.432561224377
    C           -1.137173495714    -0.100859533482     0.305645963683
    H           -1.243820753904    -0.033313142772     1.393532085985
    H           -0.634054620150     0.815396255745    -0.010987221378
    C           -0.287792207941    -1.323091988157    -0.031837517041
    H           -0.202307006565    -1.416586979457    -1.119971860085
    H           -0.833184649906    -2.208645716908     0.305683611379
    C            1.115704916316    -1.321821259870     0.588959279342
    H            1.090720536326    -0.784953748791     1.541314909149
    H            1.401982088593    -2.347694118467     0.831081362979
    C            2.204994200840    -0.744696813945    -0.317411042519
    H            3.172295126254    -0.844474140637     0.184783740875
    H            2.259253591281    -1.362474366333    -1.218544560288

gradient() will perform analytic gradient computation.

*** tstart() called on wr31
*** at Tue Sep 20 22:47:09 2016


         ---------------------------------------------------------
                                   SCF
            by Justin Turney, Rob Parrish, and Andy Simmonett
                              RHF Reference
                       12 Threads,  60000 MiB Core
         ---------------------------------------------------------

  ==> Geometry <==

    Molecular point group: c1
    Full point group: C1

    Geometry (in Angstrom), charge = 0, multiplicity = 1:

       Center              X                  Y                   Z               Mass       
    ------------   -----------------  -----------------  -----------------  -----------------
           C         -3.370499056637     1.060201551028     0.027549025707    12.000000000000
           H         -4.355973840660     1.012350857572    -0.435114528349     1.007825032070
           H         -2.888713212668     1.981065136323    -0.303562112888     1.007825032070
           H         -3.509689630720     1.128629883309     1.107184145664     1.007825032070
           C          2.063012684676     1.679413023009     0.451712973676    12.000000000000
           H          1.977311665490     2.714032865362     0.119652145695     1.007825032070
           H          3.005131850746     1.578490551940     0.993246907966     1.007825032070
           H          1.254384803535     1.490338677980     1.156962894166     1.007825032070
           C         -2.520155354998    -0.152309976840    -0.330942435296    12.000000000000
           H         -2.411409087648    -0.219184281160    -1.416900332258     1.007825032070
           H         -3.027425022861    -1.067611565399    -0.014024588938     1.007825032070
           C          2.020262102588     0.714706462674    -0.727907587961    12.000000000000
           H          1.081125331001     0.829804107319    -1.274188669457     1.007825032070
           H          2.812359401131     0.978773221552    -1.432561224377     1.007825032070
           C         -1.137173495714    -0.100859533482     0.305645963683    12.000000000000
           H         -1.243820753904    -0.033313142772     1.393532085985     1.007825032070
           H         -0.634054620150     0.815396255745    -0.010987221378     1.007825032070
           C         -0.287792207941    -1.323091988157    -0.031837517041    12.000000000000
           H         -0.202307006565    -1.416586979457    -1.119971860085     1.007825032070
           H         -0.833184649906    -2.208645716908     0.305683611379     1.007825032070
           C          1.115704916316    -1.321821259870     0.588959279342    12.000000000000
           H          1.090720536326    -0.784953748791     1.541314909149     1.007825032070
           H          1.401982088593    -2.347694118467     0.831081362979     1.007825032070
           C          2.204994200840    -0.744696813945    -0.317411042519    12.000000000000
           H          3.172295126254    -0.844474140637     0.184783740875     1.007825032070
           H          2.259253591281    -1.362474366333    -1.218544560288     1.007825032070

  Running in c1 symmetry.

  Rotational constants: A =      0.09699  B =      0.03139  C =      0.02623 [cm^-1]
  Rotational constants: A =   2907.57374  B =    941.03163  C =    786.48966 [MHz]
  Nuclear repulsion =  399.172714021545403

  Charge       = 0
  Multiplicity = 1
  Electrons    = 66
  Nalpha       = 33
  Nbeta        = 33

  ==> Algorithm <==

  SCF Algorithm Type is DF.
  DIIS enabled.
  MOM disabled.
  Fractional occupation disabled.
  Guess Type is READ.
  Energy threshold   = 1.00e-10
  Density threshold  = 1.00e-10
  Integral threshold = 0.00e+00

  ==> Primary Basis <==

  Basis Set: AUG-CC-PVTZ
    Number of shells: 274
    Number of basis function: 782
    Number of Cartesian functions: 890
    Spherical Harmonics?: true
    Max angular momentum: 3

  ==> Pre-Iterations <==

   -------------------------------------------------------
    Irrep   Nso     Nmo     Nalpha   Nbeta   Ndocc  Nsocc
   -------------------------------------------------------
     A        782     782       0       0       0       0
   -------------------------------------------------------
    Total     782     782      33      33      33       0
   -------------------------------------------------------

  ==> Integral Setup <==

  ==> DFJK: Density-Fitted J/K Matrices <==

    J tasked:                  Yes
    K tasked:                  Yes
    wK tasked:                  No
    OpenMP threads:             12
    Integrals threads:          12
    Memory (MB):             42915
    Algorithm:                Core
    Integral Cache:           NONE
    Schwarz Cutoff:          1E-12
    Fitting Condition:       1E-12

   => Auxiliary Basis Set <=

  Basis Set: 
    Number of shells: 492
    Number of basis function: 1660
    Number of Cartesian functions: 2038
    Spherical Harmonics?: true
    Max angular momentum: 4

  Minimum eigenvalue in the overlap matrix is 1.5691191913E-06.
  Using Symmetric Orthogonalization.
  SCF Guess: Reading in previously saved MOs, projecting if necessary.

  Using orbitals from previous SCF, no projection.
  Recomputing DOCC and SOCC from number of alpha and beta electrons from previous calculation.
              A 
    DOCC [    33 ]

  ==> Iterations <==

                           Total Energy        Delta E     RMS |[F,P]|

   @DF-RHF iter   0:  -313.53867249269149   -3.13539e+02   1.55223e-07 
   @DF-RHF iter   1:  -313.53868980492882   -1.73122e-05   3.27217e-08 
   @DF-RHF iter   2:  -313.53868980557820   -6.49379e-10   1.28924e-08 DIIS
   @DF-RHF iter   3:  -313.53868980567358   -9.53833e-11   5.95546e-09 DIIS
   @DF-RHF iter   4:  -313.53868980569280   -1.92131e-11   6.33173e-10 DIIS
   @DF-RHF iter   5:  -313.53868980569246    3.41061e-13   1.83358e-10 DIIS
   @DF-RHF iter   6:  -313.53868980569280   -3.41061e-13   4.93673e-11 DIIS

  ==> Post-Iterations <==

    Orbital Energies (a.u.)
    -----------------------

    Doubly Occupied:                                                      

       1A    -11.212447     2A    -11.212353     3A    -11.211047  
       4A    -11.210690     5A    -11.209902     6A    -11.209272  
       7A    -11.207248     8A    -11.206451     9A     -1.093773  
      10A     -1.059620    11A     -1.008135    12A     -0.949965  
      13A     -0.884341    14A     -0.827765    15A     -0.788737  
      16A     -0.756769    17A     -0.654852    18A     -0.625156  
      19A     -0.617244    20A     -0.582231    21A     -0.571546  
      22A     -0.565232    23A     -0.542899    24A     -0.530311  
      25A     -0.527309    26A     -0.493139    27A     -0.488161  
      28A     -0.475525    29A     -0.466213    30A     -0.463116  
      31A     -0.448450    32A     -0.439256    33A     -0.430828  

    Virtual:                                                              

      34A      0.028446    35A      0.032551    36A      0.034438  
      37A      0.035139    38A      0.046670    39A      0.048324  
      40A      0.049546    41A      0.053680    42A      0.056341  
      43A      0.066504    44A      0.068842    45A      0.070567  
      46A      0.075684    47A      0.079423    48A      0.080576  
      49A      0.092478    50A      0.096279    51A      0.102459  
      52A      0.113362    53A      0.116593    54A      0.121187  
      55A      0.122505    56A      0.126320    57A      0.128099  
      58A      0.136490    59A      0.137724    60A      0.139880  
      61A      0.143309    62A      0.148554    63A      0.151023  
      64A      0.156219    65A      0.157674    66A      0.162205  
      67A      0.165961    68A      0.170414    69A      0.171334  
      70A      0.174824    71A      0.179038    72A      0.182081  
      73A      0.186781    74A      0.192170    75A      0.204773  
      76A      0.209048    77A      0.211221    78A      0.217909  
      79A      0.224773    80A      0.234488    81A      0.237783  
      82A      0.242931    83A      0.259184    84A      0.260358  
      85A      0.265110    86A      0.268402    87A      0.273295  
      88A      0.276553    89A      0.289472    90A      0.294004  
      91A      0.303050    92A      0.304444    93A      0.307026  
      94A      0.312093    95A      0.319397    96A      0.324158  
      97A      0.327410    98A      0.328914    99A      0.332473  
     100A      0.334341   101A      0.340674   102A      0.345087  
     103A      0.348222   104A      0.357017   105A      0.358432  
     106A      0.361185   107A      0.363868   108A      0.365962  
     109A      0.371993   110A      0.374112   111A      0.377015  
     112A      0.381381   113A      0.382000   114A      0.385606  
     115A      0.390946   116A      0.399253   117A      0.402194  
     118A      0.403316   119A      0.410345   120A      0.411340  
     121A      0.414505   122A      0.417874   123A      0.421839  
     124A      0.426838   125A      0.433904   126A      0.438395  
     127A      0.438974   128A      0.448400   129A      0.451667  
     130A      0.452828   131A      0.455820   132A      0.459986  
     133A      0.463780   134A      0.464877   135A      0.470964  
     136A      0.475262   137A      0.478262   138A      0.480674  
     139A      0.485335   140A      0.489894   141A      0.492103  
     142A      0.493751   143A      0.500895   144A      0.506743  
     145A      0.508189   146A      0.514631   147A      0.516050  
     148A      0.519270   149A      0.527953   150A      0.529900  
     151A      0.537471   152A      0.540824   153A      0.541248  
     154A      0.546217   155A      0.548769   156A      0.552390  
     157A      0.555898   158A      0.560572   159A      0.568839  
     160A      0.574868   161A      0.578869   162A      0.582368  
     163A      0.584471   164A      0.588866   165A      0.596324  
     166A      0.601789   167A      0.607985   168A      0.609748  
     169A      0.613854   170A      0.617313   171A      0.626853  
     172A      0.629178   173A      0.634719   174A      0.639839  
     175A      0.644519   176A      0.647445   177A      0.655986  
     178A      0.659783   179A      0.663707   180A      0.666089  
     181A      0.675174   182A      0.677743   183A      0.682011  
     184A      0.686963   185A      0.690333   186A      0.700343  
     187A      0.707850   188A      0.712924   189A      0.718374  
     190A      0.721244   191A      0.728310   192A      0.730061  
     193A      0.737438   194A      0.739230   195A      0.745823  
     196A      0.759343   197A      0.763660   198A      0.773314  
     199A      0.781834   200A      0.787539   201A      0.799359  
     202A      0.810474   203A      0.823185   204A      0.826172  
     205A      0.833003   206A      0.835620   207A      0.844837  
     208A      0.848882   209A      0.860069   210A      0.864013  
     211A      0.868273   212A      0.869654   213A      0.871221  
     214A      0.881603   215A      0.889587   216A      0.897345  
     217A      0.904827   218A      0.908408   219A      0.914660  
     220A      0.918004   221A      0.923911   222A      0.926161  
     223A      0.931819   224A      0.934347   225A      0.942044  
     226A      0.945450   227A      0.949896   228A      0.952023  
     229A      0.957233   230A      0.963182   231A      0.969040  
     232A      0.971712   233A      0.976975   234A      0.982840  
     235A      0.985948   236A      0.989157   237A      1.001653  
     238A      1.003134   239A      1.006950   240A      1.011970  
     241A      1.014142   242A      1.020622   243A      1.029587  
     244A      1.032756   245A      1.037324   246A      1.045994  
     247A      1.048075   248A      1.055518   249A      1.060339  
     250A      1.066024   251A      1.071655   252A      1.076571  
     253A      1.081149   254A      1.088179   255A      1.098396  
     256A      1.101930   257A      1.104005   258A      1.107828  
     259A      1.116067   260A      1.119479   261A      1.122793  
     262A      1.126064   263A      1.137479   264A      1.139776  
     265A      1.144523   266A      1.151784   267A      1.157883  
     268A      1.167215   269A      1.174632   270A      1.180725  
     271A      1.184810   272A      1.192173   273A      1.193969  
     274A      1.197603   275A      1.200741   276A      1.206044  
     277A      1.212391   278A      1.216250   279A      1.222602  
     280A      1.225809   281A      1.230982   282A      1.233272  
     283A      1.241744   284A      1.249749   285A      1.250880  
     286A      1.258077   287A      1.268817   288A      1.271287  
[...]
	Denominators (dg)(dq) or (dq)(dq) are very small.
	 Skipping Hessian update for step 11.
	Denominators (dg)(dq) or (dq)(dq) are very small.
	 Skipping Hessian update for step 10.
	Denominators (dg)(dq) or (dq)(dq) are very small.
	 Skipping Hessian update for step 9.
	Denominators (dg)(dq) or (dq)(dq) are very small.
	 Skipping Hessian update for step 8.
	Denominators (dg)(dq) or (dq)(dq) are very small.
	 Skipping Hessian update for step 7.
	Denominators (dg)(dq) or (dq)(dq) are very small.
	 Skipping Hessian update for step 6.
	Denominators (dg)(dq) or (dq)(dq) are very small.
	 Skipping Hessian update for step 5.
	Denominators (dg)(dq) or (dq)(dq) are very small.
	 Skipping Hessian update for step 4.
	Denominators (dg)(dq) or (dq)(dq) are very small.
	 Skipping Hessian update for step 3.
	Denominators (dg)(dq) or (dq)(dq) are very small.
	 Skipping Hessian update for step 2.
	Steps to be used in Hessian update: 1
	Taking RFO optimization step.
	Going to follow RFO solution 1.
	Using RFO vector 1.
	Norm of target step-size    0.00002
	Projected energy change by RFO approximation:         0.0000000000

	Back-transformation to cartesian coordinates...
	Successfully converged to displaced geometry.

	--- Internal Coordinate Step in ANG or DEG, aJ/ANG or AJ/DEG ---
	 ---------------------------------------------------------------------------
	   Coordinate                Previous        Force       Change         New 
	   ----------                --------       ------       ------       ------
	    1 R(1,2)          =      1.089728     0.000001    -0.000000     1.089728
	    2 R(1,3)          =      1.090753     0.000002    -0.000000     1.090753
	    3 R(1,4)          =      1.090719     0.000002    -0.000000     1.090719
	    4 R(1,9)          =      1.523740     0.000001    -0.000000     1.523740
	    5 R(5,6)          =      1.089976    -0.000001    -0.000000     1.089975
	    6 R(5,7)          =      1.091344    -0.000001    -0.000000     1.091344
	    7 R(5,8)          =      1.089498    -0.000001    -0.000000     1.089497
	    8 R(5,12)         =      1.524464     0.000000     0.000000     1.524465
	    9 R(9,10)         =      1.093436     0.000003    -0.000000     1.093436
	   10 R(9,11)         =      1.093406     0.000003     0.000000     1.093406
	   11 R(9,15)         =      1.523329     0.000002     0.000000     1.523329
	   12 R(12,13)        =      1.092541    -0.000002    -0.000000     1.092541
	   13 R(12,14)        =      1.092559    -0.000001    -0.000000     1.092559
	   14 R(12,24)        =      1.527249     0.000000    -0.000000     1.527249
	   15 R(15,16)        =      1.095186     0.000005     0.000000     1.095186
	   16 R(15,17)        =      1.092204     0.000006     0.000000     1.092204
	   17 R(15,18)        =      1.526170     0.000002     0.000000     1.526170
	   18 R(18,19)        =      1.095484     0.000002    -0.000000     1.095484
	   19 R(18,20)        =      1.093425     0.000003    -0.000000     1.093425
	   20 R(18,21)        =      1.534664    -0.000000    -0.000000     1.534664
	   21 R(21,22)        =      1.093541    -0.000001    -0.000000     1.093540
	   22 R(21,23)        =      1.092242    -0.000002    -0.000000     1.092242
	   23 R(21,24)        =      1.530075    -0.000000    -0.000000     1.530075
	   24 R(24,25)        =      1.094452    -0.000003    -0.000000     1.094452
	   25 R(24,26)        =      1.093908    -0.000003    -0.000000     1.093907
	   26 B(1,9,10)       =    109.744784    -0.000000     0.000001   109.744785
	   27 B(1,9,11)       =    109.817807    -0.000000    -0.000003   109.817804
	   28 B(1,9,15)       =    112.423755     0.000000     0.000002   112.423756
	   29 B(2,1,3)        =    107.916572    -0.000000     0.000007   107.916578
	   30 B(2,1,4)        =    107.914843     0.000000    -0.000002   107.914841
	   31 B(2,1,9)        =    111.705999    -0.000000     0.000007   111.706006
	   32 B(3,1,4)        =    107.690720    -0.000000    -0.000003   107.690718
	   33 B(3,1,9)        =    110.725403     0.000000     0.000007   110.725410
	   34 B(4,1,9)        =    110.733337     0.000000    -0.000016   110.733321
	   35 B(5,12,13)      =    110.141705    -0.000000    -0.000025   110.141680
	   36 B(5,12,14)      =    109.013051    -0.000000     0.000027   109.013077
	   37 B(5,12,24)      =    113.161976     0.000000     0.000011   113.161987
	   38 B(6,5,7)        =    107.867940     0.000000     0.000002   107.867943
	   39 B(6,5,8)        =    107.672553    -0.000000     0.000001   107.672553
	   40 B(6,5,12)       =    111.268420     0.000000     0.000017   111.268438
	   41 B(7,5,8)        =    107.665837    -0.000000    -0.000008   107.665829
	   42 B(7,5,12)       =    110.465961    -0.000000    -0.000002   110.465959
	   43 B(8,5,12)       =    111.731367     0.000000    -0.000011   111.731356
	   44 B(9,15,16)      =    109.194977    -0.000000     0.000001   109.194978
	   45 B(9,15,17)      =    108.989289    -0.000000    -0.000012   108.989277
	   46 B(9,15,18)      =    112.694097     0.000000     0.000017   112.694114
	   47 B(10,9,11)      =    106.427701    -0.000000    -0.000009   106.427693
	   48 B(10,9,15)      =    109.075266     0.000000    -0.000004   109.075262
	   49 B(11,9,15)      =    109.168131     0.000000     0.000012   109.168143
	   50 B(12,24,21)     =    115.692254     0.000000    -0.000012   115.692242
	   51 B(12,24,25)     =    108.502917     0.000000     0.000033   108.502950
	   52 B(12,24,26)     =    108.919510    -0.000000    -0.000033   108.919478
	   53 B(13,12,14)     =    105.976790     0.000000    -0.000025   105.976765
	   54 B(13,12,24)     =    109.818092    -0.000000    -0.000020   109.818072
	   55 B(14,12,24)     =    108.458510    -0.000000     0.000032   108.458542
	   56 B(15,18,19)     =    109.355363     0.000000    -0.000032   109.355331
	   57 B(15,18,20)     =    107.622236    -0.000000    -0.000001   107.622235
	   58 B(15,18,21)     =    114.762785     0.000000     0.000018   114.762802
	   59 B(16,15,17)     =    106.325113     0.000000     0.000008   106.325121
	   60 B(16,15,18)     =    108.859227     0.000000     0.000019   108.859245
	   61 B(17,15,18)     =    110.570623    -0.000000    -0.000033   110.570590
	   62 B(18,21,22)     =    109.378179     0.000000     0.000053   109.378232
	   63 B(18,21,23)     =    109.183368    -0.000000    -0.000017   109.183352
	   64 B(18,21,24)     =    114.315364    -0.000000    -0.000043   114.315321
	   65 B(19,18,20)     =    106.046290     0.000000    -0.000011   106.046279
	   66 B(19,18,21)     =    109.299637    -0.000000     0.000018   109.299655
	   67 B(20,18,21)     =    109.388052     0.000000     0.000007   109.388059
	   68 B(21,24,25)     =    108.845144    -0.000000     0.000026   108.845170
	   69 B(21,24,26)     =    108.075892     0.000000    -0.000019   108.075872
	   70 B(22,21,23)     =    105.905207    -0.000000    -0.000011   105.905196
	   71 B(22,21,24)     =    110.302539    -0.000000    -0.000021   110.302517
	   72 B(23,21,24)     =    107.396803     0.000000     0.000041   107.396844
	   73 B(25,24,26)     =    106.419538     0.000000     0.000006   106.419544
	   74 D(1,9,15,16)    =     58.005346    -0.000000    -0.000229    58.005117
	   75 D(1,9,15,17)    =    -57.752261     0.000000    -0.000233   -57.752494
	   76 D(1,9,15,18)    =    179.108692     0.000000    -0.000193   179.108499
	   77 D(2,1,9,10)     =     58.311974    -0.000000    -0.000072    58.311902
	   78 D(2,1,9,11)     =    -58.350679     0.000000    -0.000061   -58.350740
	   79 D(2,1,9,15)     =    179.895586    -0.000000    -0.000075   179.895510
	   80 D(3,1,9,10)     =    -61.995403    -0.000000    -0.000090   -61.995494
	   81 D(3,1,9,11)     =   -178.658057     0.000000    -0.000079  -178.658135
	   82 D(3,1,9,15)     =     59.588208    -0.000000    -0.000093    59.588115
	   83 D(4,1,9,10)     =    178.622573    -0.000000    -0.000081   178.622492
	   84 D(4,1,9,11)     =     61.959920     0.000000    -0.000070    61.959850
	   85 D(4,1,9,15)     =    -59.793815    -0.000000    -0.000084   -59.793899
	   86 D(5,12,24,21)   =     63.456376    -0.000000    -0.000107    63.456269
	   87 D(5,12,24,25)   =    -59.158526    -0.000000    -0.000159   -59.158685
	   88 D(5,12,24,26)   =   -174.613679    -0.000000    -0.000166  -174.613845
	   89 D(6,5,12,13)    =    -59.441338     0.000000     0.000174   -59.441164
	   90 D(6,5,12,14)    =     56.438086    -0.000000     0.000145    56.438231
	   91 D(6,5,12,24)    =    177.212889     0.000000     0.000211   177.213100
	   92 D(7,5,12,13)    =   -179.223370     0.000000     0.000162  -179.223208
	   93 D(7,5,12,14)    =    -63.343946    -0.000000     0.000132   -63.343814
	   94 D(7,5,12,24)    =     57.430857     0.000000     0.000199    57.431055
	   95 D(8,5,12,13)    =     60.945473     0.000000     0.000180    60.945653
	   96 D(8,5,12,14)    =    176.824897    -0.000000     0.000151   176.825048
	   97 D(8,5,12,24)    =    -62.400300     0.000000     0.000217   -62.400083
	   98 D(9,15,18,19)   =     56.927526    -0.000000    -0.000275    56.927250
	   99 D(9,15,18,20)   =    -57.842695    -0.000000    -0.000245   -57.842939
	  100 D(9,15,18,21)   =   -179.855071    -0.000000    -0.000264  -179.855335
	  101 D(10,9,15,16)   =    179.969823    -0.000000    -0.000229   179.969594
	  102 D(10,9,15,17)   =     64.212216     0.000000    -0.000233    64.211983
	  103 D(10,9,15,18)   =    -58.926831     0.000000    -0.000193   -58.927024
	  104 D(11,9,15,16)   =    -64.117310    -0.000000    -0.000235   -64.117544
	  105 D(11,9,15,17)   =   -179.874917     0.000000    -0.000239  -179.875155
	  106 D(11,9,15,18)   =     56.986036     0.000000    -0.000199    56.985837
	  107 D(12,24,21,18)  =     61.082983    -0.000000    -0.000086    61.082897
	  108 D(12,24,21,22)  =    -62.654069    -0.000000    -0.000107   -62.654176
	  109 D(12,24,21,23)  =   -177.622766    -0.000000    -0.000105  -177.622872
	  110 D(13,12,24,21)  =    -60.067598    -0.000000    -0.000067   -60.067665
	  111 D(13,12,24,25)  =    177.317500    -0.000000    -0.000118   177.317381
	  112 D(13,12,24,26)  =     61.862347    -0.000000    -0.000126    61.862221
	  113 D(14,12,24,21)  =   -175.454943     0.000000    -0.000044  -175.454987
	  114 D(14,12,24,25)  =     61.930155     0.000000    -0.000096    61.930059
	  115 D(14,12,24,26)  =    -53.524998    -0.000000    -0.000103   -53.525101
	  116 D(15,18,21,22)  =     30.581013    -0.000000    -0.000196    30.580817
	  117 D(15,18,21,23)  =    146.045623    -0.000000    -0.000189   146.045434
	  118 D(15,18,21,24)  =    -93.650809    -0.000000    -0.000178   -93.650986
	  119 D(16,15,18,19)  =    178.222065    -0.000000    -0.000250   178.221815
	  120 D(16,15,18,20)  =     63.451844     0.000000    -0.000219    63.451625
	  121 D(16,15,18,21)  =    -58.560532    -0.000000    -0.000238   -58.560770
	  122 D(17,15,18,19)  =    -65.325522    -0.000000    -0.000248   -65.325769
	  123 D(17,15,18,20)  =    179.904257    -0.000000    -0.000217   179.904041
	  124 D(17,15,18,21)  =     57.891881    -0.000000    -0.000236    57.891645
	  125 D(18,21,24,25)  =   -176.483503     0.000000    -0.000031  -176.483534
	  126 D(18,21,24,26)  =    -61.295938     0.000000    -0.000020   -61.295959
	  127 D(19,18,21,22)  =    153.828247    -0.000000    -0.000211   153.828036
	  128 D(19,18,21,23)  =    -90.707142    -0.000000    -0.000205   -90.707347
	  129 D(19,18,21,24)  =     29.596426    -0.000000    -0.000193    29.596233
	  130 D(20,18,21,22)  =    -90.468028    -0.000000    -0.000211   -90.468240
	  131 D(20,18,21,23)  =     24.996583    -0.000000    -0.000205    24.996378
	  132 D(20,18,21,24)  =    145.300150     0.000000    -0.000193   145.299957
	  133 D(22,21,24,25)  =     59.779445    -0.000000    -0.000052    59.779393
	  134 D(22,21,24,26)  =    174.967010    -0.000000    -0.000041   174.966969
	  135 D(23,21,24,25)  =    -55.189252    -0.000000    -0.000050   -55.189302
	  136 D(23,21,24,26)  =     59.998313    -0.000000    -0.000040    59.998273
	  137 R(5,15)         =      3.664948    -0.000001    -0.000003     3.664945
	  138 R(12,15)        =      3.420951    -0.000001     0.000001     3.420952
	 ---------------------------------------------------------------------------

  ==> Convergence Check <==

  Measures of convergence in internal coordinates in au.
  Criteria marked as inactive (o), active & met (*), and active & unmet ( ).
  ---------------------------------------------------------------------------------------------
   Step     Total Energy     Delta E     MAX Force     RMS Force      MAX Disp      RMS Disp   
  ---------------------------------------------------------------------------------------------
    Convergence Criteria             o    2.00e-06 *    1.00e-06 *    6.00e-06 *    4.00e-06 *
  ---------------------------------------------------------------------------------------------
     21    -314.98143141    4.92e-10 o    6.90e-07 *    1.37e-07 *    5.87e-06 *    2.09e-06 *  ~
  ---------------------------------------------------------------------------------------------


  **** Optimization is complete! (in 21 steps) ****

  ==> Optimization Summary <==

  Measures of convergence in internal coordinates in au.
  --------------------------------------------------------------------------------------------------------------- ~
   Step         Total Energy             Delta E       MAX Force       RMS Force        MAX Disp        RMS Disp  ~
  --------------------------------------------------------------------------------------------------------------- ~
      1    -314.981431412278   -314.981431412278      0.00000168      0.00000030      0.00004319      0.00001516  ~
      2    -314.981431413276     -0.000000000998      0.00000100      0.00000022      0.00002961      0.00001181  ~
      3    -314.981431415220     -0.000000001945      0.00000070      0.00000016      0.00003233      0.00001205  ~
      4    -314.981431415667     -0.000000000447      0.00000142      0.00000028      0.00003588      0.00001387  ~
      5    -314.981431412950      0.000000002717      0.00000250      0.00000057      0.00021488      0.00007613  ~
      6    -314.981431408985      0.000000003966      0.00001987      0.00000375      0.00021377      0.00007803  ~
      7    -314.981431411813     -0.000000002828      0.00000094      0.00000018      0.00000737      0.00000323  ~
      8    -314.981431414482     -0.000000002670      0.00000098      0.00000023      0.00000769      0.00000342  ~
      9    -314.981431417499     -0.000000003017      0.00000110      0.00000022      0.00001698      0.00000671  ~
     10    -314.981431415957      0.000000001542      0.00000046      0.00000010      0.00000783      0.00000280  ~
     11    -314.981431411721      0.000000004236      0.00000075      0.00000014      0.00002254      0.00000388  ~
     12    -314.981431415857     -0.000000004135      0.00000153      0.00000027      0.00001512      0.00000340  ~
     13    -314.981431415071      0.000000000785      0.00000251      0.00000059      0.00008175      0.00002151  ~
     14    -314.981431408425      0.000000006646      0.00000588      0.00000111      0.00008340      0.00002057  ~
     15    -314.981431412187     -0.000000003762      0.00000150      0.00000029      0.00001004      0.00000345  ~
     16    -314.981431412269     -0.000000000082      0.00000086      0.00000023      0.00001084      0.00000330  ~
     17    -314.981431413603     -0.000000001334      0.00000118      0.00000022      0.00000748      0.00000252  ~
     18    -314.981431409958      0.000000003645      0.00000145      0.00000031      0.00000919      0.00000350  ~
     19    -314.981431411407     -0.000000001448      0.00000112      0.00000027      0.00004697      0.00001489  ~
     20    -314.981431413920     -0.000000002513      0.00000302      0.00000058      0.00004392      0.00001272  ~
     21    -314.981431413427      0.000000000492      0.00000069      0.00000014      0.00000587      0.00000209  ~
  --------------------------------------------------------------------------------------------------------------- ~

	Writing optimization data to binary file.
	Final energy is   -314.9814314134275
	Final (previous) structure:
	Cartesian Geometry (in Angstrom)
	    C    -3.3705095454   1.0601961683   0.0275779870
	    H    -4.3559788191   1.0123548502  -0.4350980205
	    H    -2.8887281991   1.9810766542  -0.3034922315
	    H    -3.5097124395   1.1285814551   1.1072141190
	    C     2.0630011621   1.6794163280   0.4516817826
	    H     1.9773046304   2.7140293851   0.1195993950
	    H     3.0051097545   1.5785060090   0.9932357555
	    H     1.2543600723   1.4903545417   1.1569197108
	    C    -2.5201508596  -0.1522937760  -0.3309513391
	    H    -2.4113899824  -0.2191237015  -1.4169102676
	    H    -3.0274169035  -1.0676118863  -0.0140764941
	    C     2.0202755367   0.7146864748  -0.7279208839
	    H     1.0811491832   0.8297702257  -1.2742213168
	    H     2.8123844867   0.9787424382  -1.4325654238
	    C    -1.1371775634  -0.1008573759   0.3056574823
	    H    -1.2438400224  -0.0333435805   1.3935439016
	    H    -0.6340572862   0.8154091630  -0.0109415377
	    C    -0.2877885795  -1.3230778970  -0.0318486305
	    H    -0.2022892895  -1.4165431342  -1.1199842026
	    H    -0.8331827123  -2.2086420630   0.3056418365
	    C     1.1157004480  -1.3218199721   0.5889659003
	    H     1.0907097616  -0.7849488895   1.5413188860
	    H     1.4019642888  -2.3476948105   0.8310947559
	    C     2.2050049134  -0.7447083204  -0.3173935384
	    H     3.1722965538  -0.8444729179   0.1848208955
	    H     2.2592829734  -1.3625022123  -1.2185142529
	Saving final (previous) structure.
			--------------------------
			 OPTKING Finished Execution 
			--------------------------

    Final optimized geometry and variables:
    Molecular point group: c1
    Full point group: C1

    Geometry (in Angstrom), charge = 0, multiplicity = 1:

    C           -3.370509545375     1.060196168337     0.027577987039
    H           -4.355978819063     1.012354850245    -0.435098020533
    H           -2.888728199085     1.981076654217    -0.303492231541
    H           -3.509712439513     1.128581455110     1.107214118981
    C            2.063001162135     1.679416328045     0.451681782568
    H            1.977304630430     2.714029385118     0.119599394997
    H            3.005109754481     1.578506009045     0.993235755478
    H            1.254360072308     1.490354541661     1.156919710788
    C           -2.520150859611    -0.152293775987    -0.330951339122
    H           -2.411389982390    -0.219123701495    -1.416910267633
    H           -3.027416903506    -1.067611886296    -0.014076494119
    C            2.020275536686     0.714686474808    -0.727920883908
    H            1.081149183248     0.829770225710    -1.274221316830
    H            2.812384486706     0.978742438215    -1.432565423813
    C           -1.137177563443    -0.100857375871     0.305657482268
    H           -1.243840022442    -0.033343580483     1.393543901598
    H           -0.634057286241     0.815409163023    -0.010941537715
    C           -0.287788579454    -1.323077896951    -0.031848630492
    H           -0.202289289471    -1.416543134164    -1.119984202589
    H           -0.833182712287    -2.208642062967     0.305641836498
    C            1.115700448004    -1.321819972070     0.588965900274
    H            1.090709761649    -0.784948889546     1.541318885951
    H            1.401964288834    -2.347694810523     0.831094755860
    C            2.205004913432    -0.744708320401    -0.317393538433
    H            3.172296553810    -0.844472917934     0.184820895532
    H            2.259282973423    -1.362502212265    -1.218514252911

	Cleaning optimization helper files.

*** Psi4 exiting successfully. Buy a developer a beer!
