    -----------------------------------------------------------------------
          Psi4: An Open-Source Ab Initio Electronic Structure Package
                              Psi4 1.0.0 Driver

                          Git: Rev {master} 6a9a71b dirty

    J. M. Turney, A. C. Simmonett, R. M. Parrish, E. G. Hohenstein,
    F. A. Evangelista, J. T. Fermann, B. J. Mintz, L. A. Burns, J. J. Wilke,
    M. L. Abrams, N. J. Russ, M. L. Leininger, C. L. Janssen, E. T. Seidl,
    W. D. Allen, H. F. Schaefer, R. A. King, E. F. Valeev, C. D. Sherrill,
    and T. D. Crawford, WIREs Comput. Mol. Sci. 2, 556-565 (2012)
    (doi: 10.1002/wcms.93)

                         Additional Contributions by
    A. E. DePrince, U. Bozkaya, A. Yu. Sokolov, D. G. A. Smith, R. Di Remigio,
    R. M. Richard, J. F. Gonthier, H. R. McAlexander, M. Saitow, and
    B. P. Pritchard
    -----------------------------------------------------------------------


    Psi4 started on: Tue Sep 20 22:40:02 2016

    Process ID:   3989
    PSI4DATADIR: /usr/local/hpc5/psi4conda/share/psi4
    Memory level set to 256.000 MB

  ==> Input File <==

--------------------------------------------------------------------------
memory 60 Gb

molecule molecule_29_psi {
0 1
C            0.770792233362     3.582961872610     0.236603229649
H            0.713303411477     4.671150555738     0.243610008772
H            1.335226486136     3.288036509190    -0.647134085456
H            1.339007019542     3.271750624778     1.114958860101
C           -0.770766606863    -3.582969721326     0.236761380796
H           -0.713261917027    -4.671157531902     0.243802106736
H           -1.335268947022    -3.288083897395    -0.646945563712
H           -1.338922635163    -3.271735913508     1.115147274506
C           -0.619771512706     2.956886848127     0.247743324827
H           -1.159998980288     3.246719974786    -0.657792781153
H           -1.187540667553     3.358295178627     1.090104913597
C            0.619789608462    -2.956875525076     0.247779305208
H            1.187626331506    -3.358256386331     1.090108544260
H            1.159953253700    -3.246725733008    -0.657789697013
C           -0.591153237735     1.433347669088     0.346555317191
H           -1.615671461329     1.057325331219     0.430970783038
H           -0.077515730760     1.148553960954     1.268929546970
C            0.077149179234     0.759648876790    -0.848463781582
H            1.141957573546     1.006840445117    -0.868980327279
H           -0.356550533628     1.167103846587    -1.767187981310
C           -0.077205023244    -0.759665534202    -0.848440764216
H           -1.142014346613    -1.006856967821    -0.868892720184
H            0.356444485389    -1.167143652471    -1.767178207126
C            0.591162944631    -1.433333864615     0.346558152953
H            1.615682819932    -1.057302094352     0.430910228949
H            0.077572591450    -1.148521649056     1.268953082119
}

set globals {
  reference rhf
  g_convergence gau_verytight
  basis aug-cc-pvtz
  freeze_core true
  scf_type df
  mp_type df
}
optimize('mp2')
--------------------------------------------------------------------------
/usr/local/hpc5/psi4conda/lib/python2.7/site-packages/v2rdm_casscf/v2rdm_casscf.so loaded.

  Memory set to  60.000 GiB by Python script.
gradient() will perform analytic gradient computation.

*** tstart() called on wr31
*** at Tue Sep 20 22:40:02 2016


         ---------------------------------------------------------
                                   SCF
            by Justin Turney, Rob Parrish, and Andy Simmonett
                              RHF Reference
                       12 Threads,  60000 MiB Core
         ---------------------------------------------------------

  ==> Geometry <==

    Molecular point group: c1
    Full point group: C1

    Geometry (in Angstrom), charge = 0, multiplicity = 1:

       Center              X                  Y                   Z               Mass       
    ------------   -----------------  -----------------  -----------------  -----------------
           C          0.770792233362     3.582961872610     0.236603229649    12.000000000000
           H          0.713303411477     4.671150555738     0.243610008772     1.007825032070
           H          1.335226486136     3.288036509190    -0.647134085456     1.007825032070
           H          1.339007019542     3.271750624778     1.114958860101     1.007825032070
           C         -0.770766606863    -3.582969721326     0.236761380796    12.000000000000
           H         -0.713261917027    -4.671157531902     0.243802106736     1.007825032070
           H         -1.335268947022    -3.288083897395    -0.646945563712     1.007825032070
           H         -1.338922635163    -3.271735913508     1.115147274506     1.007825032070
           C         -0.619771512706     2.956886848127     0.247743324827    12.000000000000
           H         -1.159998980288     3.246719974786    -0.657792781153     1.007825032070
           H         -1.187540667553     3.358295178627     1.090104913597     1.007825032070
           C          0.619789608462    -2.956875525076     0.247779305208    12.000000000000
           H          1.187626331506    -3.358256386331     1.090108544260     1.007825032070
           H          1.159953253700    -3.246725733008    -0.657789697013     1.007825032070
           C         -0.591153237735     1.433347669088     0.346555317191    12.000000000000
           H         -1.615671461329     1.057325331219     0.430970783038     1.007825032070
           H         -0.077515730760     1.148553960954     1.268929546970     1.007825032070
           C          0.077149179234     0.759648876790    -0.848463781582    12.000000000000
           H          1.141957573546     1.006840445117    -0.868980327279     1.007825032070
           H         -0.356550533628     1.167103846587    -1.767187981310     1.007825032070
           C         -0.077205023244    -0.759665534202    -0.848440764216    12.000000000000
           H         -1.142014346613    -1.006856967821    -0.868892720184     1.007825032070
           H          0.356444485389    -1.167143652471    -1.767178207126     1.007825032070
           C          0.591162944631    -1.433333864615     0.346558152953    12.000000000000
           H          1.615682819932    -1.057302094352     0.430910228949     1.007825032070
           H          0.077572591450    -1.148521649056     1.268953082119     1.007825032070

  Running in c1 symmetry.

  Rotational constants: A =      0.17753  B =      0.02208  C =      0.02172 [cm^-1]
  Rotational constants: A =   5322.26552  B =    661.98801  C =    651.19429 [MHz]
  Nuclear repulsion =  390.619704859766614

  Charge       = 0
  Multiplicity = 1
  Electrons    = 66
  Nalpha       = 33
  Nbeta        = 33

  ==> Algorithm <==

  SCF Algorithm Type is DF.
  DIIS enabled.
  MOM disabled.
  Fractional occupation disabled.
  Guess Type is SAD.
  Energy threshold   = 1.00e-10
  Density threshold  = 1.00e-10
  Integral threshold = 0.00e+00

  ==> Primary Basis <==

  Basis Set: AUG-CC-PVTZ
    Number of shells: 274
    Number of basis function: 782
    Number of Cartesian functions: 890
    Spherical Harmonics?: true
    Max angular momentum: 3

  ==> Pre-Iterations <==

   -------------------------------------------------------
    Irrep   Nso     Nmo     Nalpha   Nbeta   Ndocc  Nsocc
   -------------------------------------------------------
     A        782     782       0       0       0       0
   -------------------------------------------------------
    Total     782     782      33      33      33       0
   -------------------------------------------------------

  ==> Integral Setup <==

  ==> DFJK: Density-Fitted J/K Matrices <==

    J tasked:                  Yes
    K tasked:                  Yes
    wK tasked:                  No
    OpenMP threads:             12
    Integrals threads:          12
    Memory (MB):             42915
    Algorithm:                Core
    Integral Cache:           NONE
    Schwarz Cutoff:          1E-12
    Fitting Condition:       1E-12

   => Auxiliary Basis Set <=

  Basis Set: 
    Number of shells: 492
    Number of basis function: 1660
    Number of Cartesian functions: 2038
    Spherical Harmonics?: true
    Max angular momentum: 4

  Minimum eigenvalue in the overlap matrix is 1.6919611431E-06.
  Using Symmetric Orthogonalization.
  SCF Guess: Superposition of Atomic Densities via on-the-fly atomic UHF.

  ==> Iterations <==

                           Total Energy        Delta E     RMS |[F,P]|

   @DF-RHF iter   0:  -317.26399740289520   -3.17264e+02   7.16598e-03 
   @DF-RHF iter   1:  -313.31928724321386    3.94471e+00   6.75418e-04 
   @DF-RHF iter   2:  -313.51675405593875   -1.97467e-01   2.29170e-04 DIIS
   @DF-RHF iter   3:  -313.53790008014795   -2.11460e-02   9.04356e-05 DIIS
   @DF-RHF iter   4:  -313.54186895983054   -3.96888e-03   1.69526e-05 DIIS
   @DF-RHF iter   5:  -313.54204845505450   -1.79495e-04   4.46174e-06 DIIS
   @DF-RHF iter   6:  -313.54206020892610   -1.17539e-05   1.29076e-06 DIIS
   @DF-RHF iter   7:  -313.54206117109555   -9.62169e-07   2.39414e-07 DIIS
   @DF-RHF iter   8:  -313.54206121297756   -4.18820e-08   5.50813e-08 DIIS
   @DF-RHF iter   9:  -313.54206121498333   -2.00578e-09   1.73365e-08 DIIS
   @DF-RHF iter  10:  -313.54206121517831   -1.94973e-10   4.94397e-09 DIIS
   @DF-RHF iter  11:  -313.54206121519468   -1.63709e-11   1.11900e-09 DIIS
   @DF-RHF iter  12:  -313.54206121519661   -1.93268e-12   2.77623e-10 DIIS
   @DF-RHF iter  13:  -313.54206121519525    1.36424e-12   8.60369e-11 DIIS

  ==> Post-Iterations <==

    Orbital Energies (a.u.)
    -----------------------

    Doubly Occupied:                                                      

       1A    -11.212549     2A    -11.212549     3A    -11.210201  
       4A    -11.209891     5A    -11.209504     6A    -11.209203  
       7A    -11.206345     8A    -11.206345     9A     -1.094423  
      10A     -1.060780    11A     -1.008430    12A     -0.941505  
      13A     -0.890974    14A     -0.828771    15A     -0.787805  
      16A     -0.755026    17A     -0.645373    18A     -0.624096  
      19A     -0.608875    20A     -0.593345    21A     -0.588944  
      22A     -0.565765    23A     -0.535661    24A     -0.528567  
      25A     -0.519884    26A     -0.497859    27A     -0.491643  
      28A     -0.470586    29A     -0.467639    30A     -0.459748  
      31A     -0.446650    32A     -0.438889    33A     -0.434563  

    Virtual:                                                              

      34A      0.030485    35A      0.032457    36A      0.034853  
      37A      0.035313    38A      0.043918    39A      0.047970  
      40A      0.049633    41A      0.054038    42A      0.056117  
      43A      0.061874    44A      0.068573    45A      0.070687  
      46A      0.071475    47A      0.080687    48A      0.086761  
      49A      0.093622    50A      0.100467    51A      0.103876  
      52A      0.116591    53A      0.118219    54A      0.118852  
      55A      0.121138    56A      0.123817    57A      0.129565  
      58A      0.130522    59A      0.133268    60A      0.136437  
      61A      0.138970    62A      0.145604    63A      0.153972  
      64A      0.154870    65A      0.155226    66A      0.162112  
      67A      0.166344    68A      0.168904    69A      0.174517  
      70A      0.175357    71A      0.176433    72A      0.180512  
      73A      0.186288    74A      0.191065    75A      0.196311  
      76A      0.201617    77A      0.213444    78A      0.221981  
      79A      0.231962    80A      0.240626    81A      0.242411  
      82A      0.250052    83A      0.255290    84A      0.262162  
      85A      0.269868    86A      0.272192    87A      0.276070  
      88A      0.286101    89A      0.286443    90A      0.296162  
      91A      0.300836    92A      0.305544    93A      0.306608  
      94A      0.310066    95A      0.319634    96A      0.321907  
      97A      0.322821    98A      0.329015    99A      0.334353  
     100A      0.334775   101A      0.338444   102A      0.340527  
     103A      0.344413   104A      0.349864   105A      0.353252  
     106A      0.354504   107A      0.358179   108A      0.363361  
     109A      0.368485   110A      0.370016   111A      0.372628  
     112A      0.375315   113A      0.375917   114A      0.383463  
     115A      0.386922   116A      0.391259   117A      0.394144  
     118A      0.397928   119A      0.402124   120A      0.411451  
     121A      0.414224   122A      0.420471   123A      0.422552  
     124A      0.424854   125A      0.427637   126A      0.432494  
     127A      0.436793   128A      0.441243   129A      0.449761  
     130A      0.450052   131A      0.454914   132A      0.461158  
     133A      0.468513   134A      0.470195   135A      0.473637  
     136A      0.473799   137A      0.476012   138A      0.479720  
     139A      0.481523   140A      0.489098   141A      0.495863  
     142A      0.497257   143A      0.501183   144A      0.505095  
     145A      0.505584   146A      0.505810   147A      0.513410  
     148A      0.516040   149A      0.517784   150A      0.521416  
     151A      0.524545   152A      0.532382   153A      0.537032  
     154A      0.538027   155A      0.542140   156A      0.546340  
     157A      0.546819   158A      0.553519   159A      0.556267  
     160A      0.564896   161A      0.570089   162A      0.573750  
     163A      0.579982   164A      0.585181   165A      0.587583  
     166A      0.592892   167A      0.600987   168A      0.606732  
     169A      0.607515   170A      0.613586   171A      0.616544  
     172A      0.617605   173A      0.629481   174A      0.633140  
     175A      0.633196   176A      0.643708   177A      0.645783  
     178A      0.648383   179A      0.651066   180A      0.666222  
     181A      0.668469   182A      0.674484   183A      0.678695  
     184A      0.688701   185A      0.694857   186A      0.696891  
     187A      0.700484   188A      0.702687   189A      0.703353  
     190A      0.720076   191A      0.720568   192A      0.729583  
     193A      0.736728   194A      0.742101   195A      0.749999  
     196A      0.757874   197A      0.760373   198A      0.760434  
     199A      0.781026   200A      0.799929   201A      0.809231  
     202A      0.812682   203A      0.818769   204A      0.825051  
     205A      0.825133   206A      0.837236   207A      0.840001  
     208A      0.844496   209A      0.858235   210A      0.859695  
     211A      0.866087   212A      0.867438   213A      0.870736  
     214A      0.874227   215A      0.877726   216A      0.886738  
     217A      0.887201   218A      0.902197   219A      0.903108  
     220A      0.911568   221A      0.915467   222A      0.916278  
     223A      0.928971   224A      0.932366   225A      0.937744  
     226A      0.943012   227A      0.950303   228A      0.953708  
     229A      0.958089   230A      0.962514   231A      0.966091  
     232A      0.969594   233A      0.972704   234A      0.974882  
     235A      0.977066   236A      0.984648   237A      0.988531  
     238A      0.993287   239A      0.999003   240A      1.005933  
     241A      1.006993   242A      1.016414   243A      1.022675  
     244A      1.022868   245A      1.031686   246A      1.038801  
     247A      1.042625   248A      1.047991   249A      1.055151  
     250A      1.060533   251A      1.071322   252A      1.075579  
     253A      1.077978   254A      1.079697   255A      1.081630  
     256A      1.091289   257A      1.095211   258A      1.100094  
     259A      1.103752   260A      1.116377   261A      1.118847  
     262A      1.123606   263A      1.126539   264A      1.128667  
     265A      1.130485   266A      1.139018   267A      1.142085  
     268A      1.143420   269A      1.149660   270A      1.152472  
     271A      1.155533   272A      1.167481   273A      1.169799  
     274A      1.183880   275A      1.185214   276A      1.195993  
     277A      1.199923   278A      1.201760   279A      1.206971  
     280A      1.216741   281A      1.217648   282A      1.218616  
     283A      1.227474   284A      1.232382   285A      1.237673  
     286A      1.245731   287A      1.253793   288A      1.257660  
     289A      1.263115   290A      1.266744   291A      1.267288  
     292A      1.275564   293A      1.278851   294A      1.278954  
     295A      1.290924   296A      1.292262   297A      1.308880  
     298A      1.309476   299A      1.313955   300A      1.317434  
     301A      1.322532   302A      1.342604   303A      1.352802  
     304A      1.361680   305A      1.363820   306A      1.368017  
     307A      1.373068   308A      1.384523   309A      1.385339  
     310A      1.407980   311A      1.415734   312A      1.416082  
     313A      1.424315   314A      1.426893   315A      1.430207  
     316A      1.442735   317A      1.444171   318A      1.454011  
     319A      1.458633   320A      1.462976   321A      1.474562  
     322A      1.476234   323A      1.480730   324A      1.497033  
     325A      1.499309   326A      1.506170   327A      1.515085  
     328A      1.518772   329A      1.532577   330A      1.541234  
     331A      1.546416   332A      1.549940   333A      1.556875  
     334A      1.560924   335A      1.568813   336A      1.585649  
     337A      1.589213   338A      1.606286   339A      1.611322  
     340A      1.624697   341A      1.632476   342A      1.634577  
     343A      1.635262   344A      1.651085   345A      1.660139  
     346A      1.666881   347A      1.671535   348A      1.672152  
     349A      1.680886   350A      1.686051   351A      1.686118  
     352A      1.692669   353A      1.701691   354A      1.702265  
     355A      1.710210   356A      1.716254   357A      1.719435  
     358A      1.720766   359A      1.733137   360A      1.733388  
     361A      1.745484   362A      1.757068   363A      1.759959  
     364A      1.763172   365A      1.763516   366A      1.769969  
     367A      1.777713   368A      1.783278   369A      1.790314  
     370A      1.793107   371A      1.796683   372A      1.807005  
     373A      1.809421   374A      1.822155   375A      1.833801  
     376A      1.835332   377A      1.845982   378A      1.852089  
     379A      1.853872   380A      1.857108   381A      1.867282  
     382A      1.870576   383A      1.882501   384A      1.882523  
     385A      1.895664   386A      1.897341   387A      1.906530  
     388A      1.912359   389A      1.919380   390A      1.925097  
     391A      1.929113   392A      1.942047   393A      1.947368  
     394A      1.952625   395A      1.967134   396A      1.970346  
     397A      1.974642   398A      1.979014   399A      1.991535  
     400A      1.995250   401A      1.995670   402A      2.001802  
     403A      2.012164   404A      2.017986   405A      2.026592  
     406A      2.033298   407A      2.036740   408A      2.041718  
     409A      2.049343   410A      2.054444   411A      2.061743  
     412A      2.071157   413A      2.079948   414A      2.080325  
     415A      2.091996   416A      2.101094   417A      2.108120  
     418A      2.116267   419A      2.117699   420A      2.123172  
     421A      2.132839   422A      2.134422   423A      2.146214  
     424A      2.147554   425A      2.152613   426A      2.164278  
     427A      2.171505   428A      2.180429   429A      2.197597  
     430A      2.201083   431A      2.218132   432A      2.226692  
     433A      2.236684   434A      2.257458   435A      2.258872  
     436A      2.266752   437A      2.287099   438A      2.292571  
     439A      2.299765   440A      2.308479   441A      2.321151  
     442A      2.323865   443A      2.331025   444A      2.337959  
     445A      2.342526   446A      2.354851   447A      2.354954  
     448A      2.357940   449A      2.365753   450A      2.367226  
     451A      2.386100   452A      2.404424   453A      2.412425  
     454A      2.428787   455A      2.436864   456A      2.458562  
     457A      2.461638   458A      2.475338   459A      2.475494  
     460A      2.478024   461A      2.495042   462A      2.502614  
     463A      2.525227   464A      2.534547   465A      2.543138  
     466A      2.559510   467A      2.562137   468A      2.578619  
     469A      2.588233   470A      2.607124   471A      2.611076  
     472A      2.627365   473A      2.647889   474A      2.662567  
     475A      2.682360   476A      2.686263   477A      2.708280  
     478A      2.737568   479A      2.748460   480A      2.752781  
     481A      2.757690   482A      2.794366   483A      2.815167  
     484A      2.815995   485A      2.894232   486A      2.955551  
     487A      2.962856   488A      3.016468   489A      3.033513  
     490A      3.112038   491A      3.154801   492A      3.173640  
     493A      3.281259   494A      3.309388   495A      3.328069  
     496A      3.425591   497A      3.433028   498A      3.450454  
     499A      3.469978   500A      3.474828   501A      3.479919  
     502A      3.480907   503A      3.500050   504A      3.506176  
     505A      3.511474   506A      3.552231   507A      3.557357  
     508A      3.574752   509A      3.577211   510A      3.587630  
     511A      3.598558   512A      3.607389   513A      3.624634  
     514A      3.632355   515A      3.639878   516A      3.657851  
     517A      3.662449   518A      3.667858   519A      3.670650  
     520A      3.677842   521A      3.704849   522A      3.712787  
     523A      3.715188   524A      3.724933   525A      3.727524  
     526A      3.737469   527A      3.745684   528A      3.770094  
     529A      3.772833   530A      3.778685   531A      3.781559  
     532A      3.792145   533A      3.798023   534A      3.813871  
     535A      3.819447   536A      3.838740   537A      3.840632  
     538A      3.852728   539A      3.853328   540A      3.868418  
     541A      3.872188   542A      3.882428   543A      3.883752  
     544A      3.901065   545A      3.915249   546A      3.924144  
     547A      3.932664   548A      3.936650   549A      3.946228  
     550A      3.947187   551A      3.963018   552A      3.972818  
     553A      3.976397   554A      3.988604   555A      3.989528  
     556A      3.995403   557A      4.000307   558A      4.012486  
     559A      4.015271   560A      4.016380   561A      4.022713  
     562A      4.027144   563A      4.038135   564A      4.038571  
     565A      4.043729   566A      4.048366   567A      4.062312  
     568A      4.063567   569A      4.067751   570A      4.081760  
     571A      4.093068   572A      4.102482   573A      4.103494  
     574A      4.106045   575A      4.134295   576A      4.135351  
     577A      4.145268   578A      4.146284   579A      4.159349  
     580A      4.163616   581A      4.171860   582A      4.183593  
     583A      4.199944   584A      4.203810   585A      4.221190  
     586A      4.221254   587A      4.236028   588A      4.244633  
     589A      4.247940   590A      4.264435   591A      4.277701  
     592A      4.280055   593A      4.304617   594A      4.312021  
     595A      4.323683   596A      4.329382   597A      4.349419  
     598A      4.358885   599A      4.359846   600A      4.367943  
     601A      4.375511   602A      4.393990   603A      4.396672  
     604A      4.399236   605A      4.400045   606A      4.408751  
     607A      4.434003   608A      4.442577   609A      4.446137  
     610A      4.449624   611A      4.500096   612A      4.529983  
     613A      4.536078   614A      4.549810   615A      4.570539  
     616A      4.582664   617A      4.587614   618A      4.594922  
     619A      4.603386   620A      4.621805   621A      4.631753  
     622A      4.642938   623A      4.666745   624A      4.666987  
     625A      4.691101   626A      4.701788   627A      4.705251  
     628A      4.714944   629A      4.729673   630A      4.744641  
     631A      4.746075   632A      4.754970   633A      4.770796  
     634A      4.789900   635A      4.790133   636A      4.800780  
     637A      4.809744   638A      4.821239   639A      4.821615  
     640A      4.840035   641A      4.853177   642A      4.853818  
     643A      4.864544   644A      4.870824   645A      4.893977  
     646A      4.895601   647A      4.900234   648A      4.907936  
     649A      4.914946   650A      4.926596   651A      4.934229  
     652A      4.941360   653A      4.976877   654A      4.981018  
     655A      4.999501   656A      5.000821   657A      5.014998  
     658A      5.037660   659A      5.044431   660A      5.058304  
     661A      5.061577   662A      5.067784   663A      5.074692  
     664A      5.084721   665A      5.110335   666A      5.112487  
     667A      5.142690   668A      5.143134   669A      5.150946  
     670A      5.163994   671A      5.176110   672A      5.196340  
     673A      5.205995   674A      5.217416   675A      5.226541  
     676A      5.230632   677A      5.231095   678A      5.271324  
     679A      5.282205   680A      5.299177   681A      5.311518  
     682A      5.319881   683A      5.335087   684A      5.338962  
     685A      5.341337   686A      5.374095   687A      5.379338  
     688A      5.381984   689A      5.390575   690A      5.412774  
     691A      5.412811   692A      5.419726   693A      5.439951  
     694A      5.452055   695A      5.456834   696A      5.464303  
     697A      5.481957   698A      5.485084   699A      5.493977  
     700A      5.499812   701A      5.527347   702A      5.535141  
     703A      5.544041   704A      5.566893   705A      5.589375  
     706A      5.601634   707A      5.605778   708A      5.608244  
     709A      5.620325   710A      5.640492   711A      5.640702  
     712A      5.659509   713A      5.661015   714A      5.664844  
     715A      5.673641   716A      5.698128   717A      5.709760  
     718A      5.712949   719A      5.738501   720A      5.740661  
     721A      5.753812   722A      5.765411   723A      5.775898  
     724A      5.800721   725A      5.808626   726A      5.830079  
     727A      5.850449   728A      5.857326   729A      5.866503  
     730A      5.890953   731A      5.934289   732A      5.943907  
     733A      5.954694   734A      6.006928   735A      6.015699  
     736A      6.038267   737A      6.050310   738A      6.052111  
     739A      6.101704   740A      6.129939   741A      6.147336  
     742A      6.162407   743A      6.164136   744A      6.188406  
     745A      6.201354   746A      6.212600   747A      6.246950  
     748A      6.260156   749A      6.296442   750A      6.306698  
     751A      6.311959   752A      6.319431   753A      6.327953  
     754A      6.356075   755A      6.356428   756A      6.367078  
     757A      6.396636   758A      6.429500   759A      6.591113  
     760A      6.636380   761A      6.649646   762A      6.702196  
     763A      6.741066   764A      6.755600   765A      6.798065  
     766A      6.803232   767A      6.874964   768A      6.904499  
     769A      6.919158   770A      6.939538   771A      7.008910  
     772A      7.010450   773A      7.087178   774A      7.106392  
     775A     17.931491   776A     17.939043   777A     18.420912  
     778A     18.527026   779A     18.656585   780A     18.676537  
     781A     19.260227   782A     19.710734  

    Final Occupation by Irrep:
              A 
    DOCC [    33 ]

  Energy converged.

  @DF-RHF Final Energy:  -313.54206121519525

   => Energetics <=

    Nuclear Repulsion Energy =            390.6197048597666139
    One-Electron Energy =               -1196.3987579176418876
    Two-Electron Energy =                 492.2369918426797426
    DFT Exchange-Correlation Energy =       0.0000000000000000
    Empirical Dispersion Energy =           0.0000000000000000
    PCM Polarization Energy =               0.0000000000000000
    EFP Energy =                            0.0000000000000000
    Total Energy =                       -313.5420612151954742


  Saving occupied orbitals to File 180.

*** tstop() called on wr31 at Tue Sep 20 22:41:17 2016
Module time:
	user time   =     805.57 seconds =      13.43 minutes
	system time =       9.87 seconds =       0.16 minutes
	total time  =         75 seconds =       1.25 minutes
Total time:
	user time   =     805.57 seconds =      13.43 minutes
	system time =       9.87 seconds =       0.16 minutes
	total time  =         75 seconds =       1.25 minutes


Properties will be evaluated at   0.000000,   0.000000,   0.000000 Bohr

Properties computed using the SCF density matrix

  Nuclear Dipole Moment: (a.u.)
     X:     0.0000      Y:    -0.0000      Z:     0.3896

  Electronic Dipole Moment: (a.u.)
     X:    -0.0000      Y:     0.0000      Z:    -0.3875

  Dipole Moment: (a.u.)
     X:     0.0000      Y:     0.0000      Z:     0.0021     Total:     0.0021

  Dipole Moment: (Debye)
     X:     0.0000      Y:     0.0000      Z:     0.0053     Total:     0.0053


  //>>>>>>>>>>>>>>>>>>>>>>>>>>>>>>>>>>>//
  //               DFMP2               //
  //<<<<<<<<<<<<<<<<<<<<<<<<<<<<<<<<<<<//


*** tstart() called on wr31
*** at Tue Sep 20 22:41:17 2016


*** tstop() called on wr31 at Tue Sep 20 22:41:18 2016
Module time:
	user time   =       4.04 seconds =       0.07 minutes
	system time =       0.11 seconds =       0.00 minutes
	total time  =          1 seconds =       0.02 minutes
Total time:
	user time   =     811.06 seconds =      13.52 minutes
	system time =       9.98 seconds =       0.17 minutes
	total time  =         76 seconds =       1.27 minutes
	 --------------------------------------------------------
	                          DF-MP2                         
	      2nd-Order Density-Fitted Moller-Plesset Theory     
	              RMP2 Wavefunction,  12 Threads             
	                                                         
	        Rob Parrish, Justin Turney, Andy Simmonett,      
	           Ed Hohenstein, and C. David Sherrill          
	 --------------------------------------------------------

   => Auxiliary Basis Set <=

  Basis Set: 
    Number of shells: 476
    Number of basis function: 1676
    Number of Cartesian functions: 2078
    Spherical Harmonics?: true
    Max angular momentum: 4

	 --------------------------------------------------------
	                 NBF =   782, NAUX =  1676
	 --------------------------------------------------------
	   CLASS    FOCC     OCC    AOCC    AVIR     VIR    FVIR
	   PAIRS       8      33      25     749     749       0
	 --------------------------------------------------------

DGAS Warning! /src/lib/libfock/apps.cc:80 is not currently checking restricted

         ------------------------------------------------------------
                                     CPHF                           
                                  Rob Parrish                       
         ------------------------------------------------------------

  ==> Geometry <==

    Molecular point group: c1
    Full point group: C1

    Geometry (in Angstrom), charge = 0, multiplicity = 1:

       Center              X                  Y                   Z               Mass       
    ------------   -----------------  -----------------  -----------------  -----------------
           C          0.770792233362     3.582961872610     0.236603229649    12.000000000000
           H          0.713303411477     4.671150555738     0.243610008772     1.007825032070
           H          1.335226486136     3.288036509190    -0.647134085456     1.007825032070
           H          1.339007019542     3.271750624778     1.114958860101     1.007825032070
           C         -0.770766606863    -3.582969721326     0.236761380796    12.000000000000
           H         -0.713261917027    -4.671157531902     0.243802106736     1.007825032070
           H         -1.335268947022    -3.288083897395    -0.646945563712     1.007825032070
           H         -1.338922635163    -3.271735913508     1.115147274506     1.007825032070
           C         -0.619771512706     2.956886848127     0.247743324827    12.000000000000
           H         -1.159998980288     3.246719974786    -0.657792781153     1.007825032070
           H         -1.187540667553     3.358295178627     1.090104913597     1.007825032070
           C          0.619789608462    -2.956875525076     0.247779305208    12.000000000000
           H          1.187626331506    -3.358256386331     1.090108544260     1.007825032070
           H          1.159953253700    -3.246725733008    -0.657789697013     1.007825032070
           C         -0.591153237735     1.433347669088     0.346555317191    12.000000000000
           H         -1.615671461329     1.057325331219     0.430970783038     1.007825032070
           H         -0.077515730760     1.148553960954     1.268929546970     1.007825032070
           C          0.077149179234     0.759648876790    -0.848463781582    12.000000000000
           H          1.141957573546     1.006840445117    -0.868980327279     1.007825032070
           H         -0.356550533628     1.167103846587    -1.767187981310     1.007825032070
           C         -0.077205023244    -0.759665534202    -0.848440764216    12.000000000000
           H         -1.142014346613    -1.006856967821    -0.868892720184     1.007825032070
           H          0.356444485389    -1.167143652471    -1.767178207126     1.007825032070
           C          0.591162944631    -1.433333864615     0.346558152953    12.000000000000
           H          1.615682819932    -1.057302094352     0.430910228949     1.007825032070
           H          0.077572591450    -1.148521649056     1.268953082119     1.007825032070

  Nuclear repulsion =  390.619704859766614
  Reference energy  = -313.542061215195247

  ==> Basis Set <==

  Basis Set: AUG-CC-PVTZ
    Number of shells: 274
    Number of basis function: 782
    Number of Cartesian functions: 890
    Spherical Harmonics?: true
    Max angular momentum: 3

  ==> CGRSolver (by Rob Parrish) <==

   Number of roots    =         1
   Preconditioning    =    JACOBI
   Convergence cutoff =     1E-06
   Maximum iterations =       100

  ==> CPHFRHamiltonian (by Rob Parrish) <== 

  ==> DFJK: Density-Fitted J/K Matrices <==

    J tasked:                  Yes
    K tasked:                  Yes
    wK tasked:                  No
    OpenMP threads:             12
    Integrals threads:          12
    Memory (MB):             42915
    Algorithm:                Core
    Integral Cache:           NONE
    Schwarz Cutoff:          1E-12
    Fitting Condition:       1E-12

   => Auxiliary Basis Set <=

  Basis Set: 
    Number of shells: 492
    Number of basis function: 1660
    Number of Cartesian functions: 2038
    Spherical Harmonics?: true
    Max angular momentum: 4

  ==> CPHF Iterations <==

  => Iterations <=

             Iter  Converged  Remaining    Residual
  CGR           1          0          1   9.077E-02
  CGR           2          0          1   1.256E-02
  CGR           3          0          1   3.002E-03
  CGR           4          0          1   7.828E-04
  CGR           5          0          1   1.876E-04
  CGR           6          0          1   3.714E-05
  CGR           7          0          1   7.132E-06
  CGR           8          0          1   2.231E-06
  CGR           9          1          0   5.989E-07

    CGRSolver converged.

  ==> DFCorrGrad: Density-Fitted Correlated Gradients <==

    OpenMP threads:             12
    Integrals threads:          12
    Memory (MB):             42915
    Schwarz Cutoff:          0E+00
    Fitting Condition:       1E-12

   => Auxiliary Basis Set <=

  Basis Set: 
    Number of shells: 492
    Number of basis function: 1660
    Number of Cartesian functions: 2038
    Spherical Harmonics?: true
    Max angular momentum: 4

	-----------------------------------------------------------
	 ==================> DF-MP2 Energies <==================== 
	-----------------------------------------------------------
	 Reference Energy          =    -313.5420612151952469 [Eh]
	 Singles Energy            =      -0.0000000000000004 [Eh]
	 Same-Spin Energy          =      -0.3160276036972867 [Eh]
	 Opposite-Spin Energy      =      -1.1250441730796696 [Eh]
	 Correlation Energy        =      -1.4410717767769567 [Eh]
	 Total Energy              =    -314.9831329919721838 [Eh]
	-----------------------------------------------------------
	 ================> DF-SCS-MP2 Energies <================== 
	-----------------------------------------------------------
	 SCS Same-Spin Scale       =       0.3333333333333333 [-]
	 SCS Opposite-Spin Scale   =       1.2000000000000000 [-]
	 SCS Same-Spin Energy      =      -0.1053425345657622 [Eh]
	 SCS Opposite-Spin Energy  =      -1.3500530076956034 [Eh]
	 SCS Correlation Energy    =      -1.4553955422613660 [Eh]
	 SCS Total Energy          =    -314.9974567574566322 [Eh]
	-----------------------------------------------------------


  -Total Gradient:
     Atom            X                  Y                   Z
    ------   -----------------  -----------------  -----------------
       1       -0.000000402862    -0.000000287522    -0.000000148339
       2        0.000000015437     0.000000245340    -0.000000023402
       3        0.000000371874    -0.000000164792    -0.000000328927
       4        0.000000221524    -0.000000095543     0.000000241840
       5        0.000000566813     0.000000142722     0.000000009193
       6       -0.000000007652    -0.000000390618     0.000000028364
       7       -0.000000302704    -0.000000064307    -0.000000275979
       8       -0.000000376859     0.000000140547     0.000000343727
       9        0.000000775869    -0.000000060188     0.000000464142
      10       -0.000000212437     0.000000164859    -0.000000397443
      11       -0.000000218740     0.000000206523     0.000000325345
      12       -0.000000834216     0.000000076159    -0.000000044566
      13        0.000000172702    -0.000000207329     0.000000295520
      14        0.000000296669    -0.000000349164    -0.000000529999
      15        0.000000169204     0.000000430307    -0.000001084728
      16       -0.000000814403    -0.000000157809     0.000000148942
      17        0.000000197912    -0.000000157827     0.000000910082
      18       -0.000000900293    -0.000000831652     0.000000907790
      19        0.000001167788     0.000000518312    -0.000000050065
      20       -0.000000520448     0.000000266500    -0.000000955503
      21        0.000001096032     0.000000831832     0.000001046833
      22       -0.000000862124    -0.000000245591     0.000000033390
      23        0.000000526547    -0.000000345635    -0.000000907106
      24       -0.000000495452    -0.000000188446    -0.000000983942
      25        0.000000641294     0.000000153611     0.000000079618
      26       -0.000000271472     0.000000369716     0.000000895215


			-----------------------------------------
			 OPTKING 2.0: for geometry optimizations 
			  - R.A. King,  Bethel University        
			-----------------------------------------

	Internal coordinates to be generated automatically.
	Detected frag 1 with atoms:  1 2 3 4 5 6 7 8 9 10 11 12 13 14 15 16 17 18 19 20
	 21 22 23 24 25 26
	---Fragment 1 Bond Connectivity---
	 1 : 2 3 4 9
	 2 : 1
	 3 : 1
	 4 : 1
	 5 : 6 7 8 12
	 6 : 5
	 7 : 5
	 8 : 5
	 9 : 1 10 11 15
	 10 : 9
	 11 : 9
	 12 : 5 13 14 24
	 13 : 12
	 14 : 12
	 15 : 9 16 17 18
	 16 : 15
	 17 : 15
	 18 : 15 19 20 21
	 19 : 18
	 20 : 18
	 21 : 18 22 23 24
	 22 : 21
	 23 : 21
	 24 : 12 21 25 26
	 25 : 24
	 26 : 24

	---Fragment 1 Geometry and Gradient---
	 C           1.4565862264        6.7708166838        0.4471153062
	 H           1.3479480973        8.8271952758        0.4603561998
	 H           2.5232123842        6.2134885173       -1.2229061928
	 H           2.5303565569        6.1827126559        2.1069668950
	 C          -1.4565377993       -6.7708315157        0.4474141685
	 H          -1.3478696842       -8.8272084589        0.4607192124
	 H          -2.5232926236       -6.2135780680       -1.2225499383
	 H          -2.5301970936       -6.1826848557        2.1073229467
	 C          -1.1711984240        5.5877063489        0.4681670352
	 H          -2.1920803872        6.1354115825       -1.2430482086
	 H          -2.2441266333        6.3462581610        2.0599997428
	 C           1.1712326200       -5.5876849514        0.4682350282
	 H           2.2442885148       -6.3461848542        2.0600066038
	 H           2.1919939764       -6.1354224640       -1.2430423804
	 C          -1.1171177219        2.7086345478        0.6548946394
	 H          -3.0531765826        1.9980553094        0.8144167512
	 H          -0.1464835021        2.1704524350        2.3979293257
	 C           0.1457908201        1.4355283343       -1.6033641809
	 H           2.1579870694        1.9026527008       -1.6421348334
	 H          -0.6737828611        2.2055066387       -3.3395013100
	 C          -0.1458963500       -1.4355598122       -1.6033206843
	 H          -2.1580943549       -1.9026839242       -1.6419692800
	 H           0.6735824590       -2.2055818609       -3.3394828395
	 C           1.1171360653       -2.7086084611        0.6548999982
	 H           3.0531980473       -1.9980113981        0.8143023206
	 H           0.1465909533       -2.1703913744        2.3979738007
	            -0.0000004029       -0.0000002875       -0.0000001483
	             0.0000000154        0.0000002453       -0.0000000234
	             0.0000003719       -0.0000001648       -0.0000003289
	             0.0000002215       -0.0000000955        0.0000002418
	             0.0000005668        0.0000001427        0.0000000092
	            -0.0000000077       -0.0000003906        0.0000000284
	            -0.0000003027       -0.0000000643       -0.0000002760
	            -0.0000003769        0.0000001405        0.0000003437
	             0.0000007759       -0.0000000602        0.0000004641
	            -0.0000002124        0.0000001649       -0.0000003974
	            -0.0000002187        0.0000002065        0.0000003253
	            -0.0000008342        0.0000000762       -0.0000000446
	             0.0000001727       -0.0000002073        0.0000002955
	             0.0000002967       -0.0000003492       -0.0000005300
	             0.0000001692        0.0000004303       -0.0000010847
	            -0.0000008144       -0.0000001578        0.0000001489
	             0.0000001979       -0.0000001578        0.0000009101
	            -0.0000009003       -0.0000008317        0.0000009078
	             0.0000011678        0.0000005183       -0.0000000501
	            -0.0000005204        0.0000002665       -0.0000009555
	             0.0000010960        0.0000008318        0.0000010468
	            -0.0000008621       -0.0000002456        0.0000000334
	             0.0000005265       -0.0000003456       -0.0000009071
	            -0.0000004955       -0.0000001884       -0.0000009839
	             0.0000006413        0.0000001536        0.0000000796
	            -0.0000002715        0.0000003697        0.0000008952

	Previous optimization step data not found.  Starting new optimization.

	---Fragment 1 Intrafragment Coordinates---
	 - Coordinate -           - BOHR/RAD -       - ANG/DEG -
	 R(1,2)           =         2.059289	       1.089729
	 R(1,3)           =         2.058465	       1.089293
	 R(1,4)           =         2.062512	       1.091434
	 R(1,9)           =         2.881917	       1.525045
	 R(5,6)           =         2.059289	       1.089729
	 R(5,7)           =         2.058465	       1.089293
	 R(5,8)           =         2.062513	       1.091435
	 R(5,12)          =         2.881917	       1.525045
	 R(9,10)          =         2.066504	       1.093547
	 R(9,11)          =         2.064100	       1.092274
	 R(9,15)          =         2.885628	       1.527008
	 R(12,13)         =         2.064100	       1.092275
	 R(12,14)         =         2.066504	       1.093547
	 R(12,24)         =         2.885628	       1.527009
	 R(15,16)         =         2.068500	       1.094603
	 R(15,17)         =         2.066383	       1.093483
	 R(15,18)         =         2.883656	       1.525965
	 R(18,19)         =         2.066069	       1.093317
	 R(18,20)         =         2.068511	       1.094609
	 R(18,21)         =         2.885867	       1.527135
	 R(21,22)         =         2.066069	       1.093316
	 R(21,23)         =         2.068511	       1.094609
	 R(21,24)         =         2.883655	       1.525964
	 R(24,25)         =         2.068500	       1.094603
	 R(24,26)         =         2.066384	       1.093483
	 B(1,9,10)        =         1.913034	     109.608770
	 B(1,9,11)        =         1.905757	     109.191845
	 B(1,9,15)        =         1.974667	     113.140065
	 B(2,1,3)         =         1.878551	     107.633022
	 B(2,1,4)         =         1.882864	     107.880165
	 B(2,1,9)         =         1.940993	     111.210700
	 B(3,1,4)         =         1.881724	     107.814836
	 B(3,1,9)         =         1.946846	     111.546051
	 B(4,1,9)         =         1.930255	     110.595466
	 B(5,12,13)       =         1.905755	     109.191694
	 B(5,12,14)       =         1.913035	     109.608808
	 B(5,12,24)       =         1.974670	     113.140239
	 B(6,5,7)         =         1.878550	     107.632988
	 B(6,5,8)         =         1.882864	     107.880152
	 B(6,5,12)        =         1.940992	     111.210664
	 B(7,5,8)         =         1.881724	     107.814844
	 B(7,5,12)        =         1.946847	     111.546096
	 B(8,5,12)        =         1.930255	     110.595493
	 B(9,15,16)       =         1.907304	     109.280451
	 B(9,15,17)       =         1.899949	     108.859087
	 B(9,15,18)       =         1.980153	     113.454437
	 B(10,9,11)       =         1.859195	     106.524008
	 B(10,9,15)       =         1.904220	     109.103771
	 B(11,9,15)       =         1.903395	     109.056518
	 B(12,24,21)      =         1.980156	     113.454554
	 B(12,24,25)      =         1.907302	     109.280360
	 B(12,24,26)      =         1.899951	     108.859199
	 B(13,12,14)      =         1.859194	     106.523966
	 B(13,12,24)      =         1.903393	     109.056399
	 B(14,12,24)      =         1.904222	     109.103858
	 B(15,18,19)      =         1.919215	     109.962920
	 B(15,18,20)      =         1.895920	     108.628216
	 B(15,18,21)      =         1.976812	     113.262962
	 B(16,15,17)      =         1.859937	     106.566562
	 B(16,15,18)      =         1.895095	     108.580972
	 B(17,15,18)      =         1.917582	     109.869381
	 B(18,21,22)      =         1.900089	     108.867096
	 B(18,21,23)      =         1.907415	     109.286837
	 B(18,21,24)      =         1.976811	     113.262934
	 B(19,18,20)      =         1.860817	     106.616975
	 B(19,18,21)      =         1.900090	     108.867126
	 B(20,18,21)      =         1.907415	     109.286812
	 B(21,24,25)      =         1.895093	     108.580832
	 B(21,24,26)      =         1.917583	     109.869392
	 B(22,21,23)      =         1.860818	     106.617000
	 B(22,21,24)      =         1.919216	     109.962950
	 B(23,21,24)      =         1.895920	     108.628198
	 B(25,24,26)      =         1.859937	     106.566542
	 D(1,9,15,16)     =         3.062615	     175.474905
	 D(1,9,15,17)     =         1.037672	      59.454212
	 D(1,9,15,18)     =        -1.103211	     -63.209357
	 D(2,1,9,10)      =         1.089139	      62.403088
	 D(2,1,9,11)      =        -0.941379	     -53.937069
	 D(2,1,9,15)      =        -3.064558	    -175.586260
	 D(3,1,9,10)      =        -1.008232	     -57.767436
	 D(3,1,9,11)      =        -3.038751	    -174.107593
	 D(3,1,9,15)      =         1.121256	      64.243216
	 D(4,1,9,10)      =        -3.102349	    -177.751483
	 D(4,1,9,11)      =         1.150318	      65.908360
	 D(4,1,9,15)      =        -0.972861	     -55.740831
	 D(5,12,24,21)    =        -1.103239	     -63.210912
	 D(5,12,24,25)    =         3.062591	     175.473516
	 D(5,12,24,26)    =         1.037648	      59.452835
	 D(6,5,12,13)     =        -0.941369	     -53.936469
	 D(6,5,12,14)     =         1.089148	      62.403572
	 D(6,5,12,24)     =        -3.064545	    -175.585517
	 D(7,5,12,13)     =        -3.038740	    -174.106955
	 D(7,5,12,14)     =        -1.008223	     -57.766914
	 D(7,5,12,24)     =         1.121269	      64.243997
	 D(8,5,12,13)     =         1.150328	      65.908939
	 D(8,5,12,14)     =        -3.102341	    -177.751019
	 D(8,5,12,24)     =        -0.972848	     -55.740109
	 D(9,15,18,19)    =         1.159877	      66.456052
	 D(9,15,18,20)    =        -0.870438	     -49.872415
	 D(9,15,18,21)    =        -2.993146	    -171.494627
	 D(10,9,15,16)    =        -1.086157	     -62.232201
	 D(10,9,15,17)    =        -3.111100	    -178.252894
	 D(10,9,15,18)    =         1.031202	      59.083537
	 D(11,9,15,16)    =         0.938109	      53.749697
	 D(11,9,15,17)    =        -1.086834	     -62.270995
	 D(11,9,15,18)    =         3.055468	     175.065435
	 D(12,24,21,18)   =        -2.993136	    -171.494074
	 D(12,24,21,22)   =         1.159887	      66.456642
	 D(12,24,21,23)   =        -0.870428	     -49.871861
	 D(13,12,24,21)   =         3.055444	     175.064042
	 D(13,12,24,25)   =         0.938088	      53.748470
	 D(13,12,24,26)   =        -1.086855	     -62.272211
	 D(14,12,24,21)   =         1.031179	      59.082212
	 D(14,12,24,25)   =        -1.086177	     -62.233360
	 D(14,12,24,26)   =        -3.111120	    -178.254041
	 D(15,18,21,22)   =         1.040391	      59.610041
	 D(15,18,21,23)   =         3.066525	     175.698951
	 D(15,18,21,24)   =        -1.100412	     -63.048942
	 D(16,15,18,19)   =        -2.999120	    -171.836893
	 D(16,15,18,20)   =         1.253751	      71.834640
	 D(16,15,18,21)   =        -0.868957	     -49.787572
	 D(17,15,18,19)   =        -0.971235	     -55.647650
	 D(17,15,18,20)   =        -3.001549	    -171.976117
	 D(17,15,18,21)   =         1.158928	      66.401671
	 D(18,21,24,25)   =        -0.868950	     -49.787158
	 D(18,21,24,26)   =         1.158933	      66.401988
	 D(19,18,21,22)   =        -3.101991	    -177.730974
	 D(19,18,21,23)   =        -1.075857	     -61.642063
	 D(19,18,21,24)   =         1.040392	      59.610044
	 D(20,18,21,22)   =        -1.075857	     -61.642090
	 D(20,18,21,23)   =         0.950276	      54.446820
	 D(20,18,21,24)   =         3.066525	     175.698927
	 D(22,21,24,25)   =        -2.999112	    -171.836442
	 D(22,21,24,26)   =        -0.971229	     -55.647296
	 D(23,21,24,25)   =         1.253758	      71.835055
	 D(23,21,24,26)   =        -3.001544	    -171.975799

	Current energy   :      -314.9831329920

	Generating empirical Hessian (Schlegel '84) for each fragment.
	Taking RFO optimization step.
	Going to follow RFO solution 1.
	Using RFO vector 1.
	Norm of target step-size    0.00034
	Projected energy change by RFO approximation:         0.0000000005

	Back-transformation to cartesian coordinates...
	Successfully converged to displaced geometry.

	--- Internal Coordinate Step in ANG or DEG, aJ/ANG or AJ/DEG ---
	 ---------------------------------------------------------------------------
	   Coordinate                Previous        Force       Change         New 
	   ----------                --------       ------       ------       ------
	    1 R(1,2)          =      1.089729    -0.000002    -0.000000     1.089728
	    2 R(1,3)          =      1.089293    -0.000004    -0.000001     1.089292
	    3 R(1,4)          =      1.091434    -0.000003    -0.000000     1.091434
	    4 R(1,9)          =      1.525045     0.000001     0.000000     1.525045
	    5 R(5,6)          =      1.089729    -0.000003    -0.000001     1.089728
	    6 R(5,7)          =      1.089293    -0.000003    -0.000001     1.089292
	    7 R(5,8)          =      1.091435    -0.000004    -0.000001     1.091434
	    8 R(5,12)         =      1.525045    -0.000000    -0.000000     1.525045
	    9 R(9,10)         =      1.093547    -0.000004    -0.000001     1.093546
	   10 R(9,11)         =      1.092274    -0.000004    -0.000001     1.092274
	   11 R(9,15)         =      1.527008    -0.000000    -0.000000     1.527008
	   12 R(12,13)        =      1.092275    -0.000003    -0.000001     1.092274
	   13 R(12,14)        =      1.093547    -0.000006    -0.000001     1.093546
	   14 R(12,24)        =      1.527009    -0.000006    -0.000001     1.527008
	   15 R(15,16)        =      1.094603    -0.000007    -0.000001     1.094602
	   16 R(15,17)        =      1.093483    -0.000007    -0.000001     1.093482
	   17 R(15,18)        =      1.525965    -0.000002    -0.000000     1.525964
	   18 R(18,19)        =      1.093317    -0.000010    -0.000002     1.093315
	   19 R(18,20)        =      1.094609    -0.000009    -0.000002     1.094607
	   20 R(18,21)        =      1.527135    -0.000000    -0.000000     1.527135
	   21 R(21,22)        =      1.093316    -0.000007    -0.000001     1.093315
	   22 R(21,23)        =      1.094609    -0.000009    -0.000002     1.094607
	   23 R(21,24)        =      1.525964     0.000001     0.000000     1.525965
	   24 R(24,25)        =      1.094603    -0.000006    -0.000001     1.094602
	   25 R(24,26)        =      1.093483    -0.000008    -0.000001     1.093482
	   26 B(1,9,10)       =    109.608770    -0.000000     0.000074   109.608845
	   27 B(1,9,11)       =    109.191845    -0.000000    -0.000122   109.191723
	   28 B(1,9,15)       =    113.140065     0.000000     0.000113   113.140178
	   29 B(2,1,3)        =    107.633022     0.000000    -0.000006   107.633016
	   30 B(2,1,4)        =    107.880165    -0.000000     0.000001   107.880165
	   31 B(2,1,9)        =    111.210700     0.000000     0.000016   111.210716
	   32 B(3,1,4)        =    107.814836     0.000000     0.000032   107.814868
	   33 B(3,1,9)        =    111.546051    -0.000000    -0.000041   111.546010
	   34 B(4,1,9)        =    110.595466    -0.000000    -0.000000   110.595466
	   35 B(5,12,13)      =    109.191694     0.000000     0.000135   109.191829
	   36 B(5,12,14)      =    109.608808     0.000000    -0.000004   109.608804
	   37 B(5,12,24)      =    113.140239    -0.000000    -0.000177   113.140062
	   38 B(6,5,7)        =    107.632988     0.000000     0.000051   107.633038
	   39 B(6,5,8)        =    107.880152     0.000000     0.000021   107.880174
	   40 B(6,5,12)       =    111.210664     0.000000     0.000058   111.210721
	   41 B(7,5,8)        =    107.814844     0.000000     0.000011   107.814855
	   42 B(7,5,12)       =    111.546096    -0.000000    -0.000087   111.546009
	   43 B(8,5,12)       =    110.595493    -0.000000    -0.000049   110.595444
	   44 B(9,15,16)      =    109.280451    -0.000000    -0.000139   109.280313
	   45 B(9,15,17)      =    108.859087     0.000000     0.000173   108.859260
	   46 B(9,15,18)      =    113.454437     0.000000     0.000164   113.454601
	   47 B(10,9,11)      =    106.524008     0.000000    -0.000004   106.524004
	   48 B(10,9,15)      =    109.103771    -0.000000     0.000041   109.103812
	   49 B(11,9,15)      =    109.056518    -0.000000    -0.000109   109.056409
	   50 B(12,24,21)     =    113.454554    -0.000000    -0.000062   113.454492
	   51 B(12,24,25)     =    109.280360     0.000000     0.000055   109.280415
	   52 B(12,24,26)     =    108.859199     0.000000    -0.000038   108.859161
	   53 B(13,12,14)     =    106.523966    -0.000000     0.000070   106.524036
	   54 B(13,12,24)     =    109.056399     0.000000     0.000108   109.056507
	   55 B(14,12,24)     =    109.103858     0.000000    -0.000116   109.103742
	   56 B(15,18,19)     =    109.962920     0.000000     0.000097   109.963017
	   57 B(15,18,20)     =    108.628216     0.000000     0.000033   108.628250
	   58 B(15,18,21)     =    113.262962    -0.000000    -0.000213   113.262749
	   59 B(16,15,17)     =    106.566562     0.000000     0.000039   106.566601
	   60 B(16,15,18)     =    108.580972    -0.000000    -0.000214   108.580758
	   61 B(17,15,18)     =    109.869381    -0.000000    -0.000033   109.869347
	   62 B(18,21,22)     =    108.867096     0.000000     0.000046   108.867142
	   63 B(18,21,23)     =    109.286837     0.000000     0.000030   109.286868
	   64 B(18,21,24)     =    113.262934    -0.000000    -0.000172   113.262762
	   65 B(19,18,20)     =    106.616975    -0.000000     0.000044   106.617019
	   66 B(19,18,21)     =    108.867126     0.000000     0.000011   108.867138
	   67 B(20,18,21)     =    109.286812     0.000000     0.000042   109.286854
	   68 B(21,24,25)     =    108.580832     0.000000     0.000055   108.580887
	   69 B(21,24,26)     =    109.869392    -0.000000    -0.000083   109.869309
	   70 B(22,21,23)     =    106.617000    -0.000000    -0.000008   106.616992
	   71 B(22,21,24)     =    109.962950     0.000000     0.000057   109.963007
	   72 B(23,21,24)     =    108.628198     0.000000     0.000056   108.628254
	   73 B(25,24,26)     =    106.566542     0.000000     0.000083   106.566626
	   74 D(1,9,15,16)    =    175.474905    -0.000000    -0.002393   175.472512
	   75 D(1,9,15,17)    =     59.454212    -0.000000    -0.002460    59.451753
	   76 D(1,9,15,18)    =    -63.209357    -0.000000    -0.002656   -63.212013
	   77 D(2,1,9,10)     =     62.403088    -0.000000     0.000622    62.403710
	   78 D(2,1,9,11)     =    -53.937069    -0.000000     0.000655   -53.936414
	   79 D(2,1,9,15)     =   -175.586260     0.000000     0.000806  -175.585454
	   80 D(3,1,9,10)     =    -57.767436    -0.000000     0.000647   -57.766789
	   81 D(3,1,9,11)     =   -174.107593     0.000000     0.000679  -174.106913
	   82 D(3,1,9,15)     =     64.243216     0.000000     0.000831    64.244047
	   83 D(4,1,9,10)     =   -177.751483    -0.000000     0.000633  -177.750849
	   84 D(4,1,9,11)     =     65.908360     0.000000     0.000666    65.909026
	   85 D(4,1,9,15)     =    -55.740831     0.000000     0.000817   -55.740013
	   86 D(5,12,24,21)   =    -63.210912     0.000000     0.001439   -63.209473
	   87 D(5,12,24,25)   =    175.473516     0.000000     0.001371   175.474887
	   88 D(5,12,24,26)   =     59.452835     0.000000     0.001262    59.454097
	   89 D(6,5,12,13)    =    -53.936469    -0.000000    -0.001295   -53.937764
	   90 D(6,5,12,14)    =     62.403572     0.000000    -0.001136    62.402436
	   91 D(6,5,12,24)    =   -175.585517    -0.000000    -0.001411  -175.586928
	   92 D(7,5,12,13)    =   -174.106955    -0.000000    -0.001339  -174.108295
	   93 D(7,5,12,14)    =    -57.766914     0.000000    -0.001181   -57.768095
	   94 D(7,5,12,24)    =     64.243997    -0.000000    -0.001455    64.242541
	   95 D(8,5,12,13)    =     65.908939    -0.000000    -0.001263    65.907677
	   96 D(8,5,12,14)    =   -177.751019     0.000000    -0.001104  -177.752123
	   97 D(8,5,12,24)    =    -55.740109    -0.000000    -0.001379   -55.741487
	   98 D(9,15,18,19)   =     66.456052     0.000000     0.005230    66.461281
	   99 D(9,15,18,20)   =    -49.872415     0.000000     0.005104   -49.867311
	  100 D(9,15,18,21)   =   -171.494627     0.000000     0.005167  -171.489460
	  101 D(10,9,15,16)   =    -62.232201     0.000000    -0.002192   -62.234393
	  102 D(10,9,15,17)   =   -178.252894     0.000000    -0.002258  -178.255152
	  103 D(10,9,15,18)   =     59.083537    -0.000000    -0.002455    59.081082
	  104 D(11,9,15,16)   =     53.749697     0.000000    -0.002234    53.747463
	  105 D(11,9,15,17)   =    -62.270995    -0.000000    -0.002301   -62.273296
	  106 D(11,9,15,18)   =    175.065435    -0.000000    -0.002498   175.062938
	  107 D(12,24,21,18)  =   -171.494074     0.000000     0.002394  -171.491680
	  108 D(12,24,21,22)  =     66.456642     0.000000     0.002413    66.459055
	  109 D(12,24,21,23)  =    -49.871861    -0.000000     0.002359   -49.869502
	  110 D(13,12,24,21)  =    175.064042     0.000000     0.001307   175.065350
	  111 D(13,12,24,25)  =     53.748470     0.000000     0.001240    53.749709
	  112 D(13,12,24,26)  =    -62.272211    -0.000000     0.001131   -62.271080
	  113 D(14,12,24,21)  =     59.082212     0.000000     0.001229    59.083441
	  114 D(14,12,24,25)  =    -62.233360    -0.000000     0.001161   -62.232199
	  115 D(14,12,24,26)  =   -178.254041    -0.000000     0.001052  -178.252989
	  116 D(15,18,21,22)  =     59.610041    -0.000000     0.000911    59.610952
	  117 D(15,18,21,23)  =    175.698951     0.000000     0.000944   175.699895
	  118 D(15,18,21,24)  =    -63.048942    -0.000000     0.000922   -63.048020
	  119 D(16,15,18,19)  =   -171.836893     0.000000     0.005008  -171.831885
	  120 D(16,15,18,20)  =     71.834640     0.000000     0.004882    71.839522
	  121 D(16,15,18,21)  =    -49.787572     0.000000     0.004946   -49.782626
	  122 D(17,15,18,19)  =    -55.647650     0.000000     0.004916   -55.642735
	  123 D(17,15,18,20)  =   -171.976117    -0.000000     0.004790  -171.971327
	  124 D(17,15,18,21)  =     66.401671    -0.000000     0.004853    66.406524
	  125 D(18,21,24,25)  =    -49.787158     0.000000     0.002462   -49.784696
	  126 D(18,21,24,26)  =     66.401988     0.000000     0.002547    66.404535
	  127 D(19,18,21,22)  =   -177.730974    -0.000000     0.000899  -177.730074
	  128 D(19,18,21,23)  =    -61.642063     0.000000     0.000932   -61.641132
	  129 D(19,18,21,24)  =     59.610044    -0.000000     0.000910    59.610953
	  130 D(20,18,21,22)  =    -61.642090     0.000000     0.000981   -61.641109
	  131 D(20,18,21,23)  =     54.446820     0.000000     0.001014    54.447834
	  132 D(20,18,21,24)  =    175.698927     0.000000     0.000992   175.699919
	  133 D(22,21,24,25)  =   -171.836442     0.000000     0.002481  -171.833961
	  134 D(22,21,24,26)  =    -55.647296     0.000000     0.002566   -55.644730
	  135 D(23,21,24,25)  =     71.835055     0.000000     0.002427    71.837482
	  136 D(23,21,24,26)  =   -171.975799     0.000000     0.002512  -171.973287
	 ---------------------------------------------------------------------------

  ==> Convergence Check <==

  Measures of convergence in internal coordinates in au.
  Criteria marked as inactive (o), active & met (*), and active & unmet ( ).
  --------------------------------------------------------------------------------------------- ~
   Step     Total Energy     Delta E     MAX Force     RMS Force      MAX Disp      RMS Disp    ~
  --------------------------------------------------------------------------------------------- ~
    Convergence Criteria             o    2.00e-06 *    1.00e-06 *    6.00e-06 *    4.00e-06 *  ~
  --------------------------------------------------------------------------------------------- ~
      1    -314.98313299   -3.15e+02 o    1.25e-06 *    3.18e-07 *    9.13e-05      2.89e-05    ~
  ---------------------------------------------------------------------------------------------

	Writing optimization data to binary file.
	Structure for next step:
	Cartesian Geometry (in Angstrom)
	    C     0.7707640690   3.5830273090   0.2365583336
	    H     0.7132220306   4.6712129232   0.2435446064
	    H     1.3351951202   3.2881123678  -0.6471836090
	    H     1.3390105315   3.2718614861   1.1149089694
	    C    -0.7707824924  -3.5829881332   0.2367045794
	    H    -0.7132793436  -4.6711756729   0.2437053520
	    H    -1.3352575532  -3.2880670052  -0.6470073731
	    H    -1.3389633503  -3.2717870715   1.1150850897
	    C    -0.6197687029   2.9568838677   0.2477369810
	    H    -1.1600242165   3.2466624306  -0.6577989420
	    H    -1.1875436171   3.3582906900   1.0900944993
	    C     0.6197734520  -2.9568946578   0.2477872996
	    H     1.1875791729  -3.3582889047   1.0901302482
	    H     1.1599703815  -3.2467265383  -0.6577664244
	    C    -0.5910768506   1.4333492863   0.3465983013
	    H    -1.6155733363   1.0572868529   0.4310820175
	    H    -0.0773763355   1.1486065321   1.2689515389
	    C     0.0771839078   0.7596364469  -0.8484356314
	    H     1.1419972713   1.0067964342  -0.8689726242
	    H    -0.3565219735   1.1671046997  -1.7671489846
	    C    -0.0772150383  -0.7596733787  -0.8484100846
	    H    -1.1420301922  -1.0068340246  -0.8688577577
	    H     0.3564187782  -1.1671654048  -1.7671467382
	    C     0.5911387605  -1.4333558394   0.3465891119
	    H     1.6156543600  -1.0573203872   0.4309631424
	    H     0.0775315053  -1.1485610856   1.2689782492
			--------------------------
			 OPTKING Finished Execution 
			--------------------------

    Structure for next step:
    Molecular point group: c1
    Full point group: C1

    Geometry (in Angstrom), charge = 0, multiplicity = 1:

    C            0.770762189196     3.583028822985     0.236555181982
    H            0.713220150773     4.671214437188     0.243541454780
    H            1.335193240401     3.288113881779    -0.647186760610
    H            1.339008651683     3.271863000042     1.114905817810
    C           -0.770784372249    -3.582986619276     0.236701427786
    H           -0.713281223461    -4.671174158976     0.243702200336
    H           -1.335259433006    -3.288065491255    -0.647010524729
    H           -1.338965230126    -3.271785557574     1.115081938074
    C           -0.619770582738     2.956885381640     0.247733829347
    H           -1.160026096368     3.246663944502    -0.657802093631
    H           -1.187545496896     3.358292203919     1.090091347652
    C            0.619771572116    -2.956893143842     0.247784148001
    H            1.187577293016    -3.358287390743     1.090127096583
    H            1.159968501698    -3.246725024401    -0.657769575986
    C           -0.591078730405     1.433350800200     0.346595149650
    H           -1.615575216096     1.057288366850     0.431078865837
    H           -0.077378215380     1.148608046057     1.268948387226
    C            0.077182027934     0.759637960875    -0.848438783047
    H            1.141995391441     1.006797948162    -0.868975775859
    H           -0.356523853361     1.167106213606    -1.767152136247
    C           -0.077216918178    -0.759671864755    -0.848413236202
    H           -1.142032072093    -1.006832510613    -0.868860909342
    H            0.356416898347    -1.167163890850    -1.767149889838
    C            0.591136880693    -1.433354325421     0.346585960262
    H            1.615652480120    -1.057318873266     0.430959990788
    H            0.077529625409    -1.148559571649     1.268975097550

gradient() will perform analytic gradient computation.

*** tstart() called on wr31
*** at Tue Sep 20 22:46:22 2016


         ---------------------------------------------------------
                                   SCF
            by Justin Turney, Rob Parrish, and Andy Simmonett
                              RHF Reference
                       12 Threads,  60000 MiB Core
         ---------------------------------------------------------

  ==> Geometry <==

    Molecular point group: c1
    Full point group: C1

    Geometry (in Angstrom), charge = 0, multiplicity = 1:

       Center              X                  Y                   Z               Mass       
    ------------   -----------------  -----------------  -----------------  -----------------
           C          0.770762189196     3.583028822985     0.236555181982    12.000000000000
           H          0.713220150773     4.671214437188     0.243541454780     1.007825032070
           H          1.335193240401     3.288113881779    -0.647186760610     1.007825032070
           H          1.339008651683     3.271863000042     1.114905817810     1.007825032070
           C         -0.770784372249    -3.582986619276     0.236701427786    12.000000000000
           H         -0.713281223461    -4.671174158976     0.243702200336     1.007825032070
           H         -1.335259433006    -3.288065491255    -0.647010524729     1.007825032070
           H         -1.338965230126    -3.271785557574     1.115081938074     1.007825032070
           C         -0.619770582738     2.956885381640     0.247733829347    12.000000000000
           H         -1.160026096368     3.246663944502    -0.657802093631     1.007825032070
           H         -1.187545496896     3.358292203919     1.090091347652     1.007825032070
           C          0.619771572116    -2.956893143842     0.247784148001    12.000000000000
           H          1.187577293016    -3.358287390743     1.090127096583     1.007825032070
           H          1.159968501698    -3.246725024401    -0.657769575986     1.007825032070
           C         -0.591078730405     1.433350800200     0.346595149650    12.000000000000
           H         -1.615575216096     1.057288366850     0.431078865837     1.007825032070
           H         -0.077378215380     1.148608046057     1.268948387226     1.007825032070
           C          0.077182027934     0.759637960875    -0.848438783047    12.000000000000
           H          1.141995391441     1.006797948162    -0.868975775859     1.007825032070
           H         -0.356523853361     1.167106213606    -1.767152136247     1.007825032070
           C         -0.077216918178    -0.759671864755    -0.848413236202    12.000000000000
           H         -1.142032072093    -1.006832510613    -0.868860909342     1.007825032070
           H          0.356416898347    -1.167163890850    -1.767149889838     1.007825032070
           C          0.591136880693    -1.433354325421     0.346585960262    12.000000000000
           H          1.615652480120    -1.057318873266     0.430959990788     1.007825032070
           H          0.077529625409    -1.148559571649     1.268975097550     1.007825032070

  Running in c1 symmetry.

  Rotational constants: A =      0.17754  B =      0.02208  C =      0.02172 [cm^-1]
  Rotational constants: A =   5322.47804  B =    661.97942  C =    651.18681 [MHz]
  Nuclear repulsion =  390.619478293274653

  Charge       = 0
  Multiplicity = 1
  Electrons    = 66
  Nalpha       = 33
  Nbeta        = 33

  ==> Algorithm <==

  SCF Algorithm Type is DF.
  DIIS enabled.
  MOM disabled.
  Fractional occupation disabled.
  Guess Type is READ.
  Energy threshold   = 1.00e-10
  Density threshold  = 1.00e-10
  Integral threshold = 0.00e+00

  ==> Primary Basis <==

  Basis Set: AUG-CC-PVTZ
    Number of shells: 274
    Number of basis function: 782
    Number of Cartesian functions: 890
    Spherical Harmonics?: true
    Max angular momentum: 3

  ==> Pre-Iterations <==

   -------------------------------------------------------
    Irrep   Nso     Nmo     Nalpha   Nbeta   Ndocc  Nsocc
   -------------------------------------------------------
     A        782     782       0       0       0       0
   -------------------------------------------------------
    Total     782     782      33      33      33       0
   -------------------------------------------------------

  ==> Integral Setup <==

  ==> DFJK: Density-Fitted J/K Matrices <==

    J tasked:                  Yes
    K tasked:                  Yes
    wK tasked:                  No
    OpenMP threads:             12
    Integrals threads:          12
    Memory (MB):             42915
    Algorithm:                Core
    Integral Cache:           NONE
    Schwarz Cutoff:          1E-12
    Fitting Condition:       1E-12

   => Auxiliary Basis Set <=

  Basis Set: 
    Number of shells: 492
    Number of basis function: 1660
    Number of Cartesian functions: 2038
    Spherical Harmonics?: true
    Max angular momentum: 4

  Minimum eigenvalue in the overlap matrix is 1.6919452799E-06.
  Using Symmetric Orthogonalization.
  SCF Guess: Reading in previously saved MOs, projecting if necessary.

  Using orbitals from previous SCF, no projection.
  Recomputing DOCC and SOCC from number of alpha and beta electrons from previous calculation.
              A 
    DOCC [    33 ]

  ==> Iterations <==

                           Total Energy        Delta E     RMS |[F,P]|

   @DF-RHF iter   0:  -313.54212543779607   -3.13542e+02   1.84139e-07 
   @DF-RHF iter   1:  -313.54206146887537    6.39689e-05   4.42266e-08 
   @DF-RHF iter   2:  -313.54206146982625   -9.50877e-10   1.92586e-08 DIIS
   @DF-RHF iter   3:  -313.54206146997234   -1.46088e-10   6.45460e-09 DIIS
   @DF-RHF iter   4:  -313.54206146999996   -2.76259e-11   8.15813e-10 DIIS
   @DF-RHF iter   5:  -313.54206147000019   -2.27374e-13   2.93315e-10 DIIS
   @DF-RHF iter   6:  -313.54206146999951    6.82121e-13   7.09748e-11 DIIS

  ==> Post-Iterations <==

    Orbital Energies (a.u.)
    -----------------------

    Doubly Occupied:                                                      

       1A    -11.212549     2A    -11.212549     3A    -11.210200  
       4A    -11.209891     5A    -11.209504     6A    -11.209202  
       7A    -11.206345     8A    -11.206345     9A     -1.094423  
      10A     -1.060780    11A     -1.008430    12A     -0.941505  
      13A     -0.890975    14A     -0.828771    15A     -0.787805  
      16A     -0.755026    17A     -0.645374    18A     -0.624096  
      19A     -0.608875    20A     -0.593345    21A     -0.588942  
      22A     -0.565766    23A     -0.535660    24A     -0.528568  
      25A     -0.519885    26A     -0.497859    27A     -0.491643  
      28A     -0.470586    29A     -0.467639    30A     -0.459748  
      31A     -0.446650    32A     -0.438889    33A     -0.434563  

    Virtual:                                                              

      34A      0.030485    35A      0.032457    36A      0.034853  
      37A      0.035313    38A      0.043919    39A      0.047970  
      40A      0.049633    41A      0.054038    42A      0.056118  
      43A      0.061874    44A      0.068573    45A      0.070687  
      46A      0.071475    47A      0.080687    48A      0.086761  
      49A      0.093621    50A      0.100467    51A      0.103877  
      52A      0.116592    53A      0.118218    54A      0.118851  
      55A      0.121137    56A      0.123816    57A      0.129564  
      58A      0.130522    59A      0.133269    60A      0.136438  
      61A      0.138970    62A      0.145604    63A      0.153972  
      64A      0.154870    65A      0.155225    66A      0.162111  
      67A      0.166344    68A      0.168905    69A      0.174517  
      70A      0.175358    71A      0.176434    72A      0.180511  
      73A      0.186290    74A      0.191066    75A      0.196309  
      76A      0.201616    77A      0.213443    78A      0.221981  
      79A      0.231963    80A      0.240627    81A      0.242412  
      82A      0.250052    83A      0.255291    84A      0.262162  
      85A      0.269875    86A      0.272193    87A      0.276068  
      88A      0.286101    89A      0.286442    90A      0.296161  
      91A      0.300835    92A      0.305544    93A      0.306607  
      94A      0.310067    95A      0.319632    96A      0.321908  
      97A      0.322821    98A      0.329014    99A      0.334356  
     100A      0.334775   101A      0.338447   102A      0.340524  
     103A      0.344413   104A      0.349864   105A      0.353251  
     106A      0.354505   107A      0.358177   108A      0.363362  
     109A      0.368484   110A      0.370017   111A      0.372626  
     112A      0.375316   113A      0.375918   114A      0.383461  
     115A      0.386923   116A      0.391259   117A      0.394145  
     118A      0.397928   119A      0.402126   120A      0.411448  
     121A      0.414224   122A      0.420471   123A      0.422549  
     124A      0.424854   125A      0.427639   126A      0.432492  
     127A      0.436793   128A      0.441243   129A      0.449760  
     130A      0.450052   131A      0.454914   132A      0.461156  
     133A      0.468513   134A      0.470199   135A      0.473640  
     136A      0.473800   137A      0.476014   138A      0.479722  
     139A      0.481523   140A      0.489096   141A      0.495863  
     142A      0.497255   143A      0.501184   144A      0.505096  
     145A      0.505582   146A      0.505813   147A      0.513411  
     148A      0.516040   149A      0.517784   150A      0.521414  
     151A      0.524546   152A      0.532383   153A      0.537028  
     154A      0.538028   155A      0.542138   156A      0.546341  
     157A      0.546822   158A      0.553519   159A      0.556267  
     160A      0.564893   161A      0.570087   162A      0.573750  
     163A      0.579981   164A      0.585180   165A      0.587582  
     166A      0.592894   167A      0.600989   168A      0.606732  
     169A      0.607515   170A      0.613582   171A      0.616544  
     172A      0.617607   173A      0.629481   174A      0.633139  
     175A      0.633198   176A      0.643706   177A      0.645783  
     178A      0.648383   179A      0.651066   180A      0.666222  
     181A      0.668471   182A      0.674480   183A      0.678688  
     184A      0.688702   185A      0.694860   186A      0.696894  
     187A      0.700480   188A      0.702690   189A      0.703348  
     190A      0.720076   191A      0.720567   192A      0.729583  
     193A      0.736730   194A      0.742102   195A      0.750000  
     196A      0.757870   197A      0.760373   198A      0.760423  
     199A      0.781027   200A      0.799928   201A      0.809224  
     202A      0.812686   203A      0.818766   204A      0.825053  
     205A      0.825135   206A      0.837235   207A      0.839999  
     208A      0.844494   209A      0.858236   210A      0.859700  
     211A      0.866085   212A      0.867438   213A      0.870740  
     214A      0.874232   215A      0.877726   216A      0.886746  
     217A      0.887198   218A      0.902199   219A      0.903110  
     220A      0.911568   221A      0.915465   222A      0.916280  
     223A      0.928974   224A      0.932365   225A      0.937746  
     226A      0.943010   227A      0.950304   228A      0.953701  
     229A      0.958087   230A      0.962514   231A      0.966090  
     232A      0.969593   233A      0.972704   234A      0.974883  
     235A      0.977062   236A      0.984649   237A      0.988533  
     238A      0.993289   239A      0.998997   240A      1.005935  
     241A      1.006993   242A      1.016409   243A      1.022673  
     244A      1.022867   245A      1.031688   246A      1.038802  
     247A      1.042625   248A      1.047992   249A      1.055151  
     250A      1.060532   251A      1.071321   252A      1.075581  
     253A      1.077973   254A      1.079695   255A      1.081627  
     256A      1.091288   257A      1.095210   258A      1.100095  
     259A      1.103752   260A      1.116381   261A      1.118852  
     262A      1.123602   263A      1.126534   264A      1.128665  
     265A      1.130480   266A      1.139015   267A      1.142077  
     268A      1.143419   269A      1.149659   270A      1.152472  
     271A      1.155534   272A      1.167479   273A      1.169800  
     274A      1.183881   275A      1.185214   276A      1.195993  
     277A      1.199920   278A      1.201760   279A      1.206966  
     280A      1.216735   281A      1.217647   282A      1.218613  
     283A      1.227472   284A      1.232384   285A      1.237674  
     286A      1.245727   287A      1.253788   288A      1.257653  
     289A      1.263115   290A      1.266746   291A      1.267287  
     292A      1.275569   293A      1.278848   294A      1.278951  
     295A      1.290924   296A      1.292260   297A      1.308883  
     298A      1.309483   299A      1.313952   300A      1.317436  
     301A      1.322532   302A      1.342595   303A      1.352799  
[...]
	    8 R(5,12)         =      1.525045    -0.000000    -0.000000     1.525045
	    9 R(9,10)         =      1.093547     0.000006    -0.000000     1.093547
	   10 R(9,11)         =      1.092275     0.000006     0.000000     1.092275
	   11 R(9,15)         =      1.527008     0.000005    -0.000000     1.527008
	   12 R(12,13)        =      1.092275     0.000006    -0.000000     1.092275
	   13 R(12,14)        =      1.093547     0.000007     0.000000     1.093547
	   14 R(12,24)        =      1.527009    -0.000002    -0.000000     1.527009
	   15 R(15,16)        =      1.094603     0.000011    -0.000000     1.094603
	   16 R(15,17)        =      1.093483     0.000010     0.000000     1.093483
	   17 R(15,18)        =      1.525965     0.000002     0.000000     1.525965
	   18 R(18,19)        =      1.093317     0.000011     0.000000     1.093317
	   19 R(18,20)        =      1.094609     0.000009    -0.000000     1.094609
	   20 R(18,21)        =      1.527135     0.000003     0.000000     1.527135
	   21 R(21,22)        =      1.093316     0.000015     0.000000     1.093316
	   22 R(21,23)        =      1.094609     0.000009     0.000000     1.094609
	   23 R(21,24)        =      1.525964     0.000006     0.000000     1.525964
	   24 R(24,25)        =      1.094603     0.000011    -0.000000     1.094603
	   25 R(24,26)        =      1.093483     0.000009    -0.000001     1.093483
	   26 B(1,9,10)       =    109.608774    -0.000000    -0.000044   109.608730
	   27 B(1,9,11)       =    109.191860    -0.000000     0.000056   109.191916
	   28 B(1,9,15)       =    113.140039     0.000000    -0.000016   113.140023
	   29 B(2,1,3)        =    107.633023     0.000000    -0.000043   107.632980
	   30 B(2,1,4)        =    107.880162     0.000000     0.000095   107.880257
	   31 B(2,1,9)        =    111.210707    -0.000000     0.000025   111.210732
	   32 B(3,1,4)        =    107.814835    -0.000000     0.000007   107.814843
	   33 B(3,1,9)        =    111.546050     0.000000    -0.000066   111.545984
	   34 B(4,1,9)        =    110.595462     0.000000    -0.000014   110.595448
	   35 B(5,12,13)      =    109.191689     0.000000     0.000067   109.191756
	   36 B(5,12,14)      =    109.608800     0.000000    -0.000028   109.608773
	   37 B(5,12,24)      =    113.140247    -0.000000    -0.000003   113.140244
	   38 B(6,5,7)        =    107.632982     0.000000     0.000067   107.633049
	   39 B(6,5,8)        =    107.880150     0.000000    -0.000048   107.880103
	   40 B(6,5,12)       =    111.210659    -0.000000    -0.000099   111.210561
	   41 B(7,5,8)        =    107.814843    -0.000000     0.000037   107.814880
	   42 B(7,5,12)       =    111.546109     0.000000     0.000100   111.546209
	   43 B(8,5,12)       =    110.595494     0.000000    -0.000055   110.595439
	   44 B(9,15,16)      =    109.280458    -0.000000     0.000048   109.280506
	   45 B(9,15,17)      =    108.859096     0.000000     0.000043   108.859140
	   46 B(9,15,18)      =    113.454451    -0.000000    -0.000031   113.454420
	   47 B(10,9,11)      =    106.524010     0.000000    -0.000002   106.524009
	   48 B(10,9,15)      =    109.103773    -0.000000    -0.000001   109.103772
	   49 B(11,9,15)      =    109.056523    -0.000000     0.000007   109.056530
	   50 B(12,24,21)     =    113.454593    -0.000000     0.000006   113.454599
	   51 B(12,24,25)     =    109.280361     0.000000     0.000028   109.280389
	   52 B(12,24,26)     =    108.859167     0.000000     0.000063   108.859230
	   53 B(13,12,14)     =    106.523968    -0.000000     0.000023   106.523991
	   54 B(13,12,24)     =    109.056393     0.000000    -0.000013   109.056380
	   55 B(14,12,24)     =    109.103866     0.000000    -0.000044   109.103822
	   56 B(15,18,19)     =    109.962943    -0.000000    -0.000023   109.962920
	   57 B(15,18,20)     =    108.628232    -0.000000     0.000073   108.628305
	   58 B(15,18,21)     =    113.262924     0.000000     0.000015   113.262938
	   59 B(16,15,17)     =    106.566574    -0.000000    -0.000020   106.566554
	   60 B(16,15,18)     =    108.580939     0.000000    -0.000010   108.580930
	   61 B(17,15,18)     =    109.869371     0.000000    -0.000030   109.869340
	   62 B(18,21,22)     =    108.867098    -0.000000     0.000014   108.867112
	   63 B(18,21,23)     =    109.286815    -0.000000     0.000062   109.286877
	   64 B(18,21,24)     =    113.262989     0.000000     0.000001   113.262991
	   65 B(19,18,20)     =    106.616991     0.000000    -0.000028   106.616963
	   66 B(19,18,21)     =    108.867118    -0.000000    -0.000030   108.867088
	   67 B(20,18,21)     =    109.286807    -0.000000    -0.000009   109.286799
	   68 B(21,24,25)     =    108.580845     0.000000     0.000002   108.580846
	   69 B(21,24,26)     =    109.869373     0.000000    -0.000049   109.869324
	   70 B(22,21,23)     =    106.616984     0.000000     0.000040   106.617024
	   71 B(22,21,24)     =    109.962933    -0.000000    -0.000050   109.962883
	   72 B(23,21,24)     =    108.628192    -0.000000    -0.000064   108.628128
	   73 B(25,24,26)     =    106.566539    -0.000000    -0.000054   106.566486
	   74 D(1,9,15,16)    =    175.474918    -0.000000    -0.000047   175.474871
	   75 D(1,9,15,17)    =     59.454202    -0.000000    -0.000074    59.454129
	   76 D(1,9,15,18)    =    -63.209371    -0.000000    -0.000045   -63.209416
	   77 D(2,1,9,10)     =     62.403056    -0.000000     0.000002    62.403058
	   78 D(2,1,9,11)     =    -53.937114     0.000000    -0.000003   -53.937117
	   79 D(2,1,9,15)     =   -175.586305     0.000000    -0.000042  -175.586347
	   80 D(3,1,9,10)     =    -57.767473     0.000000     0.000084   -57.767389
	   81 D(3,1,9,11)     =   -174.107642     0.000000     0.000079  -174.107564
	   82 D(3,1,9,15)     =     64.243167     0.000000     0.000040    64.243207
	   83 D(4,1,9,10)     =   -177.751516    -0.000000     0.000128  -177.751388
	   84 D(4,1,9,11)     =     65.908314    -0.000000     0.000123    65.908437
	   85 D(4,1,9,15)     =    -55.740877     0.000000     0.000084   -55.740792
	   86 D(5,12,24,21)   =    -63.210775     0.000000    -0.000035   -63.210810
	   87 D(5,12,24,25)   =    175.473610     0.000000    -0.000061   175.473549
	   88 D(5,12,24,26)   =     59.452950     0.000000    -0.000048    59.452902
	   89 D(6,5,12,13)    =    -53.936412    -0.000000     0.000093   -53.936319
	   90 D(6,5,12,14)    =     62.403624     0.000000     0.000143    62.403767
	   91 D(6,5,12,24)    =   -175.585455    -0.000000     0.000064  -175.585391
	   92 D(7,5,12,13)    =   -174.106897    -0.000000     0.000007  -174.106890
	   93 D(7,5,12,14)    =    -57.766860     0.000000     0.000057   -57.766803
	   94 D(7,5,12,24)    =     64.244060    -0.000000    -0.000022    64.244039
	   95 D(8,5,12,13)    =     65.908990    -0.000000    -0.000069    65.908922
	   96 D(8,5,12,14)    =   -177.750973     0.000000    -0.000018  -177.750991
	   97 D(8,5,12,24)    =    -55.740052    -0.000000    -0.000097   -55.740150
	   98 D(9,15,18,19)   =     66.456088    -0.000000     0.000058    66.456146
	   99 D(9,15,18,20)   =    -49.872419    -0.000000     0.000063   -49.872357
	  100 D(9,15,18,21)   =   -171.494612    -0.000000     0.000012  -171.494600
	  101 D(10,9,15,16)   =    -62.232200    -0.000000    -0.000114   -62.232313
	  102 D(10,9,15,17)   =   -178.252915     0.000000    -0.000141  -178.253056
	  103 D(10,9,15,18)   =     59.083512     0.000000    -0.000113    59.083399
	  104 D(11,9,15,16)   =     53.749705    -0.000000    -0.000112    53.749592
	  105 D(11,9,15,17)   =    -62.271011     0.000000    -0.000139   -62.271150
	  106 D(11,9,15,18)   =    175.065416     0.000000    -0.000111   175.065305
	  107 D(12,24,21,18)  =   -171.494097    -0.000000    -0.000046  -171.494143
	  108 D(12,24,21,22)  =     66.456589    -0.000000    -0.000028    66.456561
	  109 D(12,24,21,23)  =    -49.871881    -0.000000    -0.000012   -49.871893
	  110 D(13,12,24,21)  =    175.064183     0.000000    -0.000109   175.064074
	  111 D(13,12,24,25)  =     53.748568     0.000000    -0.000135    53.748433
	  112 D(13,12,24,26)  =    -62.272092     0.000000    -0.000121   -62.272213
	  113 D(14,12,24,21)  =     59.082350     0.000000    -0.000105    59.082246
	  114 D(14,12,24,25)  =    -62.233265    -0.000000    -0.000131   -62.233396
	  115 D(14,12,24,26)  =   -178.253925    -0.000000    -0.000117  -178.254042
	  116 D(15,18,21,22)  =     59.610067    -0.000000    -0.000151    59.609916
	  117 D(15,18,21,23)  =    175.698946    -0.000000    -0.000061   175.698885
	  118 D(15,18,21,24)  =    -63.048933    -0.000000    -0.000098   -63.049031
	  119 D(16,15,18,19)  =   -171.836862    -0.000000     0.000091  -171.836770
	  120 D(16,15,18,20)  =     71.834631    -0.000000     0.000096    71.834727
	  121 D(16,15,18,21)  =    -49.787562    -0.000000     0.000046   -49.787516
	  122 D(17,15,18,19)  =    -55.647629    -0.000000     0.000045   -55.647583
	  123 D(17,15,18,20)  =   -171.976137     0.000000     0.000051  -171.976086
	  124 D(17,15,18,21)  =     66.401671    -0.000000     0.000000    66.401671
	  125 D(18,21,24,25)  =    -49.787146    -0.000000    -0.000005   -49.787151
	  126 D(18,21,24,26)  =     66.401993     0.000000    -0.000095    66.401898
	  127 D(19,18,21,22)  =   -177.730951     0.000000    -0.000192  -177.731143
	  128 D(19,18,21,23)  =    -61.642071     0.000000    -0.000102   -61.642174
	  129 D(19,18,21,24)  =     59.610049    -0.000000    -0.000139    59.609910
	  130 D(20,18,21,22)  =    -61.642056     0.000000    -0.000247   -61.642303
	  131 D(20,18,21,23)  =     54.446824    -0.000000    -0.000158    54.446666
	  132 D(20,18,21,24)  =    175.698944    -0.000000    -0.000195   175.698750
	  133 D(22,21,24,25)  =   -171.836459    -0.000000     0.000013  -171.836446
	  134 D(22,21,24,26)  =    -55.647320     0.000000    -0.000078   -55.647398
	  135 D(23,21,24,25)  =     71.835071    -0.000000     0.000029    71.835100
	  136 D(23,21,24,26)  =   -171.975790     0.000000    -0.000061  -171.975852
	 ---------------------------------------------------------------------------

  ==> Convergence Check <==

  Measures of convergence in internal coordinates in au.
  Criteria marked as inactive (o), active & met (*), and active & unmet ( ).
  ---------------------------------------------------------------------------------------------
   Step     Total Energy     Delta E     MAX Force     RMS Force      MAX Disp      RMS Disp   
  ---------------------------------------------------------------------------------------------
    Convergence Criteria             o    2.00e-06 *    1.00e-06 *    6.00e-06 *    4.00e-06 *
  ---------------------------------------------------------------------------------------------
     40    -314.98313299    4.32e-09 o    1.85e-06 *    4.40e-07 *    4.32e-06 *    1.25e-06 *  ~
  ---------------------------------------------------------------------------------------------


  **** Optimization is complete! (in 40 steps) ****

  ==> Optimization Summary <==

  Measures of convergence in internal coordinates in au.
  --------------------------------------------------------------------------------------------------------------- ~
   Step         Total Energy             Delta E       MAX Force       RMS Force        MAX Disp        RMS Disp  ~
  --------------------------------------------------------------------------------------------------------------- ~
      1    -314.983132991972   -314.983132991972      0.00000125      0.00000032      0.00009128      0.00002888  ~
      2    -314.983132989582      0.000000002391      0.00000350      0.00000094      0.00007213      0.00002246  ~
      3    -314.983132989277      0.000000000305      0.00000097      0.00000025      0.00001850      0.00000904  ~
      4    -314.983132994103     -0.000000004826      0.00000187      0.00000055      0.00001561      0.00000740  ~
      5    -314.983132992569      0.000000001534      0.00000074      0.00000020      0.00002195      0.00000944  ~
      6    -314.983132989987      0.000000002582      0.00000183      0.00000051      0.00016677      0.00006545  ~
      7    -314.983132994206     -0.000000004220      0.00000559      0.00000139      0.00016290      0.00006449  ~
      8    -314.983132990025      0.000000004182      0.00000123      0.00000035      0.00001679      0.00000650  ~
      9    -314.983132987919      0.000000002106      0.00000090      0.00000020      0.00001194      0.00000343  ~
     10    -314.983132993812     -0.000000005894      0.00000144      0.00000042      0.00001104      0.00000344  ~
     11    -314.983132992054      0.000000001758      0.00000069      0.00000021      0.00001165      0.00000391  ~
     12    -314.983132991376      0.000000000678      0.00000212      0.00000059      0.00006370      0.00001901  ~
     13    -314.983132991564     -0.000000000188      0.00000271      0.00000077      0.00006816      0.00001956  ~
     14    -314.983132996681     -0.000000005117      0.00000183      0.00000052      0.00003027      0.00000894  ~
     15    -314.983132994746      0.000000001935      0.00000178      0.00000046      0.00002808      0.00000877  ~
     16    -314.983132989750      0.000000004996      0.00000075      0.00000018      0.00002147      0.00000641  ~
     17    -314.983132992333     -0.000000002583      0.00000184      0.00000044      0.00001709      0.00000474  ~
     18    -314.983132987441      0.000000004892      0.00000200      0.00000058      0.00003200      0.00001071  ~
     19    -314.983132992593     -0.000000005152      0.00000153      0.00000040      0.00004223      0.00001321  ~
     20    -314.983132990475      0.000000002117      0.00000076      0.00000017      0.00007282      0.00002066  ~
     21    -314.983132988671      0.000000001805      0.00000251      0.00000056      0.00007522      0.00002128  ~
     22    -314.983132993910     -0.000000005239      0.00000108      0.00000026      0.00007000      0.00002736  ~
     23    -314.983132988719      0.000000005192      0.00000363      0.00000091      0.00009342      0.00003840  ~
     24    -314.983132994415     -0.000000005696      0.00001631      0.00000236      0.00006049      0.00001914  ~
     25    -314.983132994206      0.000000000209      0.00000202      0.00000060      0.00002426      0.00000722  ~
     26    -314.983132992764      0.000000001442      0.00000142      0.00000026      0.00001386      0.00000428  ~
     27    -314.983132993515     -0.000000000751      0.00000308      0.00000067      0.00001154      0.00000402  ~
     28    -314.983132990163      0.000000003352      0.00000086      0.00000022      0.00001415      0.00000546  ~
     29    -314.983132993524     -0.000000003361      0.00000298      0.00000076      0.00001217      0.00000419  ~
     30    -314.983132989229      0.000000004295      0.00000222      0.00000049      0.00000961      0.00000369  ~
     31    -314.983132994216     -0.000000004987      0.00000288      0.00000077      0.00001138      0.00000377  ~
     32    -314.983132987538      0.000000006678      0.00000209      0.00000056      0.00006820      0.00002011  ~
     33    -314.983132993113     -0.000000005575      0.00000681      0.00000147      0.00005273      0.00001623  ~
     34    -314.983132991729      0.000000001384      0.00000303      0.00000060      0.00002496      0.00000817  ~
     35    -314.983132992221     -0.000000000492      0.00000251      0.00000061      0.00000510      0.00000192  ~
     36    -314.983132992726     -0.000000000505      0.00000216      0.00000055      0.00001058      0.00000298  ~
     37    -314.983132992509      0.000000000217      0.00000179      0.00000047      0.00001130      0.00000339  ~
     38    -314.983132993195     -0.000000000686      0.00000091      0.00000024      0.00002588      0.00000821  ~
     39    -314.983132992438      0.000000000758      0.00000816      0.00000145      0.00002818      0.00000887  ~
     40    -314.983132988122      0.000000004316      0.00000185      0.00000044      0.00000432      0.00000125  ~
  --------------------------------------------------------------------------------------------------------------- ~

	Writing optimization data to binary file.
	Final energy is   -314.9831329881219
	Final (previous) structure:
	Cartesian Geometry (in Angstrom)
	    C     0.7707910680   3.5829620472   0.2366049914
	    H     0.7133020401   4.6711508517   0.2436108887
	    H     1.3352278094   3.2880362231  -0.6471303498
	    H     1.3390034456   3.2717514984   1.1149625246
	    C    -0.7707679325  -3.5829692895   0.2367580085
	    H    -0.7132637435  -4.6711570353   0.2438007260
	    H    -1.3352657288  -3.2880846836  -0.6469523625
	    H    -1.3389284006  -3.2717338904   1.1151405611
	    C    -0.6197725743   2.9568866221   0.2477415811
	    H    -1.1599979423   3.2467194899  -0.6577961463
	    H    -1.1875441865   3.3582946061   1.0901017259
	    C     0.6197885018  -2.9568758023   0.2477822254
	    H     1.1876209731  -3.3582564928   1.0901145856
	    H     1.1599562969  -3.2467270284  -0.6577840193
	    C    -0.5911534562   1.4333477196   0.3465535698
	    H    -1.6156714550   1.0573245541   0.4309662457
	    H    -0.0775179133   1.1485541699   1.2689289040
	    C     0.0771520293   0.7596491009  -0.8484638943
	    H     1.1419603391   1.0068404828  -0.8689780810
	    H    -0.3565458130   1.1671034791  -1.7671894767
	    C    -0.0772021516  -0.7596654473  -0.8484402524
	    H    -1.1420111412  -1.0068569028  -0.8688949694
	    H     0.3564496538  -1.1671438695  -1.7671768965
	    C     0.5911623469  -1.4333341792   0.3465600598
	    H     1.6156820865  -1.0573029135   0.4309151121
	    H     0.0775695007  -1.1485217245   1.2689535323
	Saving final (previous) structure.
			--------------------------
			 OPTKING Finished Execution 
			--------------------------

    Final optimized geometry and variables:
    Molecular point group: c1
    Full point group: C1

    Geometry (in Angstrom), charge = 0, multiplicity = 1:

    C            0.770791068015     3.582962047231     0.236604991351
    H            0.713302040132     4.671150851722     0.243610888687
    H            1.335227809358     3.288036223073    -0.647130349832
    H            1.339003445617     3.271751498385     1.114962524592
    C           -0.770767932475    -3.582969289507     0.236758008534
    H           -0.713263743482    -4.671157035310     0.243800725981
    H           -1.335265728798    -3.288084683626    -0.646952362500
    H           -1.338928400612    -3.271733890371     1.115140561069
    C           -0.619772574303     2.956886622094     0.247741581082
    H           -1.159997942320     3.246719489919    -0.657796146300
    H           -1.187544186546     3.358294606145     1.090101725890
    C            0.619788501805    -2.956875802347     0.247782225358
    H            1.187620973080    -3.358256492794     1.090114585585
    H            1.159956296857    -3.246727028421    -0.657784019265
    C           -0.591153456235     1.433347719569     0.346553569824
    H           -1.615671454958     1.057324554136     0.430966245727
    H           -0.077517913291     1.148554169858     1.268928903986
    C            0.077152029334     0.759649100898    -0.848463894305
    H            1.141960339105     1.006840482786    -0.868978080969
    H           -0.356545812971     1.167103479079    -1.767189476670
    C           -0.077202151620    -0.759665447301    -0.848440252444
    H           -1.142011141240    -1.006856902847    -0.868894969353
    H            0.356449653760    -1.167143869457    -1.767176896521
    C            0.591162346897    -1.433334179172     0.346560059834
    H            1.615682086509    -1.057302913478     0.430915112074
    H            0.077569500735    -1.148521724511     1.268953532342

	Cleaning optimization helper files.

*** Psi4 exiting successfully. Buy a developer a beer!
