    -----------------------------------------------------------------------
          Psi4: An Open-Source Ab Initio Electronic Structure Package
                              Psi4 1.0.0 Driver

                          Git: Rev {master} 6a9a71b dirty

    J. M. Turney, A. C. Simmonett, R. M. Parrish, E. G. Hohenstein,
    F. A. Evangelista, J. T. Fermann, B. J. Mintz, L. A. Burns, J. J. Wilke,
    M. L. Abrams, N. J. Russ, M. L. Leininger, C. L. Janssen, E. T. Seidl,
    W. D. Allen, H. F. Schaefer, R. A. King, E. F. Valeev, C. D. Sherrill,
    and T. D. Crawford, WIREs Comput. Mol. Sci. 2, 556-565 (2012)
    (doi: 10.1002/wcms.93)

                         Additional Contributions by
    A. E. DePrince, U. Bozkaya, A. Yu. Sokolov, D. G. A. Smith, R. Di Remigio,
    R. M. Richard, J. F. Gonthier, H. R. McAlexander, M. Saitow, and
    B. P. Pritchard
    -----------------------------------------------------------------------


    Psi4 started on: Tue Sep 20 18:27:41 2016

    Process ID:  11196
    PSI4DATADIR: /usr/local/hpc5/psi4conda/share/psi4
    Memory level set to 256.000 MB

  ==> Input File <==

--------------------------------------------------------------------------
memory 30 Gb

molecule molecule_70_psi {
0 1
symmetry c1
    C           -3.236545476738    -0.855791223896    -0.183599093346
    H           -2.456388470265    -1.580513003543    -0.400172356064
    H           -3.725020328617    -0.607626065256    -1.124371726770
    H           -3.972752379950    -1.333268412458     0.459853635251
    C            3.236549831393     0.855789640118     0.183583073115
    H            3.725035872058     0.607627499750     1.124350328106
    H            2.456396087391     1.580512251740     0.400163392352
    H            3.972748904583     1.333264285793    -0.459880085552
    C           -2.668564009039     0.400039566696     0.457223864705
    H           -2.255354378347     0.160958476950     1.439029436997
    H           -3.485734668536     1.098414234321     0.634070504711
    C            2.668559224273    -0.400042683190    -0.457228493443
    H            2.255340773316    -0.160964727015    -1.439030693530
    H            3.485725773032    -1.098420393716    -0.634080445539
    C           -1.588964010091     1.078989460830    -0.387776254560
    H           -1.708561745941     2.161277841364    -0.336375170870
    H           -1.728812127907     0.803816527686    -1.435990469785
    C           -0.164425127286     0.740142402779     0.028341599826
    H            0.002767290244     1.101602561757     1.046741293349
    H            0.524469658446     1.288477723497    -0.615094956276
    C            0.164423863839    -0.740141908215    -0.028328419412
    H           -0.524467408583    -1.288477344341     0.615111717715
    H           -0.002770620249    -1.101603830166    -1.046727088848
    C            1.588965331396    -1.078985358087     0.387784914776
    H            1.728818923988    -0.803802609580     1.435995375199
    H            1.708563277684    -2.161273790796     0.336393120651
}

set globals {
  reference rhf
  g_convergence gau_verytight
  basis aug-cc-pvtz
  freeze_core true
  scf_type df
  mp_type df
}
optimize('mp2')
--------------------------------------------------------------------------
/usr/local/hpc5/psi4conda/lib/python2.7/site-packages/v2rdm_casscf/v2rdm_casscf.so loaded.

  Memory set to  30.000 GiB by Python script.
gradient() will perform analytic gradient computation.

*** tstart() called on wr32
*** at Tue Sep 20 18:27:42 2016


         ---------------------------------------------------------
                                   SCF
            by Justin Turney, Rob Parrish, and Andy Simmonett
                              RHF Reference
                       12 Threads,  30000 MiB Core
         ---------------------------------------------------------

  ==> Geometry <==

    Molecular point group: c1
    Full point group: C1

    Geometry (in Angstrom), charge = 0, multiplicity = 1:

       Center              X                  Y                   Z               Mass       
    ------------   -----------------  -----------------  -----------------  -----------------
           C         -3.236545476738    -0.855791223896    -0.183599093346    12.000000000000
           H         -2.456388470265    -1.580513003543    -0.400172356064     1.007825032070
           H         -3.725020328617    -0.607626065256    -1.124371726770     1.007825032070
           H         -3.972752379950    -1.333268412458     0.459853635251     1.007825032070
           C          3.236549831393     0.855789640118     0.183583073115    12.000000000000
           H          3.725035872058     0.607627499750     1.124350328106     1.007825032070
           H          2.456396087391     1.580512251740     0.400163392352     1.007825032070
           H          3.972748904583     1.333264285793    -0.459880085552     1.007825032070
           C         -2.668564009039     0.400039566696     0.457223864705    12.000000000000
           H         -2.255354378347     0.160958476950     1.439029436997     1.007825032070
           H         -3.485734668536     1.098414234321     0.634070504711     1.007825032070
           C          2.668559224273    -0.400042683190    -0.457228493443    12.000000000000
           H          2.255340773316    -0.160964727015    -1.439030693530     1.007825032070
           H          3.485725773032    -1.098420393716    -0.634080445539     1.007825032070
           C         -1.588964010091     1.078989460830    -0.387776254560    12.000000000000
           H         -1.708561745941     2.161277841364    -0.336375170870     1.007825032070
           H         -1.728812127907     0.803816527686    -1.435990469785     1.007825032070
           C         -0.164425127286     0.740142402779     0.028341599826    12.000000000000
           H          0.002767290244     1.101602561757     1.046741293349     1.007825032070
           H          0.524469658446     1.288477723497    -0.615094956276     1.007825032070
           C          0.164423863839    -0.740141908215    -0.028328419412    12.000000000000
           H         -0.524467408583    -1.288477344341     0.615111717715     1.007825032070
           H         -0.002770620249    -1.101603830166    -1.046727088848     1.007825032070
           C          1.588965331396    -1.078985358087     0.387784914776    12.000000000000
           H          1.728818923988    -0.803802609580     1.435995375199     1.007825032070
           H          1.708563277684    -2.161273790796     0.336393120651     1.007825032070

  Running in c1 symmetry.

  Rotational constants: A =      0.14540  B =      0.02685  C =      0.02430 [cm^-1]
  Rotational constants: A =   4358.94072  B =    805.00902  C =    728.63790 [MHz]
  Nuclear repulsion =  398.779914246705118

  Charge       = 0
  Multiplicity = 1
  Electrons    = 66
  Nalpha       = 33
  Nbeta        = 33

  ==> Algorithm <==

  SCF Algorithm Type is DF.
  DIIS enabled.
  MOM disabled.
  Fractional occupation disabled.
  Guess Type is SAD.
  Energy threshold   = 1.00e-10
  Density threshold  = 1.00e-10
  Integral threshold = 0.00e+00

  ==> Primary Basis <==

  Basis Set: AUG-CC-PVTZ
    Number of shells: 274
    Number of basis function: 782
    Number of Cartesian functions: 890
    Spherical Harmonics?: true
    Max angular momentum: 3

  ==> Pre-Iterations <==

   -------------------------------------------------------
    Irrep   Nso     Nmo     Nalpha   Nbeta   Ndocc  Nsocc
   -------------------------------------------------------
     A        782     782       0       0       0       0
   -------------------------------------------------------
    Total     782     782      33      33      33       0
   -------------------------------------------------------

  ==> Integral Setup <==

  ==> DFJK: Density-Fitted J/K Matrices <==

    J tasked:                  Yes
    K tasked:                  Yes
    wK tasked:                  No
    OpenMP threads:             12
    Integrals threads:          12
    Memory (MB):             21457
    Algorithm:                Core
    Integral Cache:           NONE
    Schwarz Cutoff:          1E-12
    Fitting Condition:       1E-12

   => Auxiliary Basis Set <=

  Basis Set: 
    Number of shells: 492
    Number of basis function: 1660
    Number of Cartesian functions: 2038
    Spherical Harmonics?: true
    Max angular momentum: 4

  Minimum eigenvalue in the overlap matrix is 1.5789776641E-06.
  Using Symmetric Orthogonalization.
  SCF Guess: Superposition of Atomic Densities via on-the-fly atomic UHF.

  ==> Iterations <==

                           Total Energy        Delta E     RMS |[F,P]|

   @DF-RHF iter   0:  -317.00234150123123   -3.17002e+02   7.04421e-03 
   @DF-RHF iter   1:  -313.29980271439371    3.70254e+00   6.92119e-04 
   @DF-RHF iter   2:  -313.50184666480862   -2.02044e-01   2.51699e-04 DIIS
   @DF-RHF iter   3:  -313.52801177738246   -2.61651e-02   1.02256e-04 DIIS
   @DF-RHF iter   4:  -313.53306024356215   -5.04847e-03   1.48842e-05 DIIS
   @DF-RHF iter   5:  -313.53320580500127   -1.45561e-04   4.45294e-06 DIIS
   @DF-RHF iter   6:  -313.53321658143813   -1.07764e-05   1.15366e-06 DIIS
   @DF-RHF iter   7:  -313.53321730500471   -7.23567e-07   2.08088e-07 DIIS
   @DF-RHF iter   8:  -313.53321733433069   -2.93260e-08   5.54096e-08 DIIS
   @DF-RHF iter   9:  -313.53321733575916   -1.42848e-09   1.47671e-08 DIIS
   @DF-RHF iter  10:  -313.53321733590570   -1.46542e-10   3.38508e-09 DIIS
   @DF-RHF iter  11:  -313.53321733591559   -9.89075e-12   7.76927e-10 DIIS
   @DF-RHF iter  12:  -313.53321733591685   -1.25056e-12   1.88641e-10 DIIS
   @DF-RHF iter  13:  -313.53321733591616    6.82121e-13   5.47356e-11 DIIS

  ==> Post-Iterations <==

    Orbital Energies (a.u.)
    -----------------------

    Doubly Occupied:                                                      

       1A    -11.210753     2A    -11.210753     3A    -11.209070  
       4A    -11.208811     5A    -11.208427     6A    -11.208040  
       7A    -11.204569     8A    -11.204569     9A     -1.097463  
      10A     -1.060642    11A     -1.006482    12A     -0.954673  
      13A     -0.884608    14A     -0.828994    15A     -0.784921  
      16A     -0.764143    17A     -0.651098    18A     -0.615685  
      19A     -0.610330    20A     -0.603060    21A     -0.585127  
      22A     -0.562033    23A     -0.539611    24A     -0.534826  
      25A     -0.520264    26A     -0.500461    27A     -0.487351  
      28A     -0.470593    29A     -0.467100    30A     -0.462668  
      31A     -0.451502    32A     -0.433574    33A     -0.430909  

    Virtual:                                                              

      34A      0.029585    35A      0.032815    36A      0.033999  
      37A      0.036219    38A      0.045846    39A      0.047209  
      40A      0.049890    41A      0.054136    42A      0.056300  
      43A      0.064335    44A      0.067426    45A      0.069448  
      46A      0.072664    47A      0.084453    48A      0.088879  
      49A      0.090638    50A      0.092775    51A      0.098461  
      52A      0.110026    53A      0.113811    54A      0.121773  
      55A      0.123314    56A      0.128749    57A      0.129274  
      58A      0.130973    59A      0.137588    60A      0.143407  
      61A      0.146971    62A      0.149311    63A      0.152158  
      64A      0.158581    65A      0.160160    66A      0.161981  
      67A      0.163848    68A      0.166619    69A      0.170399  
      70A      0.173473    71A      0.177804    72A      0.180768  
      73A      0.186355    74A      0.197036    75A      0.197369  
      76A      0.207448    77A      0.215686    78A      0.220051  
      79A      0.225866    80A      0.227020    81A      0.242743  
      82A      0.244505    83A      0.251540    84A      0.254222  
      85A      0.265909    86A      0.269146    87A      0.284080  
      88A      0.288565    89A      0.293564    90A      0.295527  
      91A      0.301634    92A      0.304386    93A      0.307859  
      94A      0.317262    95A      0.318476    96A      0.323391  
      97A      0.324132    98A      0.327650    99A      0.332616  
     100A      0.334139   101A      0.337073   102A      0.345547  
     103A      0.349966   104A      0.353039   105A      0.357963  
     106A      0.358078   107A      0.362040   108A      0.365586  
     109A      0.367178   110A      0.374133   111A      0.376979  
     112A      0.382607   113A      0.384289   114A      0.390591  
     115A      0.391393   116A      0.395357   117A      0.397656  
     118A      0.403509   119A      0.405637   120A      0.408950  
     121A      0.413809   122A      0.424435   123A      0.430718  
     124A      0.441058   125A      0.441427   126A      0.444178  
     127A      0.446143   128A      0.448756   129A      0.451735  
     130A      0.453349   131A      0.454192   132A      0.456185  
     133A      0.461749   134A      0.462846   135A      0.471081  
     136A      0.474185   137A      0.476293   138A      0.484443  
     139A      0.487729   140A      0.490151   141A      0.493064  
     142A      0.494003   143A      0.495049   144A      0.504230  
     145A      0.508781   146A      0.513595   147A      0.515884  
     148A      0.525740   149A      0.528027   150A      0.532321  
     151A      0.533529   152A      0.536997   153A      0.540438  
     154A      0.551603   155A      0.556551   156A      0.557931  
     157A      0.568243   158A      0.573519   159A      0.576071  
     160A      0.577330   161A      0.579799   162A      0.587756  
     163A      0.592004   164A      0.600624   165A      0.603263  
     166A      0.606146   167A      0.609286   168A      0.612065  
     169A      0.612211   170A      0.614956   171A      0.622726  
     172A      0.627018   173A      0.630516   174A      0.635106  
     175A      0.640440   176A      0.646900   177A      0.649792  
     178A      0.663230   179A      0.665511   180A      0.666372  
     181A      0.673994   182A      0.677951   183A      0.679283  
     184A      0.684452   185A      0.691712   186A      0.693627  
     187A      0.699258   188A      0.700673   189A      0.709388  
     190A      0.722225   191A      0.722767   192A      0.727708  
     193A      0.739009   194A      0.746686   195A      0.747062  
     196A      0.753237   197A      0.767788   198A      0.781152  
     199A      0.784281   200A      0.793402   201A      0.803435  
     202A      0.809337   203A      0.823447   204A      0.828011  
     205A      0.832727   206A      0.840775   207A      0.843848  
     208A      0.850856   209A      0.859970   210A      0.865876  
     211A      0.870284   212A      0.878994   213A      0.881071  
     214A      0.886319   215A      0.887285   216A      0.896525  
     217A      0.900453   218A      0.901182   219A      0.903649  
     220A      0.913472   221A      0.914138   222A      0.921147  
     223A      0.921709   224A      0.933575   225A      0.934073  
     226A      0.938290   227A      0.953338   228A      0.955879  
     229A      0.964496   230A      0.965318   231A      0.969932  
     232A      0.972481   233A      0.977880   234A      0.985999  
     235A      0.988929   236A      0.989935   237A      1.003064  
     238A      1.010669   239A      1.012126   240A      1.013095  
     241A      1.014934   242A      1.021978   243A      1.026437  
     244A      1.034851   245A      1.044862   246A      1.051559  
     247A      1.055274   248A      1.060169   249A      1.064632  
     250A      1.066771   251A      1.069074   252A      1.075549  
     253A      1.083748   254A      1.087267   255A      1.089075  
     256A      1.091050   257A      1.106372   258A      1.109170  
     259A      1.116421   260A      1.121564   261A      1.122837  
     262A      1.133036   263A      1.134503   264A      1.140486  
     265A      1.144051   266A      1.159945   267A      1.160899  
     268A      1.170378   269A      1.174413   270A      1.176182  
     271A      1.179716   272A      1.180757   273A      1.185541  
     274A      1.190977   275A      1.200427   276A      1.214893  
     277A      1.220705   278A      1.221989   279A      1.227252  
     280A      1.228172   281A      1.234873   282A      1.245886  
     283A      1.249965   284A      1.258712   285A      1.258956  
     286A      1.273837   287A      1.274046   288A      1.279911  
     289A      1.280281   290A      1.283618   291A      1.292307  
     292A      1.296484   293A      1.299436   294A      1.305876  
     295A      1.308066   296A      1.319130   297A      1.323134  
     298A      1.329827   299A      1.334000   300A      1.348279  
     301A      1.350860   302A      1.353898   303A      1.357801  
     304A      1.362890   305A      1.365784   306A      1.380670  
     307A      1.382321   308A      1.392122   309A      1.399211  
     310A      1.399573   311A      1.413912   312A      1.420890  
     313A      1.432189   314A      1.445630   315A      1.451282  
     316A      1.452258   317A      1.456255   318A      1.470413  
     319A      1.476640   320A      1.483628   321A      1.487024  
     322A      1.493760   323A      1.502632   324A      1.510679  
     325A      1.518443   326A      1.526758   327A      1.535877  
     328A      1.539334   329A      1.557152   330A      1.560592  
     331A      1.564003   332A      1.564168   333A      1.577816  
     334A      1.583028   335A      1.587935   336A      1.605030  
     337A      1.614857   338A      1.622615   339A      1.627025  
     340A      1.640847   341A      1.645755   342A      1.650600  
     343A      1.658201   344A      1.658684   345A      1.660016  
     346A      1.680725   347A      1.685620   348A      1.686641  
     349A      1.691487   350A      1.693513   351A      1.710228  
     352A      1.713997   353A      1.714334   354A      1.722637  
     355A      1.725289   356A      1.732627   357A      1.734963  
     358A      1.736623   359A      1.744850   360A      1.753625  
     361A      1.757443   362A      1.761915   363A      1.768780  
     364A      1.771801   365A      1.780328   366A      1.781801  
     367A      1.790900   368A      1.795189   369A      1.801126  
     370A      1.806939   371A      1.811829   372A      1.825755  
     373A      1.826360   374A      1.839862   375A      1.842904  
     376A      1.846978   377A      1.847202   378A      1.858418  
     379A      1.863614   380A      1.871812   381A      1.878670  
     382A      1.882489   383A      1.894457   384A      1.898476  
     385A      1.901255   386A      1.904133   387A      1.914338  
     388A      1.916295   389A      1.935018   390A      1.937234  
     391A      1.938533   392A      1.955317   393A      1.960737  
     394A      1.967094   395A      1.969701   396A      1.974095  
     397A      1.990689   398A      1.994032   399A      2.004101  
     400A      2.016681   401A      2.022268   402A      2.023832  
     403A      2.025538   404A      2.036344   405A      2.058851  
     406A      2.060223   407A      2.067699   408A      2.074574  
     409A      2.082410   410A      2.090302   411A      2.096827  
     412A      2.098004   413A      2.104160   414A      2.108749  
     415A      2.117981   416A      2.118408   417A      2.131133  
     418A      2.140125   419A      2.145058   420A      2.153560  
     421A      2.156770   422A      2.171707   423A      2.179308  
     424A      2.180256   425A      2.191416   426A      2.199472  
     427A      2.202105   428A      2.205400   429A      2.226263  
     430A      2.235307   431A      2.246075   432A      2.250669  
     433A      2.275818   434A      2.276590   435A      2.288732  
     436A      2.293121   437A      2.298463   438A      2.305168  
     439A      2.322724   440A      2.322750   441A      2.335736  
     442A      2.346497   443A      2.349598   444A      2.353253  
     445A      2.371072   446A      2.376696   447A      2.382196  
     448A      2.387813   449A      2.401984   450A      2.404283  
     451A      2.407167   452A      2.418413   453A      2.423228  
     454A      2.433840   455A      2.436059   456A      2.462832  
     457A      2.465506   458A      2.481752   459A      2.487729  
     460A      2.496298   461A      2.500647   462A      2.513224  
     463A      2.531567   464A      2.541196   465A      2.555958  
     466A      2.558767   467A      2.569006   468A      2.573392  
     469A      2.597788   470A      2.610777   471A      2.624320  
     472A      2.634719   473A      2.638159   474A      2.650785  
     475A      2.667250   476A      2.685109   477A      2.704518  
     478A      2.736538   479A      2.768073   480A      2.792609  
     481A      2.808153   482A      2.826938   483A      2.861363  
     484A      2.896192   485A      2.940966   486A      2.953730  
     487A      3.031584   488A      3.076777   489A      3.118118  
     490A      3.132918   491A      3.195417   492A      3.246665  
     493A      3.296255   494A      3.347237   495A      3.356317  
     496A      3.427076   497A      3.440304   498A      3.449033  
     499A      3.452369   500A      3.476450   501A      3.505899  
     502A      3.506806   503A      3.511710   504A      3.534610  
     505A      3.549596   506A      3.561714   507A      3.565276  
     508A      3.597041   509A      3.601852   510A      3.608947  
     511A      3.619660   512A      3.626130   513A      3.629851  
     514A      3.630755   515A      3.634698   516A      3.653848  
     517A      3.684717   518A      3.697847   519A      3.705029  
     520A      3.715601   521A      3.716617   522A      3.721140  
     523A      3.724053   524A      3.742545   525A      3.746950  
     526A      3.759670   527A      3.762469   528A      3.770651  
     529A      3.777902   530A      3.794311   531A      3.795383  
     532A      3.817037   533A      3.821595   534A      3.836500  
     535A      3.839637   536A      3.855978   537A      3.858325  
     538A      3.868433   539A      3.875362   540A      3.876220  
     541A      3.881238   542A      3.889428   543A      3.890769  
     544A      3.897956   545A      3.903490   546A      3.908685  
     547A      3.922439   548A      3.941616   549A      3.942480  
     550A      3.954894   551A      3.957552   552A      3.972513  
     553A      3.981701   554A      3.988435   555A      3.992418  
     556A      3.997163   557A      4.006998   558A      4.014664  
     559A      4.027166   560A      4.038540   561A      4.041397  
     562A      4.051178   563A      4.052377   564A      4.055073  
     565A      4.067228   566A      4.073886   567A      4.080728  
     568A      4.085920   569A      4.087628   570A      4.097573  
     571A      4.100260   572A      4.121231   573A      4.126183  
     574A      4.129576   575A      4.131770   576A      4.139541  
     577A      4.173614   578A      4.174851   579A      4.185100  
     580A      4.189825   581A      4.199537   582A      4.211414  
     583A      4.226259   584A      4.234647   585A      4.241681  
     586A      4.246911   587A      4.261845   588A      4.262186  
     589A      4.272031   590A      4.290247   591A      4.301695  
     592A      4.311375   593A      4.313743   594A      4.325154  
     595A      4.338099   596A      4.338346   597A      4.343893  
     598A      4.356185   599A      4.390196   600A      4.390306  
     601A      4.399390   602A      4.406220   603A      4.408368  
     604A      4.426019   605A      4.439691   606A      4.443479  
     607A      4.466401   608A      4.471026   609A      4.474668  
     610A      4.494720   611A      4.518161   612A      4.541337  
     613A      4.544269   614A      4.562470   615A      4.572357  
     616A      4.574791   617A      4.600018   618A      4.606505  
     619A      4.614701   620A      4.632498   621A      4.658168  
     622A      4.660041   623A      4.677289   624A      4.680366  
     625A      4.695086   626A      4.713465   627A      4.723068  
     628A      4.733669   629A      4.738317   630A      4.742020  
     631A      4.758972   632A      4.769322   633A      4.785894  
     634A      4.786690   635A      4.805427   636A      4.817316  
     637A      4.828776   638A      4.842151   639A      4.850739  
     640A      4.861475   641A      4.869059   642A      4.877288  
     643A      4.884088   644A      4.898715   645A      4.907565  
     646A      4.919068   647A      4.930620   648A      4.943574  
     649A      4.943792   650A      4.960715   651A      4.965920  
     652A      4.988868   653A      4.988983   654A      4.997860  
     655A      4.999756   656A      5.016584   657A      5.041000  
     658A      5.046028   659A      5.058802   660A      5.091586  
     661A      5.101599   662A      5.105260   663A      5.116261  
     664A      5.123291   665A      5.133562   666A      5.164345  
     667A      5.165786   668A      5.177329   669A      5.178648  
     670A      5.187003   671A      5.193847   672A      5.208059  
     673A      5.216564   674A      5.222257   675A      5.244126  
     676A      5.256558   677A      5.268383   678A      5.276046  
     679A      5.286333   680A      5.294081   681A      5.294604  
     682A      5.315621   683A      5.329833   684A      5.348208  
     685A      5.358175   686A      5.363687   687A      5.387724  
     688A      5.389105   689A      5.401316   690A      5.407020  
     691A      5.426426   692A      5.431335   693A      5.437444  
     694A      5.442930   695A      5.460025   696A      5.473639  
     697A      5.491208   698A      5.510061   699A      5.510103  
     700A      5.524280   701A      5.530125   702A      5.548304  
     703A      5.552694   704A      5.561574   705A      5.580771  
     706A      5.588134   707A      5.591628   708A      5.621918  
     709A      5.640910   710A      5.644720   711A      5.667310  
     712A      5.669657   713A      5.686034   714A      5.702048  
     715A      5.712177   716A      5.716569   717A      5.733274  
     718A      5.741550   719A      5.761032   720A      5.771894  
     721A      5.771976   722A      5.794429   723A      5.815457  
     724A      5.827291   725A      5.842039   726A      5.857679  
     727A      5.861637   728A      5.887470   729A      5.896824  
     730A      5.952930   731A      5.968003   732A      6.013877  
     733A      6.025817   734A      6.031362   735A      6.044528  
     736A      6.075574   737A      6.095992   738A      6.105951  
     739A      6.129449   740A      6.154684   741A      6.155689  
     742A      6.165232   743A      6.214022   744A      6.220349  
     745A      6.253078   746A      6.268124   747A      6.292311  
     748A      6.297333   749A      6.308502   750A      6.327075  
     751A      6.340783   752A      6.362317   753A      6.368594  
     754A      6.379132   755A      6.417554   756A      6.423582  
     757A      6.460872   758A      6.505433   759A      6.635012  
     760A      6.669121   761A      6.677198   762A      6.723421  
     763A      6.729380   764A      6.836250   765A      6.850176  
     766A      6.883967   767A      6.910498   768A      6.929724  
     769A      6.934901   770A      6.993063   771A      7.033436  
     772A      7.060661   773A      7.065799   774A      7.131717  
     775A     18.172987   776A     18.177651   777A     18.740081  
     778A     18.902924   779A     18.950514   780A     19.499308  
     781A     19.562789   782A     20.100799  

    Final Occupation by Irrep:
              A 
    DOCC [    33 ]

  Energy converged.

  @DF-RHF Final Energy:  -313.53321733591616

   => Energetics <=

    Nuclear Repulsion Energy =            398.7799142467051183
    One-Electron Energy =               -1212.6800403802155870
    Two-Electron Energy =                 500.3669087975941920
    DFT Exchange-Correlation Energy =       0.0000000000000000
    Empirical Dispersion Energy =           0.0000000000000000
    PCM Polarization Energy =               0.0000000000000000
    EFP Energy =                            0.0000000000000000
    Total Energy =                       -313.5332173359162198


  Saving occupied orbitals to File 180.

*** tstop() called on wr32 at Tue Sep 20 18:28:58 2016
Module time:
	user time   =     745.36 seconds =      12.42 minutes
	system time =      10.17 seconds =       0.17 minutes
	total time  =         76 seconds =       1.27 minutes
Total time:
	user time   =     745.36 seconds =      12.42 minutes
	system time =      10.17 seconds =       0.17 minutes
	total time  =         76 seconds =       1.27 minutes


Properties will be evaluated at   0.000000,   0.000000,   0.000000 Bohr

Properties computed using the SCF density matrix

  Nuclear Dipole Moment: (a.u.)
     X:     0.0000      Y:     0.0000      Z:    -0.0000

  Electronic Dipole Moment: (a.u.)
     X:    -0.0000      Y:    -0.0000      Z:     0.0000

  Dipole Moment: (a.u.)
     X:     0.0000      Y:    -0.0000      Z:     0.0000     Total:     0.0000

  Dipole Moment: (Debye)
     X:     0.0000      Y:    -0.0000      Z:     0.0000     Total:     0.0000


  //>>>>>>>>>>>>>>>>>>>>>>>>>>>>>>>>>>>//
  //               DFMP2               //
  //<<<<<<<<<<<<<<<<<<<<<<<<<<<<<<<<<<<//


*** tstart() called on wr32
*** at Tue Sep 20 18:28:58 2016


*** tstop() called on wr32 at Tue Sep 20 18:28:58 2016
Module time:
	user time   =       4.06 seconds =       0.07 minutes
	system time =       0.23 seconds =       0.00 minutes
	total time  =          0 seconds =       0.00 minutes
Total time:
	user time   =     750.02 seconds =      12.50 minutes
	system time =      10.43 seconds =       0.17 minutes
	total time  =         76 seconds =       1.27 minutes
	 --------------------------------------------------------
	                          DF-MP2                         
	      2nd-Order Density-Fitted Moller-Plesset Theory     
	              RMP2 Wavefunction,  12 Threads             
	                                                         
	        Rob Parrish, Justin Turney, Andy Simmonett,      
	           Ed Hohenstein, and C. David Sherrill          
	 --------------------------------------------------------

   => Auxiliary Basis Set <=

  Basis Set: 
    Number of shells: 476
    Number of basis function: 1676
    Number of Cartesian functions: 2078
    Spherical Harmonics?: true
    Max angular momentum: 4

	 --------------------------------------------------------
	                 NBF =   782, NAUX =  1676
	 --------------------------------------------------------
	   CLASS    FOCC     OCC    AOCC    AVIR     VIR    FVIR
	   PAIRS       8      33      25     749     749       0
	 --------------------------------------------------------

DGAS Warning! /src/lib/libfock/apps.cc:80 is not currently checking restricted

         ------------------------------------------------------------
                                     CPHF                           
                                  Rob Parrish                       
         ------------------------------------------------------------

  ==> Geometry <==

    Molecular point group: c1
    Full point group: C1

    Geometry (in Angstrom), charge = 0, multiplicity = 1:

       Center              X                  Y                   Z               Mass       
    ------------   -----------------  -----------------  -----------------  -----------------
           C         -3.236545476738    -0.855791223896    -0.183599093346    12.000000000000
           H         -2.456388470265    -1.580513003543    -0.400172356064     1.007825032070
           H         -3.725020328617    -0.607626065256    -1.124371726770     1.007825032070
           H         -3.972752379950    -1.333268412458     0.459853635251     1.007825032070
           C          3.236549831393     0.855789640118     0.183583073115    12.000000000000
           H          3.725035872058     0.607627499750     1.124350328106     1.007825032070
           H          2.456396087391     1.580512251740     0.400163392352     1.007825032070
           H          3.972748904583     1.333264285793    -0.459880085552     1.007825032070
           C         -2.668564009039     0.400039566696     0.457223864705    12.000000000000
           H         -2.255354378347     0.160958476950     1.439029436997     1.007825032070
           H         -3.485734668536     1.098414234321     0.634070504711     1.007825032070
           C          2.668559224273    -0.400042683190    -0.457228493443    12.000000000000
           H          2.255340773316    -0.160964727015    -1.439030693530     1.007825032070
           H          3.485725773032    -1.098420393716    -0.634080445539     1.007825032070
           C         -1.588964010091     1.078989460830    -0.387776254560    12.000000000000
           H         -1.708561745941     2.161277841364    -0.336375170870     1.007825032070
           H         -1.728812127907     0.803816527686    -1.435990469785     1.007825032070
           C         -0.164425127286     0.740142402779     0.028341599826    12.000000000000
           H          0.002767290244     1.101602561757     1.046741293349     1.007825032070
           H          0.524469658446     1.288477723497    -0.615094956276     1.007825032070
           C          0.164423863839    -0.740141908215    -0.028328419412    12.000000000000
           H         -0.524467408583    -1.288477344341     0.615111717715     1.007825032070
           H         -0.002770620249    -1.101603830166    -1.046727088848     1.007825032070
           C          1.588965331396    -1.078985358087     0.387784914776    12.000000000000
           H          1.728818923988    -0.803802609580     1.435995375199     1.007825032070
           H          1.708563277684    -2.161273790796     0.336393120651     1.007825032070

  Nuclear repulsion =  398.779914246705118
  Reference energy  = -313.533217335916163

  ==> Basis Set <==

  Basis Set: AUG-CC-PVTZ
    Number of shells: 274
    Number of basis function: 782
    Number of Cartesian functions: 890
    Spherical Harmonics?: true
    Max angular momentum: 3

  ==> CGRSolver (by Rob Parrish) <==

   Number of roots    =         1
   Preconditioning    =    JACOBI
   Convergence cutoff =     1E-06
   Maximum iterations =       100

  ==> CPHFRHamiltonian (by Rob Parrish) <== 

  ==> DFJK: Density-Fitted J/K Matrices <==

    J tasked:                  Yes
    K tasked:                  Yes
    wK tasked:                  No
    OpenMP threads:             12
    Integrals threads:          12
    Memory (MB):             21457
    Algorithm:                Core
    Integral Cache:           NONE
    Schwarz Cutoff:          1E-12
    Fitting Condition:       1E-12

   => Auxiliary Basis Set <=

  Basis Set: 
    Number of shells: 492
    Number of basis function: 1660
    Number of Cartesian functions: 2038
    Spherical Harmonics?: true
    Max angular momentum: 4

  ==> CPHF Iterations <==

  => Iterations <=

             Iter  Converged  Remaining    Residual
  CGR           1          0          1   9.193E-02
  CGR           2          0          1   1.309E-02
  CGR           3          0          1   3.555E-03
  CGR           4          0          1   8.353E-04
  CGR           5          0          1   2.044E-04
  CGR           6          0          1   4.394E-05
  CGR           7          0          1   1.266E-05
  CGR           8          0          1   2.989E-06
  CGR           9          1          0   5.995E-07

    CGRSolver converged.

  ==> DFCorrGrad: Density-Fitted Correlated Gradients <==

    OpenMP threads:             12
    Integrals threads:          12
    Memory (MB):             21457
    Schwarz Cutoff:          0E+00
    Fitting Condition:       1E-12

   => Auxiliary Basis Set <=

  Basis Set: 
    Number of shells: 492
    Number of basis function: 1660
    Number of Cartesian functions: 2038
    Spherical Harmonics?: true
    Max angular momentum: 4

	-----------------------------------------------------------
	 ==================> DF-MP2 Energies <==================== 
	-----------------------------------------------------------
	 Reference Energy          =    -313.5332173359161629 [Eh]
	 Singles Energy            =      -0.0000000000000001 [Eh]
	 Same-Spin Energy          =      -0.3171558766595397 [Eh]
	 Opposite-Spin Energy      =      -1.1262124243593377 [Eh]
	 Correlation Energy        =      -1.4433683010188774 [Eh]
	 Total Energy              =    -314.9765856369350558 [Eh]
	-----------------------------------------------------------
	 ================> DF-SCS-MP2 Energies <================== 
	-----------------------------------------------------------
	 SCS Same-Spin Scale       =       0.3333333333333333 [-]
	 SCS Opposite-Spin Scale   =       1.2000000000000000 [-]
	 SCS Same-Spin Energy      =      -0.1057186255531799 [Eh]
	 SCS Opposite-Spin Energy  =      -1.3514549092312051 [Eh]
	 SCS Correlation Energy    =      -1.4571735347843850 [Eh]
	 SCS Total Energy          =    -314.9903908707005371 [Eh]
	-----------------------------------------------------------


  -Total Gradient:
     Atom            X                  Y                   Z
    ------   -----------------  -----------------  -----------------
       1        0.000919244367     0.001121571211     0.000566853003
       2       -0.000888494511     0.001280274375     0.000377345831
       3        0.000725965338    -0.000003557469     0.001292941570
       4        0.001020576216     0.000752940316    -0.000676943640
       5       -0.000919407917    -0.001121809526    -0.000566903189
       6       -0.000725895081     0.000003474944    -0.001292738133
       7        0.000888422774    -0.001280141020    -0.000377359584
       8       -0.001020475691    -0.000752959086     0.000676900047
       9        0.000406378954    -0.000833939646    -0.001692648477
      10       -0.000236206718     0.000091270168    -0.001568208862
      11        0.001187394976    -0.000722161694    -0.000430880635
      12       -0.000406195771     0.000834473055     0.001692941686
      13        0.000236026855    -0.000091201701     0.001567867246
      14       -0.001187133136     0.000721986679     0.000430960505
      15        0.000529415689    -0.001221942585     0.001573487580
      16        0.000083859404    -0.001298174000     0.000161171197
      17        0.000409937759    -0.000082664520     0.001456423021
      18       -0.001162324016    -0.001332359662    -0.000637228524
      19       -0.000352540990    -0.000613915737    -0.001245213672
      20       -0.000973632199    -0.000916607138     0.000644603572
      21        0.001163198504     0.001331767339     0.000637580125
      22        0.000973311908     0.000916646217    -0.000644499373
      23        0.000352235101     0.000613951118     0.001244871568
      24       -0.000530127146     0.001222750887    -0.001574264581
      25       -0.000409727916     0.000082781609    -0.001455779830
      26       -0.000083806751     0.001297545868    -0.000161278450


			-----------------------------------------
			 OPTKING 2.0: for geometry optimizations 
			  - R.A. King,  Bethel University        
			-----------------------------------------

	Internal coordinates to be generated automatically.
	Detected frag 1 with atoms:  1 2 3 4 5 6 7 8 9 10 11 12 13 14 15 16 17 18 19 20
	 21 22 23 24 25 26
	---Fragment 1 Bond Connectivity---
	 1 : 2 3 4 9
	 2 : 1
	 3 : 1
	 4 : 1
	 5 : 6 7 8 12
	 6 : 5
	 7 : 5
	 8 : 5
	 9 : 1 10 11 15
	 10 : 9
	 11 : 9
	 12 : 5 13 14 24
	 13 : 12
	 14 : 12
	 15 : 9 16 17 18
	 16 : 15
	 17 : 15
	 18 : 15 19 20 21
	 19 : 18
	 20 : 18
	 21 : 18 22 23 24
	 22 : 21
	 23 : 21
	 24 : 12 21 25 26
	 25 : 24
	 26 : 24

	---Fragment 1 Geometry and Gradient---
	 C          -6.1161845677       -1.6172110401       -0.3469520047
	 H          -4.6419014848       -2.9867367262       -0.7562161589
	 H          -7.0392682605       -1.1482468545       -2.1247546352
	 H          -7.5074139919       -2.5195121612        0.8689974318
	 C           6.1161927968        1.6172080472        0.3469217308
	 H           7.0392976334        1.1482495653        2.1247141975
	 H           4.6419158791        2.9867353055        0.7561992200
	 H           7.5074074244        2.5195043629       -0.8690474157
	 C          -5.0428551452        0.7559652234        0.8640278857
	 H          -4.2620021077        0.3041674402        2.7193715331
	 H          -6.5870838954        2.0757020833        1.1982196028
	 C           5.0428461033       -0.7559711127       -0.8640366328
	 H           4.2619763979       -0.3041792511       -2.7193739076
	 H           6.5870670854       -2.0757137229       -1.1982383883
	 C          -3.0027068141        2.0389945812       -0.7327909220
	 H          -3.2287137810        4.0842232173       -0.6356569508
	 H          -3.2669814570        1.5189930984       -2.7136287173
	 C          -0.3107184599        1.3986664406        0.0535578618
	 H           0.0052294207        2.0817271490        1.9780543764
	 H           0.9911040195        2.4348700257       -1.1623610131
	 C           0.3107160724       -1.3986655060       -0.0535329545
	 H          -0.9910997678       -2.4348693092        1.1623926876
	 H          -0.0052357135       -2.0817295460       -1.9780275338
	 C           3.0027093110       -2.0389868282        0.7328072874
	 H           3.2669942997       -1.5189667970        2.7136379872
	 H           3.2287166755       -4.0842155628        0.6356908710
	             0.0009192444        0.0011215712        0.0005668530
	            -0.0008884945        0.0012802744        0.0003773458
	             0.0007259653       -0.0000035575        0.0012929416
	             0.0010205762        0.0007529403       -0.0006769436
	            -0.0009194079       -0.0011218095       -0.0005669032
	            -0.0007258951        0.0000034749       -0.0012927381
	             0.0008884228       -0.0012801410       -0.0003773596
	            -0.0010204757       -0.0007529591        0.0006769000
	             0.0004063790       -0.0008339396       -0.0016926485
	            -0.0002362067        0.0000912702       -0.0015682089
	             0.0011873950       -0.0007221617       -0.0004308806
	            -0.0004061958        0.0008344731        0.0016929417
	             0.0002360269       -0.0000912017        0.0015678672
	            -0.0011871331        0.0007219867        0.0004309605
	             0.0005294157       -0.0012219426        0.0015734876
	             0.0000838594       -0.0012981740        0.0001611712
	             0.0004099378       -0.0000826645        0.0014564230
	            -0.0011623240       -0.0013323597       -0.0006372285
	            -0.0003525410       -0.0006139157       -0.0012452137
	            -0.0009736322       -0.0009166071        0.0006446036
	             0.0011631985        0.0013317673        0.0006375801
	             0.0009733119        0.0009166462       -0.0006444994
	             0.0003522351        0.0006139511        0.0012448716
	            -0.0005301271        0.0012227509       -0.0015742646
	            -0.0004097279        0.0000827816       -0.0014557798
	            -0.0000838068        0.0012975459       -0.0001612784

	Previous optimization step data not found.  Starting new optimization.

	---Fragment 1 Intrafragment Coordinates---
	 - Coordinate -           - BOHR/RAD -       - ANG/DEG -
	 R(1,2)           =         2.053438	       1.086633
	 R(1,3)           =         2.057327	       1.088690
	 R(1,4)           =         2.056259	       1.088125
	 R(1,9)           =         2.872364	       1.519989
	 R(5,6)           =         2.057326	       1.088690
	 R(5,7)           =         2.053437	       1.086632
	 R(5,8)           =         2.056258	       1.088125
	 R(5,12)          =         2.872364	       1.519989
	 R(9,10)          =         2.063045	       1.091716
	 R(9,11)          =         2.058648	       1.089390
	 R(9,15)          =         2.891055	       1.529880
	 R(12,13)         =         2.063044	       1.091716
	 R(12,14)         =         2.058648	       1.089389
	 R(12,24)         =         2.891055	       1.529880
	 R(15,16)         =         2.059969	       1.090089
	 R(15,17)         =         2.064936	       1.092717
	 R(15,18)         =         2.876659	       1.522262
	 R(18,19)         =         2.066418	       1.093501
	 R(18,20)         =         2.060805	       1.090531
	 R(18,21)         =         2.867528	       1.517430
	 R(21,22)         =         2.060805	       1.090531
	 R(21,23)         =         2.066418	       1.093501
	 R(21,24)         =         2.876660	       1.522263
	 R(24,25)         =         2.064935	       1.092717
	 R(24,26)         =         2.059969	       1.090089
	 B(1,9,10)        =         1.917341	     109.855528
	 B(1,9,11)        =         1.894203	     108.529837
	 B(1,9,15)        =         1.979585	     113.421880
	 B(2,1,3)         =         1.877518	     107.573886
	 B(2,1,4)         =         1.886996	     108.116929
	 B(2,1,9)         =         1.946341	     111.517120
	 B(3,1,4)         =         1.883311	     107.905746
	 B(3,1,9)         =         1.921590	     110.098988
	 B(4,1,9)         =         1.945569	     111.472917
	 B(5,12,13)       =         1.917340	     109.855501
	 B(5,12,14)       =         1.894204	     108.529885
	 B(5,12,24)       =         1.979585	     113.421871
	 B(6,5,7)         =         1.877518	     107.573881
	 B(6,5,8)         =         1.883311	     107.905748
	 B(6,5,12)        =         1.921590	     110.098999
	 B(7,5,8)         =         1.886996	     108.116926
	 B(7,5,12)        =         1.946340	     111.517090
	 B(8,5,12)        =         1.945570	     111.472941
	 B(9,15,16)       =         1.914685	     109.703366
	 B(9,15,17)       =         1.904733	     109.133140
	 B(9,15,18)       =         1.993915	     114.242923
	 B(10,9,11)       =         1.852836	     106.159701
	 B(10,9,15)       =         1.903730	     109.075715
	 B(11,9,15)       =         1.911872	     109.542199
	 B(12,24,21)      =         1.993914	     114.242846
	 B(12,24,25)      =         1.904733	     109.133187
	 B(12,24,26)      =         1.914685	     109.703371
	 B(13,12,14)      =         1.852836	     106.159682
	 B(13,12,24)      =         1.903730	     109.075701
	 B(14,12,24)      =         1.911872	     109.542221
	 B(15,18,19)      =         1.900838	     108.910013
	 B(15,18,20)      =         1.894356	     108.538612
	 B(15,18,21)      =         1.992964	     114.188429
	 B(16,15,17)      =         1.855855	     106.332662
	 B(16,15,18)      =         1.886813	     108.106397
	 B(17,15,18)      =         1.902795	     109.022131
	 B(18,21,22)      =         1.908766	     109.364231
	 B(18,21,23)      =         1.900866	     108.911585
	 B(18,21,24)      =         1.992962	     114.188308
	 B(19,18,20)      =         1.861583	     106.660860
	 B(19,18,21)      =         1.900865	     108.911515
	 B(20,18,21)      =         1.908765	     109.364189
	 B(21,24,25)      =         1.902795	     109.022117
	 B(21,24,26)      =         1.886813	     108.106429
	 B(22,21,23)      =         1.861584	     106.660919
	 B(22,21,24)      =         1.894356	     108.538613
	 B(23,21,24)      =         1.900838	     108.909975
	 B(25,24,26)      =         1.855855	     106.332675
	 D(1,9,15,16)     =         2.449597	     140.351552
	 D(1,9,15,17)     =         0.422746	      24.221545
	 D(1,9,15,18)     =        -1.712068	     -98.094269
	 D(2,1,9,10)      =        -1.142840	     -65.479929
	 D(2,1,9,11)      =         3.121594	     178.854153
	 D(2,1,9,15)      =         0.992593	      56.871370
	 D(3,1,9,10)      =         3.057607	     175.188005
	 D(3,1,9,11)      =         1.038856	      59.522086
	 D(3,1,9,15)      =        -1.090145	     -62.460697
	 D(4,1,9,10)      =         0.968111	      55.468662
	 D(4,1,9,11)      =        -1.050640	     -60.197257
	 D(4,1,9,15)      =         3.103544	     177.819960
	 D(5,12,24,21)    =         1.712074	      98.094623
	 D(5,12,24,25)    =        -0.422739	     -24.221154
	 D(5,12,24,26)    =        -2.449591	    -140.351208
	 D(6,5,12,13)     =        -3.057605	    -175.187835
	 D(6,5,12,14)     =        -1.038854	     -59.521927
	 D(6,5,12,24)     =         1.090149	      62.460912
	 D(7,5,12,13)     =         1.142844	      65.480116
	 D(7,5,12,14)     =        -3.121591	    -178.853975
	 D(7,5,12,24)     =        -0.992589	     -56.871136
	 D(8,5,12,13)     =        -0.968107	     -55.468466
	 D(8,5,12,14)     =         1.050644	      60.197442
	 D(8,5,12,24)     =        -3.103540	    -177.819719
	 D(9,15,18,19)    =        -1.097915	     -62.905872
	 D(9,15,18,20)    =        -3.118226	    -178.661215
	 D(9,15,18,21)    =         1.030830	      59.062218
	 D(10,9,15,16)    =        -1.690624	     -96.865624
	 D(10,9,15,17)    =         2.565710	     147.004369
	 D(10,9,15,18)    =         0.430897	      24.688555
	 D(11,9,15,16)    =         0.330467	      18.934339
	 D(11,9,15,17)    =        -1.696384	     -97.195669
	 D(11,9,15,18)    =         2.451987	     140.488517
	 D(12,24,21,18)   =        -1.030839	     -59.062699
	 D(12,24,21,22)   =         3.118219	     178.660761
	 D(12,24,21,23)   =         1.097906	      62.905369
	 D(13,12,24,21)   =        -0.430889	     -24.688148
	 D(13,12,24,25)   =        -2.565703	    -147.003926
	 D(13,12,24,26)   =         1.690631	      96.866021
	 D(14,12,24,21)   =        -2.451980	    -140.488092
	 D(14,12,24,25)   =         1.696393	      97.196131
	 D(14,12,24,26)   =        -0.330459	     -18.933923
	 D(15,18,21,22)   =        -1.015372	     -58.176504
	 D(15,18,21,23)   =         1.012860	      58.032592
	 D(15,18,21,24)   =         3.141593	     180.000000
	 D(16,15,18,19)   =         1.038887	      59.523869
	 D(16,15,18,20)   =        -0.981424	     -56.231474
	 D(16,15,18,21)   =        -3.115553	    -178.508041
	 D(17,15,18,19)   =         3.049399	     174.717692
	 D(17,15,18,20)   =         1.029087	      58.962349
	 D(17,15,18,21)   =        -1.105042	     -63.314218
	 D(18,21,24,25)   =         1.105033	      63.313734
	 D(18,21,24,26)   =         3.115545	     178.507582
	 D(19,18,21,22)   =         1.113359	      63.790761
	 D(19,18,21,23)   =         3.141593	     180.000000
	 D(19,18,21,24)   =        -1.012866	     -58.032959
	 D(20,18,21,22)   =         3.141593	     180.000000
	 D(20,18,21,23)   =        -1.113366	     -63.791180
	 D(20,18,21,24)   =         1.015363	      58.176004
	 D(22,21,24,25)   =        -1.029095	     -58.962806
	 D(22,21,24,26)   =         0.981417	      56.231042
	 D(23,21,24,25)   =        -3.049408	    -174.718199
	 D(23,21,24,26)   =        -1.038896	     -59.524350
	 R(1,21)          =         6.437306	       3.406476
	 R(5,18)          =         6.437314	       3.406480

	Current energy   :      -314.9765856369

	Generating empirical Hessian (Schlegel '84) for each fragment.
	Taking RFO optimization step.
	Going to follow RFO solution 1.
	Using RFO vector 1.
	Norm of target step-size    0.16799
	Projected energy change by RFO approximation:         0.0005654442

	Back-transformation to cartesian coordinates...
	Could not converge backtransformation.
	Using first guess instead.

	--- Internal Coordinate Step in ANG or DEG, aJ/ANG or AJ/DEG ---
	 ---------------------------------------------------------------------------
	   Coordinate                Previous        Force       Change         New 
	   ----------                --------       ------       ------       ------
	    1 R(1,2)          =      1.086633     0.012910     0.002922     1.089554
	    2 R(1,3)          =      1.088690     0.011895     0.002802     1.091493
	    3 R(1,4)          =      1.088125     0.011709     0.002340     1.090466
	    4 R(1,9)          =      1.519989     0.029106     0.006962     1.526952
	    5 R(5,6)          =      1.088690     0.011893     0.002803     1.091493
	    6 R(5,7)          =      1.086632     0.012909     0.002922     1.089554
	    7 R(5,8)          =      1.088125     0.011708     0.002340     1.090465
	    8 R(5,12)         =      1.519989     0.029107     0.006963     1.526952
	    9 R(9,10)         =      1.091716     0.012521     0.002803     1.094519
	   10 R(9,11)         =      1.089390     0.011729     0.002549     1.091939
	   11 R(9,15)         =      1.529880     0.028747     0.007299     1.537180
	   12 R(12,13)        =      1.091716     0.012517     0.002803     1.094518
	   13 R(12,14)        =      1.089389     0.011726     0.002549     1.091939
	   14 R(12,24)        =      1.529880     0.028745     0.007299     1.537179
	   15 R(15,16)        =      1.090089     0.010632     0.001994     1.092083
	   16 R(15,17)        =      1.092717     0.011771     0.002255     1.094972
	   17 R(15,18)        =      1.522262     0.028896     0.007453     1.529716
	   18 R(18,19)        =      1.093501     0.011670     0.002456     1.095957
	   19 R(18,20)        =      1.090531     0.011998     0.002533     1.093064
	   20 R(18,21)        =      1.517430     0.030616     0.007223     1.524653
	   21 R(21,22)        =      1.090531     0.011996     0.002532     1.093063
	   22 R(21,23)        =      1.093501     0.011667     0.002456     1.095957
	   23 R(21,24)        =      1.522263     0.028899     0.007454     1.529717
	   24 R(24,25)        =      1.092717     0.011766     0.002253     1.094970
	   25 R(24,26)        =      1.090089     0.010627     0.001993     1.092082
	   26 B(1,9,10)       =    109.855528     0.000000     0.058288   109.913816
	   27 B(1,9,11)       =    108.529837     0.000018    -0.134880   108.394957
	   28 B(1,9,15)       =    113.421880    -0.000041     0.123799   113.545678
	   29 B(2,1,3)        =    107.573886    -0.000025    -0.089886   107.483999
	   30 B(2,1,4)        =    108.116929    -0.000022    -0.104769   108.012161
	   31 B(2,1,9)        =    111.517120     0.000027     0.138668   111.655788
	   32 B(3,1,4)        =    107.905746    -0.000022    -0.110512   107.795234
	   33 B(3,1,9)        =    110.098988     0.000028     0.147371   110.246360
	   34 B(4,1,9)        =    111.472917     0.000010     0.003501   111.476418
	   35 B(5,12,13)      =    109.855501     0.000000     0.058178   109.913679
	   36 B(5,12,14)      =    108.529885     0.000018    -0.134747   108.395138
	   37 B(5,12,24)      =    113.421871    -0.000041     0.123800   113.545671
	   38 B(6,5,7)        =    107.573881    -0.000025    -0.089911   107.483970
	   39 B(6,5,8)        =    107.905748    -0.000022    -0.110462   107.795286
	   40 B(6,5,12)       =    110.098999     0.000028     0.147362   110.246360
	   41 B(7,5,8)        =    108.116926    -0.000022    -0.104820   108.012107
	   42 B(7,5,12)       =    111.517090     0.000027     0.138694   111.655784
	   43 B(8,5,12)       =    111.472941     0.000010     0.003509   111.476450
	   44 B(9,15,16)      =    109.703366     0.000027    -0.080813   109.622553
	   45 B(9,15,17)      =    109.133140     0.000018     0.065262   109.198402
	   46 B(9,15,18)      =    114.242923    -0.000070     0.185356   114.428279
	   47 B(10,9,11)      =    106.159701    -0.000019    -0.214075   105.945626
	   48 B(10,9,15)      =    109.075715     0.000023     0.124832   109.200548
	   49 B(11,9,15)      =    109.542199     0.000021     0.016802   109.559001
	   50 B(12,24,21)     =    114.242846    -0.000070     0.185229   114.428075
	   51 B(12,24,25)     =    109.133187     0.000019     0.065391   109.198578
	   52 B(12,24,26)     =    109.703371     0.000027    -0.080843   109.622528
	   53 B(13,12,14)     =    106.159682    -0.000019    -0.214110   105.945572
	   54 B(13,12,24)     =    109.075701     0.000023     0.124808   109.200508
	   55 B(14,12,24)     =    109.542221     0.000021     0.016835   109.559056
	   56 B(15,18,19)     =    108.910013     0.000024     0.001641   108.911653
	   57 B(15,18,20)     =    108.538612     0.000023    -0.044440   108.494172
	   58 B(15,18,21)     =    114.188429    -0.000077     0.146127   114.334557
	   59 B(16,15,17)     =    106.332662    -0.000025    -0.240724   106.091938
	   60 B(16,15,18)     =    108.106397     0.000033    -0.106046   108.000351
	   61 B(17,15,18)     =    109.022131     0.000019     0.144021   109.166152
	   62 B(18,21,22)     =    109.364231     0.000031     0.000903   109.365134
	   63 B(18,21,23)     =    108.911585     0.000024     0.043047   108.954632
	   64 B(18,21,24)     =    114.188308    -0.000077     0.146228   114.334536
	   65 B(19,18,20)     =    106.660860    -0.000022    -0.169999   106.490861
	   66 B(19,18,21)     =    108.911515     0.000024     0.042899   108.954414
	   67 B(20,18,21)     =    109.364189     0.000031     0.000901   109.365090
	   68 B(21,24,25)     =    109.022117     0.000019     0.143987   109.166104
	   69 B(21,24,26)     =    108.106429     0.000033    -0.105997   108.000431
	   70 B(22,21,23)     =    106.660919    -0.000022    -0.169991   106.490928
	   71 B(22,21,24)     =    108.538613     0.000023    -0.044563   108.494050
	   72 B(23,21,24)     =    108.909975     0.000024     0.001497   108.911471
	   73 B(25,24,26)     =    106.332675    -0.000025    -0.240700   106.091974
	   74 D(1,9,15,16)    =    140.351552     0.000004     1.649398   142.000950
	   75 D(1,9,15,17)    =     24.221545     0.000005     1.946805    26.168349
	   76 D(1,9,15,18)    =    -98.094269     0.000007     1.580072   -96.514197
	   77 D(2,1,9,10)     =    -65.479929    -0.000000     0.296974   -65.182954
	   78 D(2,1,9,11)     =    178.854153     0.000003     0.596470   179.450623
	   79 D(2,1,9,15)     =     56.871370     0.000000     0.589906    57.461276
	   80 D(3,1,9,10)     =    175.188005    -0.000001     0.222948   175.410953
	   81 D(3,1,9,11)     =     59.522086     0.000002     0.522444    60.044530
	   82 D(3,1,9,15)     =    -62.460697    -0.000001     0.515880   -61.944817
	   83 D(4,1,9,10)     =     55.468662    -0.000001     0.261695    55.730357
	   84 D(4,1,9,11)     =    -60.197257     0.000002     0.561191   -59.636066
	   85 D(4,1,9,15)     =    177.819960    -0.000000     0.554627   178.374587
	   86 D(5,12,24,21)   =     98.094623    -0.000007    -1.580743    96.513880
	   87 D(5,12,24,25)   =    -24.221154    -0.000005    -1.947440   -26.168594
	   88 D(5,12,24,26)   =   -140.351208    -0.000004    -1.650116  -142.001324
	   89 D(6,5,12,13)    =   -175.187835     0.000001    -0.222511  -175.410346
	   90 D(6,5,12,14)    =    -59.521927    -0.000002    -0.522032   -60.043959
	   91 D(6,5,12,24)    =     62.460912     0.000001    -0.515329    61.945583
	   92 D(7,5,12,13)    =     65.480116     0.000000    -0.296517    65.183600
	   93 D(7,5,12,14)    =   -178.853975    -0.000003    -0.596038  -179.450013
	   94 D(7,5,12,24)    =    -56.871136    -0.000000    -0.589335   -57.460471
	   95 D(8,5,12,13)    =    -55.468466     0.000001    -0.261196   -55.729662
	   96 D(8,5,12,14)    =     60.197442    -0.000002    -0.560717    59.636725
	   97 D(8,5,12,24)    =   -177.819719     0.000000    -0.554014  -178.373733
	   98 D(9,15,18,19)   =    -62.905872    -0.000002     1.029496   -61.876376
	   99 D(9,15,18,20)   =   -178.661215    -0.000002     1.254127  -177.407088
	  100 D(9,15,18,21)   =     59.062218    -0.000003     1.186518    60.248735
	  101 D(10,9,15,16)   =    -96.865624     0.000001     1.903371   -94.962253
	  102 D(10,9,15,17)   =    147.004369     0.000002     2.200778   149.205146
	  103 D(10,9,15,18)   =     24.688555     0.000004     1.834045    26.522600
	  104 D(11,9,15,16)   =     18.934339     0.000002     1.726294    20.660633
	  105 D(11,9,15,17)   =    -97.195669     0.000003     2.023701   -95.171968
	  106 D(11,9,15,18)   =    140.488517     0.000005     1.656969   142.145486
	  107 D(12,24,21,18)  =    -59.062699     0.000003    -1.188493   -60.251192
	  108 D(12,24,21,22)  =    178.660761     0.000002    -1.256082   177.404680
	  109 D(12,24,21,23)  =     62.905369     0.000002    -1.031317    61.874051
	  110 D(13,12,24,21)  =    -24.688148    -0.000004    -1.834556   -26.522705
	  111 D(13,12,24,25)  =   -147.003926    -0.000002    -2.201253  -149.205179
	  112 D(13,12,24,26)  =     96.866021    -0.000001    -1.903930    94.962091
	  113 D(14,12,24,21)  =   -140.488092    -0.000005    -1.657444  -142.145536
	  114 D(14,12,24,25)  =     97.196131    -0.000003    -2.024140    95.171990
	  115 D(14,12,24,26)  =    -18.933923    -0.000002    -1.726817   -20.660740
	  116 D(15,18,21,22)  =    -58.176504    -0.000000     0.044093   -58.132411
	  117 D(15,18,21,23)  =     58.032592     0.000001    -0.134656    57.897936
	  118 D(15,18,21,24)  =    180.000000    -0.000000     0.000000   180.000000
	  119 D(16,15,18,19)  =     59.523869     0.000001     0.971470    60.495338
	  120 D(16,15,18,20)  =    -56.231474     0.000001     1.196100   -55.035374
	  121 D(16,15,18,21)  =   -178.508041     0.000000     1.128491  -177.379550
	  122 D(17,15,18,19)  =    174.717692     0.000001     0.705903   175.423595
	  123 D(17,15,18,20)  =     58.962349     0.000001     0.930534    59.892883
	  124 D(17,15,18,21)  =    -63.314218    -0.000000     0.862925   -62.451293
	  125 D(18,21,24,25)  =     63.313734     0.000000    -0.864847    62.448886
	  126 D(18,21,24,26)  =    178.507582    -0.000000    -1.130378   177.377204
	  127 D(19,18,21,22)  =     63.790761    -0.000001     0.178569    63.969330
	  128 D(19,18,21,23)  =    180.000000     0.000000     0.000000   180.000000
	  129 D(19,18,21,24)  =    -58.032959    -0.000001     0.134290   -57.898669
	  130 D(20,18,21,22)  =    180.000000    -0.000000     0.000000   180.000000
	  131 D(20,18,21,23)  =    -63.791180     0.000001    -0.179023   -63.970203
	  132 D(20,18,21,24)  =     58.176004     0.000000    -0.044553    58.131451
	  133 D(22,21,24,25)  =    -58.962806    -0.000001    -0.932437   -59.895243
	  134 D(22,21,24,26)  =     56.231042    -0.000001    -1.197967    55.033075
	  135 D(23,21,24,25)  =   -174.718199    -0.000001    -0.707672  -175.425871
	  136 D(23,21,24,26)  =    -59.524350    -0.000001    -0.973203   -60.497553
	  137 R(1,21)         =      3.406476     0.007696     0.007230     3.413705
	  138 R(5,18)         =      3.406480     0.007697     0.007232     3.413712
	 ---------------------------------------------------------------------------

  ==> Convergence Check <==

  Measures of convergence in internal coordinates in au.
  Criteria marked as inactive (o), active & met (*), and active & unmet ( ).
  --------------------------------------------------------------------------------------------- ~
   Step     Total Energy     Delta E     MAX Force     RMS Force      MAX Disp      RMS Disp    ~
  --------------------------------------------------------------------------------------------- ~
    Convergence Criteria             o    2.00e-06 *    1.00e-06 *    6.00e-06 *    4.00e-06 *  ~
  --------------------------------------------------------------------------------------------- ~
      1    -314.97658564   -3.15e+02 o    3.72e-03      9.94e-04      3.84e-02      1.43e-02    ~
  ---------------------------------------------------------------------------------------------

	Writing optimization data to binary file.
	Structure for next step:
	Cartesian Geometry (in Angstrom)
	    C    -3.2411628415  -0.8632059639  -0.1724126255
	    H    -2.4532709119  -1.5933005435  -0.3549419501
	    H    -3.7083420392  -0.6378848400  -1.1327930921
	    H    -3.9939498661  -1.3311743582   0.4627505906
	    C     3.2411719689   0.8632034891   0.1723404721
	    H     3.7083780714   0.6379214326   1.1327168049
	    H     2.4532852858   1.5933052845   0.3548627981
	    H     3.9939397828   1.3311468681  -0.4628629410
	    C    -2.6911559652   0.4131467226   0.4600414294
	    H    -2.2972385409   0.1950595061   1.4576577394
	    H    -3.5198849859   1.1081475828   0.6100837694
	    C     2.6911467663  -0.4131753853  -0.4600463760
	    H     2.2972118951  -0.1951283511  -1.4576641944
	    H     3.5198673471  -1.1081885964  -0.6100756337
	    C    -1.5960608626   1.0915062556  -0.3787175302
	    H    -1.7092803848   2.1761920608  -0.3214110816
	    H    -1.7339024792   0.8272097995  -1.4323353601
	    C    -0.1679821045   0.7422960532   0.0439803078
	    H    -0.0089049717   1.0829313809   1.0734386989
	    H     0.5270008735   1.3088194141  -0.5811902543
	    C     0.1679796115  -0.7422812912  -0.0439269896
	    H    -0.5269964954  -1.3088041733   0.5812507545
	    H     0.0088982143  -1.0829215783  -1.0733823422
	    C     1.5960624934  -1.0914899396   0.3787618226
	    H     1.7339232815  -0.8271520247   1.4323648108
	    H     1.7092709172  -2.1761776815   0.3214973751
			--------------------------
			 OPTKING Finished Execution 
			--------------------------

    Structure for next step:
    Molecular point group: c1
    Full point group: C1

    Geometry (in Angstrom), charge = 0, multiplicity = 1:

    C           -3.241162787468    -0.863205968074    -0.172414486006
    H           -2.453270857827    -1.593300547727    -0.354943810564
    H           -3.708341985104    -0.637884844158    -1.132794952599
    H           -3.993949811990    -1.331174362357     0.462748730172
    C            3.241172022928     0.863203484909     0.172338611594
    H            3.708378125494     0.637921428440     1.132714944473
    H            2.453285339904     1.593305280288     0.354860937578
    H            3.993939836922     1.331146863904    -0.462864801439
    C           -2.691155911090     0.413146718385     0.460039568892
    H           -2.297238486793     0.195059501944     1.457655878928
    H           -3.519884931835     1.108147578641     0.610081908904
    C            2.691146820378    -0.413175389509    -0.460048236457
    H            2.297211949174    -0.195128355344    -1.457666054828
    H            3.519867401214    -1.108188600581    -0.610077494129
    C           -1.596060808546     1.091506251420    -0.378719390708
    H           -1.709280330702     2.176192056628    -0.321412942065
    H           -1.733902425103     0.827209795263    -1.432337220590
    C           -0.167982050410     0.742296049052     0.043978447295
    H           -0.008904917630     1.082931376659     1.073436838466
    H            0.527000927623     1.308819409933    -0.581192114779
    C            0.167979665601    -0.742281295350    -0.043928850027
    H           -0.526996441329    -1.308804177463     0.581248893979
    H            0.008898268404    -1.082921582493    -1.073384202716
    C            1.596062547444    -1.091489943800     0.378759962133
    H            1.733923335535    -0.827152028918     1.432362950288
    H            1.709270971309    -2.176177685734     0.321495514577

gradient() will perform analytic gradient computation.

*** tstart() called on wr32
*** at Tue Sep 20 18:34:16 2016


         ---------------------------------------------------------
                                   SCF
            by Justin Turney, Rob Parrish, and Andy Simmonett
                              RHF Reference
                       12 Threads,  30000 MiB Core
         ---------------------------------------------------------

  ==> Geometry <==

    Molecular point group: c1
    Full point group: C1

    Geometry (in Angstrom), charge = 0, multiplicity = 1:

       Center              X                  Y                   Z               Mass       
    ------------   -----------------  -----------------  -----------------  -----------------
           C         -3.241162787468    -0.863205968074    -0.172414486006    12.000000000000
           H         -2.453270857827    -1.593300547727    -0.354943810564     1.007825032070
           H         -3.708341985104    -0.637884844158    -1.132794952599     1.007825032070
           H         -3.993949811990    -1.331174362357     0.462748730172     1.007825032070
           C          3.241172022928     0.863203484909     0.172338611594    12.000000000000
           H          3.708378125494     0.637921428440     1.132714944473     1.007825032070
           H          2.453285339904     1.593305280288     0.354860937578     1.007825032070
           H          3.993939836922     1.331146863904    -0.462864801439     1.007825032070
           C         -2.691155911090     0.413146718385     0.460039568892    12.000000000000
           H         -2.297238486793     0.195059501944     1.457655878928     1.007825032070
           H         -3.519884931835     1.108147578641     0.610081908904     1.007825032070
           C          2.691146820378    -0.413175389509    -0.460048236457    12.000000000000
           H          2.297211949174    -0.195128355344    -1.457666054828     1.007825032070
           H          3.519867401214    -1.108188600581    -0.610077494129     1.007825032070
           C         -1.596060808546     1.091506251420    -0.378719390708    12.000000000000
           H         -1.709280330702     2.176192056628    -0.321412942065     1.007825032070
           H         -1.733902425103     0.827209795263    -1.432337220590     1.007825032070
           C         -0.167982050410     0.742296049052     0.043978447295    12.000000000000
           H         -0.008904917630     1.082931376659     1.073436838466     1.007825032070
           H          0.527000927623     1.308819409933    -0.581192114779     1.007825032070
           C          0.167979665601    -0.742281295350    -0.043928850027    12.000000000000
           H         -0.526996441329    -1.308804177463     0.581248893979     1.007825032070
           H          0.008898268404    -1.082921582493    -1.073384202716     1.007825032070
           C          1.596062547444    -1.091489943800     0.378759962133    12.000000000000
           H          1.733923335535    -0.827152028918     1.432362950288     1.007825032070
           H          1.709270971309    -2.176177685734     0.321495514577     1.007825032070

  Running in c1 symmetry.

  Rotational constants: A =      0.14344  B =      0.02664  C =      0.02407 [cm^-1]
  Rotational constants: A =   4300.09867  B =    798.63228  C =    721.47072 [MHz]
  Nuclear repulsion =  396.968765320209741

  Charge       = 0
  Multiplicity = 1
  Electrons    = 66
  Nalpha       = 33
  Nbeta        = 33

  ==> Algorithm <==

  SCF Algorithm Type is DF.
  DIIS enabled.
  MOM disabled.
  Fractional occupation disabled.
  Guess Type is READ.
  Energy threshold   = 1.00e-10
  Density threshold  = 1.00e-10
  Integral threshold = 0.00e+00

  ==> Primary Basis <==

  Basis Set: AUG-CC-PVTZ
    Number of shells: 274
    Number of basis function: 782
    Number of Cartesian functions: 890
    Spherical Harmonics?: true
    Max angular momentum: 3

  ==> Pre-Iterations <==

   -------------------------------------------------------
    Irrep   Nso     Nmo     Nalpha   Nbeta   Ndocc  Nsocc
   -------------------------------------------------------
     A        782     782       0       0       0       0
   -------------------------------------------------------
    Total     782     782      33      33      33       0
   -------------------------------------------------------

  ==> Integral Setup <==

  ==> DFJK: Density-Fitted J/K Matrices <==

    J tasked:                  Yes
    K tasked:                  Yes
    wK tasked:                  No
    OpenMP threads:             12
    Integrals threads:          12
    Memory (MB):             21457
    Algorithm:                Core
    Integral Cache:           NONE
    Schwarz Cutoff:          1E-12
    Fitting Condition:       1E-12

   => Auxiliary Basis Set <=

  Basis Set: 
    Number of shells: 492
    Number of basis function: 1660
    Number of Cartesian functions: 2038
    Spherical Harmonics?: true
    Max angular momentum: 4

  Minimum eigenvalue in the overlap matrix is 1.6921225059E-06.
  Using Symmetric Orthogonalization.
  SCF Guess: Reading in previously saved MOs, projecting if necessary.

  Using orbitals from previous SCF, no projection.
  Recomputing DOCC and SOCC from number of alpha and beta electrons from previous calculation.
              A 
    DOCC [    33 ]

  ==> Iterations <==

                           Total Energy        Delta E     RMS |[F,P]|

   @DF-RHF iter   0:  -313.47300752029162   -3.13473e+02   1.03837e-04 
   @DF-RHF iter   1:  -313.53309197682006   -6.00845e-02   2.62009e-05 
   @DF-RHF iter   2:  -313.53341395367408   -3.21977e-04   1.20604e-05 DIIS
   @DF-RHF iter   3:  -313.53347003096837   -5.60773e-05   3.77033e-06 DIIS
   @DF-RHF iter   4:  -313.53348116898417   -1.11380e-05   5.20976e-07 DIIS
   @DF-RHF iter   5:  -313.53348135764793   -1.88664e-07   1.72633e-07 DIIS
   @DF-RHF iter   6:  -313.53348137320245   -1.55545e-08   3.71164e-08 DIIS
   @DF-RHF iter   7:  -313.53348137409125   -8.88804e-10   8.87805e-09 DIIS
   @DF-RHF iter   8:  -313.53348137413752   -4.62705e-11   2.41427e-09 DIIS
   @DF-RHF iter   9:  -313.53348137414014   -2.61480e-12   6.65492e-10 DIIS
   @DF-RHF iter  10:  -313.53348137414037   -2.27374e-13   1.48144e-10 DIIS
   @DF-RHF iter  11:  -313.53348137414014    2.27374e-13   2.67597e-11 DIIS

  ==> Post-Iterations <==

    Orbital Energies (a.u.)
    -----------------------

    Doubly Occupied:                                                      

       1A    -11.213099     2A    -11.213099     3A    -11.211235  
       4A    -11.211025     5A    -11.210633     6A    -11.210217  
       7A    -11.206215     8A    -11.206215     9A     -1.093359  
      10A     -1.057309    11A     -1.004055    12A     -0.952867  
      13A     -0.884052    14A     -0.827901    15A     -0.783989  
      16A     -0.763934    17A     -0.648518    18A     -0.613223  
      19A     -0.607251    20A     -0.601711    21A     -0.584042  
      22A     -0.560428    23A     -0.538064    24A     -0.534116  
      25A     -0.519170    26A     -0.499929    27A     -0.486174  
      28A     -0.471154    29A     -0.466637    30A     -0.462643  
      31A     -0.452022    32A     -0.433523    33A     -0.429509  

    Virtual:                                                              

      34A      0.029596    35A      0.032821    36A      0.034026  
      37A      0.036349    38A      0.045777    39A      0.047188  
      40A      0.049971    41A      0.054069    42A      0.056333  
      43A      0.064253    44A      0.067391    45A      0.069407  
      46A      0.072488    47A      0.084076    48A      0.089324  
      49A      0.090486    50A      0.092587    51A      0.098505  
      52A      0.109964    53A      0.113874    54A      0.122057  
      55A      0.123487    56A      0.128409    57A      0.129910  
      58A      0.131155    59A      0.137487    60A      0.143156  
      61A      0.146274    62A      0.149665    63A      0.151983  
      64A      0.158961    65A      0.159909    66A      0.162138  
      67A      0.163864    68A      0.166632    69A      0.170112  
      70A      0.173079    71A      0.177889    72A      0.180467  
      73A      0.186035    74A      0.196951    75A      0.197089  
      76A      0.207812    77A      0.214708    78A      0.220482  
      79A      0.224615    80A      0.226667    81A      0.241993  
      82A      0.245394    83A      0.251571    84A      0.253725  
      85A      0.265378    86A      0.269009    87A      0.282651  
      88A      0.287582    89A      0.292966    90A      0.294955  
      91A      0.301663    92A      0.304325    93A      0.307631  
      94A      0.316949    95A      0.317460    96A      0.322724  
      97A      0.324319    98A      0.327878    99A      0.333114  
     100A      0.333489   101A      0.336630   102A      0.344842  
     103A      0.348671   104A      0.352924   105A      0.357426  
     106A      0.357504   107A      0.362379   108A      0.365478  
     109A      0.367799   110A      0.373916   111A      0.375995  
     112A      0.381368   113A      0.383780   114A      0.389765  
     115A      0.390638   116A      0.393851   117A      0.398528  
     118A      0.401804   119A      0.405607   120A      0.408845  
     121A      0.412848   122A      0.422951   123A      0.429037  
     124A      0.438699   125A      0.440888   126A      0.443948  
     127A      0.444943   128A      0.447473   129A      0.451370  
     130A      0.451613   131A      0.453742   132A      0.454921  
     133A      0.459191   134A      0.461650   135A      0.468818  
     136A      0.474412   137A      0.475952   138A      0.483466  
     139A      0.487171   140A      0.488841   141A      0.491915  
     142A      0.494573   143A      0.494576   144A      0.503289  
     145A      0.506165   146A      0.511735   147A      0.514501  
     148A      0.525533   149A      0.526520   150A      0.530405  
     151A      0.533798   152A      0.534542   153A      0.537009  
     154A      0.546875   155A      0.554888   156A      0.555831  
     157A      0.566545   158A      0.573425   159A      0.573440  
     160A      0.576129   161A      0.580412   162A      0.584921  
     163A      0.591340   164A      0.599760   165A      0.602960  
     166A      0.605720   167A      0.607858   168A      0.609281  
     169A      0.610831   170A      0.615453   171A      0.618980  
     172A      0.625420   173A      0.632074   174A      0.635583  
     175A      0.639859   176A      0.643393   177A      0.649005  
     178A      0.663239   179A      0.664305   180A      0.665073  
     181A      0.673851   182A      0.674037   183A      0.677138  
     184A      0.683519   185A      0.690044   186A      0.692177  
     187A      0.697345   188A      0.700073   189A      0.707852  
     190A      0.718320   191A      0.718683   192A      0.725529  
     193A      0.737869   194A      0.745188   195A      0.748986  
     196A      0.750876   197A      0.770124   198A      0.779748  
     199A      0.782442   200A      0.790759   201A      0.803414  
     202A      0.807723   203A      0.822512   204A      0.828084  
     205A      0.831954   206A      0.840405   207A      0.841805  
     208A      0.847957   209A      0.861004   210A      0.866468  
     211A      0.868246   212A      0.875759   213A      0.879930  
     214A      0.883343   215A      0.886407   216A      0.894647  
     217A      0.898752   218A      0.900515   219A      0.902412  
     220A      0.911427   221A      0.912353   222A      0.919751  
     223A      0.920850   224A      0.932342   225A      0.934413  
     226A      0.935646   227A      0.951068   228A      0.955013  
     229A      0.962933   230A      0.963713   231A      0.970244  
     232A      0.971049   233A      0.975573   234A      0.985635  
     235A      0.988403   236A      0.989254   237A      1.001027  
     238A      1.008919   239A      1.009511   240A      1.012001  
     241A      1.013807   242A      1.022572   243A      1.025564  
     244A      1.035215   245A      1.043750   246A      1.047443  
     247A      1.053051   248A      1.056779   249A      1.062515  
     250A      1.065593   251A      1.067822   252A      1.073542  
     253A      1.082522   254A      1.085841   255A      1.085927  
     256A      1.088360   257A      1.105400   258A      1.109145  
     259A      1.113625   260A      1.118632   261A      1.119133  
     262A      1.127050   263A      1.132140   264A      1.140140  
     265A      1.141561   266A      1.155217   267A      1.159956  
     268A      1.168884   269A      1.172513   270A      1.175903  
[...]
	 Skipping Hessian update for step 10.
	Denominators (dg)(dq) or (dq)(dq) are very small.
	 Skipping Hessian update for step 8.
	Denominators (dg)(dq) or (dq)(dq) are very small.
	 Skipping Hessian update for step 7.
	Denominators (dg)(dq) or (dq)(dq) are very small.
	 Skipping Hessian update for step 6.
	Denominators (dg)(dq) or (dq)(dq) are very small.
	 Skipping Hessian update for step 5.
	Steps to be used in Hessian update: 9 4
	Taking RFO optimization step.
	Going to follow RFO solution 1.
	Using RFO vector 1.
	Norm of target step-size    0.00003
	Projected energy change by RFO approximation:        -0.0000000000

	Back-transformation to cartesian coordinates...
	Successfully converged to displaced geometry.
	First geometry is closer to target in internal coordinates, so am using that one.
	First geometry has RMS(Delta(q)) = 4.71e-07

	--- Internal Coordinate Step in ANG or DEG, aJ/ANG or AJ/DEG ---
	 ---------------------------------------------------------------------------
	   Coordinate                Previous        Force       Change         New 
	   ----------                --------       ------       ------       ------
	    1 R(1,2)          =      1.088904     0.000005     0.000001     1.088905
	    2 R(1,3)          =      1.090812     0.000003     0.000001     1.090812
	    3 R(1,4)          =      1.090245     0.000003     0.000001     1.090246
	    4 R(1,9)          =      1.526454     0.000001     0.000000     1.526454
	    5 R(5,6)          =      1.090812     0.000002     0.000000     1.090812
	    6 R(5,7)          =      1.088905     0.000003     0.000001     1.088905
	    7 R(5,8)          =      1.090245     0.000002     0.000000     1.090246
	    8 R(5,12)         =      1.526454     0.000000     0.000000     1.526454
	    9 R(9,10)         =      1.093920     0.000003     0.000001     1.093921
	   10 R(9,11)         =      1.091560     0.000002     0.000000     1.091561
	   11 R(9,15)         =      1.536065     0.000002     0.000000     1.536066
	   12 R(12,13)        =      1.093921     0.000002     0.000000     1.093921
	   13 R(12,14)        =      1.091561     0.000001     0.000000     1.091561
	   14 R(12,24)        =      1.536066     0.000002     0.000000     1.536066
	   15 R(15,16)        =      1.092086     0.000003     0.000001     1.092087
	   16 R(15,17)        =      1.094729     0.000003     0.000001     1.094730
	   17 R(15,18)        =      1.529221     0.000002     0.000000     1.529221
	   18 R(18,19)        =      1.095487     0.000003     0.000001     1.095488
	   19 R(18,20)        =      1.092677     0.000004     0.000001     1.092677
	   20 R(18,21)        =      1.523757     0.000003     0.000001     1.523758
	   21 R(21,22)        =      1.092677     0.000003     0.000001     1.092677
	   22 R(21,23)        =      1.095487     0.000003     0.000001     1.095488
	   23 R(21,24)        =      1.529221     0.000000     0.000000     1.529221
	   24 R(24,25)        =      1.094730     0.000002     0.000000     1.094731
	   25 R(24,26)        =      1.092087     0.000002     0.000000     1.092087
	   26 B(1,9,10)       =    109.927372    -0.000000    -0.000012   109.927360
	   27 B(1,9,11)       =    108.318929    -0.000000    -0.000046   108.318883
	   28 B(1,9,15)       =    113.577955     0.000000    -0.000005   113.577949
	   29 B(2,1,3)        =    107.535748     0.000000     0.000030   107.535778
	   30 B(2,1,4)        =    108.032986     0.000000     0.000030   108.033016
	   31 B(2,1,9)        =    111.703716    -0.000000    -0.000066   111.703651
	   32 B(3,1,4)        =    107.824383     0.000000     0.000022   107.824405
	   33 B(3,1,9)        =    110.187494     0.000000     0.000007   110.187501
	   34 B(4,1,9)        =    111.391294    -0.000000    -0.000018   111.391276
	   35 B(5,12,13)      =    109.927399    -0.000000    -0.000010   109.927389
	   36 B(5,12,14)      =    108.318908    -0.000000    -0.000049   108.318860
	   37 B(5,12,24)      =    113.577937     0.000000     0.000003   113.577940
	   38 B(6,5,7)        =    107.535755     0.000000     0.000034   107.535789
	   39 B(6,5,8)        =    107.824380     0.000000     0.000023   107.824403
	   40 B(6,5,12)       =    110.187482     0.000000     0.000007   110.187489
	   41 B(7,5,8)        =    108.032997     0.000000     0.000021   108.033019
	   42 B(7,5,12)       =    111.703740    -0.000000    -0.000077   111.703663
	   43 B(8,5,12)       =    111.391268     0.000000    -0.000004   111.391264
	   44 B(9,15,16)      =    109.571569     0.000000     0.000005   109.571574
	   45 B(9,15,17)      =    109.166890     0.000000    -0.000010   109.166880
	   46 B(9,15,18)      =    114.428402    -0.000000    -0.000044   114.428358
	   47 B(10,9,11)      =    106.069851     0.000000     0.000051   106.069903
	   48 B(10,9,15)      =    109.192720    -0.000000     0.000015   109.192735
	   49 B(11,9,15)      =    109.478709     0.000000     0.000000   109.478710
	   50 B(12,24,21)     =    114.428497    -0.000000    -0.000034   114.428464
	   51 B(12,24,25)     =    109.166828     0.000000    -0.000009   109.166820
	   52 B(12,24,26)     =    109.571563     0.000000    -0.000002   109.571561
	   53 B(13,12,14)     =    106.069860     0.000000     0.000058   106.069918
	   54 B(13,12,24)     =    109.192760    -0.000000     0.000005   109.192764
	   55 B(14,12,24)     =    109.478672     0.000000    -0.000003   109.478669
	   56 B(15,18,19)     =    108.878638    -0.000000     0.000010   108.878647
	   57 B(15,18,20)     =    108.450082     0.000000     0.000027   108.450110
	   58 B(15,18,21)     =    114.347974    -0.000000    -0.000052   114.347922
	   59 B(16,15,17)     =    106.208327    -0.000000     0.000021   106.208348
	   60 B(16,15,18)     =    107.906172     0.000000     0.000026   107.906199
	   61 B(17,15,18)     =    109.235973     0.000000     0.000006   109.235979
	   62 B(18,21,22)     =    109.358379    -0.000000    -0.000004   109.358375
	   63 B(18,21,23)     =    108.945002     0.000000    -0.000005   108.944998
	   64 B(18,21,24)     =    114.347795     0.000000     0.000046   114.347840
	   65 B(19,18,20)     =    106.576574    -0.000000     0.000020   106.576594
	   66 B(19,18,21)     =    108.944985     0.000000     0.000063   108.945048
	   67 B(20,18,21)     =    109.358426    -0.000000    -0.000063   109.358362
	   68 B(21,24,25)     =    109.235938     0.000000     0.000008   109.235946
	   69 B(21,24,26)     =    107.906206     0.000000     0.000006   107.906212
	   70 B(22,21,23)     =    106.576568     0.000000     0.000019   106.576587
	   71 B(22,21,24)     =    108.450139     0.000000     0.000033   108.450172
	   72 B(23,21,24)     =    108.878808    -0.000000    -0.000091   108.878716
	   73 B(25,24,26)     =    106.208291    -0.000000     0.000036   106.208327
	   74 D(1,9,15,16)    =    141.370961    -0.000000    -0.000159   141.370802
	   75 D(1,9,15,17)    =     25.445019    -0.000000    -0.000182    25.444837
	   76 D(1,9,15,18)    =    -97.304695    -0.000000    -0.000152   -97.304847
	   77 D(2,1,9,10)     =    -64.993496     0.000000     0.000251   -64.993244
	   78 D(2,1,9,11)     =    179.527099     0.000000     0.000222   179.527321
	   79 D(2,1,9,15)     =     57.673630     0.000000     0.000258    57.673888
	   80 D(3,1,9,10)     =    175.543514     0.000000     0.000252   175.543766
	   81 D(3,1,9,11)     =     60.064109     0.000000     0.000222    60.064331
	   82 D(3,1,9,15)     =    -61.789360     0.000000     0.000259   -61.789101
	   83 D(4,1,9,10)     =     55.920387    -0.000000     0.000231    55.920618
	   84 D(4,1,9,11)     =    -59.559019    -0.000000     0.000202   -59.558817
	   85 D(4,1,9,15)     =    178.587512     0.000000     0.000238   178.587751
	   86 D(5,12,24,21)   =     97.304858    -0.000000     0.000059    97.304917
	   87 D(5,12,24,25)   =    -25.444830     0.000000     0.000078   -25.444752
	   88 D(5,12,24,26)   =   -141.370693    -0.000000     0.000041  -141.370652
	   89 D(6,5,12,13)    =   -175.543835    -0.000000    -0.000232  -175.544068
	   90 D(6,5,12,14)    =    -60.064415    -0.000000    -0.000196   -60.064611
	   91 D(6,5,12,24)    =     61.788979    -0.000000    -0.000233    61.788746
	   92 D(7,5,12,13)    =     64.993159    -0.000000    -0.000230    64.992928
	   93 D(7,5,12,14)    =   -179.527421    -0.000000    -0.000194  -179.527615
	   94 D(7,5,12,24)    =    -57.674027    -0.000000    -0.000231   -57.674258
	   95 D(8,5,12,13)    =    -55.920736     0.000000    -0.000201   -55.920938
	   96 D(8,5,12,14)    =     59.558684     0.000000    -0.000165    59.558519
	   97 D(8,5,12,24)    =   -178.587922     0.000000    -0.000202  -178.588124
	   98 D(9,15,18,19)   =    -62.566631     0.000000     0.000191   -62.566440
	   99 D(9,15,18,20)   =   -178.157441    -0.000000     0.000147  -178.157294
	  100 D(9,15,18,21)   =     59.530771     0.000000     0.000244    59.531015
	  101 D(10,9,15,16)   =    -95.557955    -0.000000    -0.000167   -95.558122
	  102 D(10,9,15,17)   =    148.516102    -0.000000    -0.000189   148.515913
	  103 D(10,9,15,18)   =     25.766388    -0.000000    -0.000159    25.766229
	  104 D(11,9,15,16)   =     20.164685     0.000000    -0.000097    20.164588
	  105 D(11,9,15,17)   =    -95.761258     0.000000    -0.000119   -95.761377
	  106 D(11,9,15,18)   =    141.489029     0.000000    -0.000089   141.488939
	  107 D(12,24,21,18)  =    -59.530513     0.000000     0.000205   -59.530308
	  108 D(12,24,21,22)  =    178.157840     0.000000     0.000154   178.157994
	  109 D(12,24,21,23)  =     62.566916     0.000000     0.000162    62.567078
	  110 D(13,12,24,21)  =    -25.766279     0.000000     0.000066   -25.766212
	  111 D(13,12,24,25)  =   -148.515967     0.000000     0.000086  -148.515881
	  112 D(13,12,24,26)  =     95.558170     0.000000     0.000049    95.558219
	  113 D(14,12,24,21)  =   -141.488931    -0.000000    -0.000004  -141.488935
	  114 D(14,12,24,25)  =     95.761380    -0.000000     0.000016    95.761396
	  115 D(14,12,24,26)  =    -20.164482    -0.000000    -0.000021   -20.164504
	  116 D(15,18,21,22)  =    -58.184682     0.000000    -0.000181   -58.184863
	  117 D(15,18,21,23)  =     57.938969     0.000000    -0.000162    57.938807
	  118 D(15,18,21,24)  =    180.000000    -0.000000     0.000000   180.000000
	  119 D(16,15,18,19)  =     59.669652    -0.000000     0.000187    59.669839
	  120 D(16,15,18,20)  =    -55.921158    -0.000000     0.000144   -55.921014
	  121 D(16,15,18,21)  =   -178.232945     0.000000     0.000240  -178.232705
	  122 D(17,15,18,19)  =    174.721087     0.000000     0.000230   174.721316
	  123 D(17,15,18,20)  =     59.130277    -0.000000     0.000186    59.130463
	  124 D(17,15,18,21)  =    -63.181511     0.000000     0.000283   -63.181228
	  125 D(18,21,24,25)  =     63.181730    -0.000000     0.000176    63.181906
	  126 D(18,21,24,26)  =    178.233122     0.000000     0.000226   178.233348
	  127 D(19,18,21,22)  =     63.876455    -0.000000    -0.000157    63.876298
	  128 D(19,18,21,23)  =    180.000000     0.000000     0.000000   180.000000
	  129 D(19,18,21,24)  =    -57.938647    -0.000000    -0.000229   -57.938875
	  130 D(20,18,21,22)  =    180.000000     0.000000     0.000000   180.000000
	  131 D(20,18,21,23)  =    -63.876219     0.000000    -0.000114   -63.876333
	  132 D(20,18,21,24)  =     58.185028    -0.000000    -0.000205    58.184823
	  133 D(22,21,24,25)  =    -59.129917    -0.000000     0.000125   -59.129792
	  134 D(22,21,24,26)  =     55.921475     0.000000     0.000175    55.921650
	  135 D(23,21,24,25)  =   -174.720841    -0.000000     0.000133  -174.720708
	  136 D(23,21,24,26)  =    -59.669449     0.000000     0.000183   -59.669266
	  137 R(1,21)         =      3.421632     0.000000     0.000003     3.421634
	  138 R(5,18)         =      3.421631     0.000000     0.000001     3.421631
	 ---------------------------------------------------------------------------

  ==> Convergence Check <==

  Measures of convergence in internal coordinates in au.
  Criteria marked as inactive (o), active & met (*), and active & unmet ( ).
  ---------------------------------------------------------------------------------------------
   Step     Total Energy     Delta E     MAX Force     RMS Force      MAX Disp      RMS Disp   
  ---------------------------------------------------------------------------------------------
    Convergence Criteria             o    2.00e-06 *    1.00e-06 *    6.00e-06 *    4.00e-06 *
  ---------------------------------------------------------------------------------------------
     24    -314.97684597    4.63e-09 o    5.50e-07 *    1.43e-07 *    4.93e-06 *    2.21e-06 *  ~
  ---------------------------------------------------------------------------------------------


  **** Optimization is complete! (in 24 steps) ****

  ==> Optimization Summary <==

  Measures of convergence in internal coordinates in au.
  --------------------------------------------------------------------------------------------------------------- ~
   Step         Total Energy             Delta E       MAX Force       RMS Force        MAX Disp        RMS Disp  ~
  --------------------------------------------------------------------------------------------------------------- ~
      1    -314.976585636935   -314.976585636935      0.00371607      0.00099397      0.03841912      0.01431288  ~
      2    -314.976814024968     -0.000228388033      0.00090726      0.00021186      0.03617877      0.01548155  ~
      3    -314.976804369746      0.000009655222      0.00073278      0.00018921      0.02225040      0.00884197  ~
      4    -314.976845826561     -0.000041456815      0.00006421      0.00001722      0.00069371      0.00021776  ~
      5    -314.976845964567     -0.000000138005      0.00001581      0.00000400      0.00032476      0.00009963  ~
      6    -314.976845972064     -0.000000007497      0.00000263      0.00000086      0.00024303      0.00010836  ~
      7    -314.976845972414     -0.000000000350      0.00000491      0.00000124      0.00065059      0.00029701  ~
      8    -314.976845946497      0.000000025916      0.00000991      0.00000324      0.00128299      0.00058743  ~
      9    -314.976845888273      0.000000058224      0.00001890      0.00000678      0.00089503      0.00038040  ~
     10    -314.976845972352     -0.000000084079      0.00000141      0.00000037      0.00002490      0.00000988  ~
     11    -314.976845972999     -0.000000000647      0.00000071      0.00000020      0.00001386      0.00000549  ~
     12    -314.976845974753     -0.000000001753      0.00000239      0.00000062      0.00003010      0.00001100  ~
     13    -314.976845974308      0.000000000444      0.00000064      0.00000015      0.00001667      0.00000560  ~
     14    -314.976845973301      0.000000001007      0.00000211      0.00000051      0.00002006      0.00000898  ~
     15    -314.976845969794      0.000000003508      0.00000191      0.00000047      0.00002439      0.00000929  ~
     16    -314.976845971022     -0.000000001228      0.00000153      0.00000040      0.00001360      0.00000608  ~
     17    -314.976845971955     -0.000000000933      0.00000100      0.00000022      0.00001614      0.00000594  ~
     18    -314.976845970690      0.000000001265      0.00000193      0.00000048      0.00001864      0.00000781  ~
     19    -314.976845971944     -0.000000001254      0.00000072      0.00000013      0.00000971      0.00000251  ~
     20    -314.976845974920     -0.000000002976      0.00000062      0.00000015      0.00000900      0.00000243  ~
     21    -314.976845974627      0.000000000293      0.00000051      0.00000010      0.00000872      0.00000359  ~
     22    -314.976845972955      0.000000001673      0.00000119      0.00000026      0.00001835      0.00000673  ~
     23    -314.976845974872     -0.000000001917      0.00000157      0.00000037      0.00002195      0.00000751  ~
     24    -314.976845970239      0.000000004632      0.00000055      0.00000014      0.00000493      0.00000221  ~
  --------------------------------------------------------------------------------------------------------------- ~

	Writing optimization data to binary file.
	Final energy is   -314.9768459702393
	Final (previous) structure:
	Cartesian Geometry (in Angstrom)
	    C    -3.2443460404  -0.8772830198  -0.1873164248
	    H    -2.4593350849  -1.6065613475  -0.3812851638
	    H    -3.7159946781  -0.6403409288  -1.1419243361
	    H    -3.9944618206  -1.3496104096   0.4474023397
	    C     3.2443435788   0.8772849141   0.1873304230
	    H     3.7159817456   0.6403381917   1.1419427193
	    H     2.4593315013   1.6065641193   0.3812935702
	    H     3.9944672019   1.3496133033  -0.4473786407
	    C    -2.6899590546   0.3913361263   0.4555856709
	    H    -2.2888339847   0.1621527444   1.4471677908
	    H    -3.5179305310   1.0840263473   0.6172879082
	    C     2.6899619626  -0.3913309135  -0.4555825675
	    H     2.2888423675  -0.1621424678  -1.4471662722
	    H     3.5179357028  -1.0840193435  -0.6172835563
	    C    -1.6022342080   1.0799479770  -0.3823672540
	    H    -1.7231660552   2.1634967391  -0.3195201406
	    H    -1.7404522335   0.8176644570  -1.4361867589
	    C    -0.1713073884   0.7414144443   0.0375855924
	    H    -0.0104481774   1.0920723761   1.0628930245
	    H     0.5176047235   1.3049221314  -0.5962925896
	    C     0.1713076386  -0.7414201581  -0.0375977545
	    H    -0.5176064693  -1.3049274365   0.5962789685
	    H     0.0104503062  -1.0920780470  -1.0629057962
	    C     1.6022335397  -1.0799496336   0.3823608715
	    H     1.7404448549  -0.8176688659   1.4361826372
	    H     1.7231702935  -2.1634984278   0.3195114781
	Saving final (previous) structure.
			--------------------------
			 OPTKING Finished Execution 
			--------------------------

    Final optimized geometry and variables:
    Molecular point group: c1
    Full point group: C1

    Geometry (in Angstrom), charge = 0, multiplicity = 1:

    C           -3.244346040373    -0.877283019847    -0.187316424791
    H           -2.459335084858    -1.606561347490    -0.381285163836
    H           -3.715994678118    -0.640340928799    -1.141924336132
    H           -3.994461820579    -1.349610409569     0.447402339692
    C            3.244343578780     0.877284914105     0.187330422971
    H            3.715981745623     0.640338191661     1.141942719295
    H            2.459331501277     1.606564119295     0.381293570226
    H            3.994467201922     1.349613303306    -0.447378640684
    C           -2.689959054612     0.391336126301     0.455585670935
    H           -2.288833984713     0.162152744428     1.447167790767
    H           -3.517930530980     1.084026347272     0.617287908218
    C            2.689961962634    -0.391330913539    -0.455582567499
    H            2.288842367538    -0.162142467760    -1.447166272180
    H            3.517935702800    -1.084019343486    -0.617283556281
    C           -1.602234208024     1.079947976978    -0.382367253999
    H           -1.723166055249     2.163496739068    -0.319520140590
    H           -1.740452233483     0.817664457037    -1.436186758860
    C           -0.171307388382     0.741414444343     0.037585592354
    H           -0.010448177438     1.092072376129     1.062893024508
    H            0.517604723523     1.304922131358    -0.596292589574
    C            0.171307638636    -0.741420158074    -0.037597754486
    H           -0.517606469300    -1.304927436522     0.596278968503
    H            0.010450306151    -1.092078046968    -1.062905796196
    C            1.602233539682    -1.079949633588     0.382360871470
    H            1.740444854918    -0.817668865870     1.436182637161
    H            1.723170293523    -2.163498427762     0.319511478072

	Cleaning optimization helper files.

*** Psi4 exiting successfully. Buy a developer a beer!
