    -----------------------------------------------------------------------
          Psi4: An Open-Source Ab Initio Electronic Structure Package
                              Psi4 1.0.0 Driver

                          Git: Rev {master} 6a9a71b dirty

    J. M. Turney, A. C. Simmonett, R. M. Parrish, E. G. Hohenstein,
    F. A. Evangelista, J. T. Fermann, B. J. Mintz, L. A. Burns, J. J. Wilke,
    M. L. Abrams, N. J. Russ, M. L. Leininger, C. L. Janssen, E. T. Seidl,
    W. D. Allen, H. F. Schaefer, R. A. King, E. F. Valeev, C. D. Sherrill,
    and T. D. Crawford, WIREs Comput. Mol. Sci. 2, 556-565 (2012)
    (doi: 10.1002/wcms.93)

                         Additional Contributions by
    A. E. DePrince, U. Bozkaya, A. Yu. Sokolov, D. G. A. Smith, R. Di Remigio,
    R. M. Richard, J. F. Gonthier, H. R. McAlexander, M. Saitow, and
    B. P. Pritchard
    -----------------------------------------------------------------------


    Psi4 started on: Wed Sep 21 08:41:36 2016

    Process ID:  23050
    PSI4DATADIR: /usr/local/hpc5/psi4conda/share/psi4
    Memory level set to 256.000 MB

  ==> Input File <==

--------------------------------------------------------------------------
memory 60 Gb

molecule molecule_81_psi {
0 1
C           -2.855868149552     1.304386614665     0.149236491088
H           -2.875508184672     1.499221045747    -0.924125389556
H           -1.914204282030     1.687998379900     0.542158809582
H           -3.661594597391     1.877043100015     0.608485632830
C            3.926799888161     0.140110293159     0.425993059553
H            4.644994786734    -0.653236951948     0.631668539959
H            3.835457801462     0.750851906921     1.325184397667
H            4.339033013991     0.770989040134    -0.362476992529
C           -3.014418983312    -0.184413054584     0.436163057729
H           -4.003362413261    -0.510668894365     0.105663420925
H           -2.980463625044    -0.347654589714     1.516956000754
C            2.570180069145    -0.420196684375     0.016170282850
H            2.680167690583    -1.040526687473    -0.878171049549
H            2.195169046609    -1.074799704124     0.805167423596
C           -1.955071149867    -1.068218668577    -0.222002915982
H           -2.037204752083    -0.984335193396    -1.310471309668
H           -2.181364272791    -2.108017635866     0.023004249066
C           -0.516764700889    -0.736261367001     0.201775798806
H            0.053183262033    -1.660162254537     0.312801614400
H           -0.529307823934    -0.265576261519     1.191640953227
C            0.213132855852     0.176822098081    -0.782138197842
H            0.366979926627    -0.369991693025    -1.718228040844
H           -0.422451593386     1.029693856941    -1.027481718813
C            1.557052519213     0.683711081470    -0.266501202987
H            1.986823678599     1.374093487434    -0.998421013922
H            1.396160249904     1.264099916790     0.648439681004
}

set globals {
  reference rhf
  g_convergence gau_verytight
  basis aug-cc-pvtz
  freeze_core true
  scf_type df
  mp_type df
}
optimize('mp2')
--------------------------------------------------------------------------
/usr/local/hpc5/psi4conda/lib/python2.7/site-packages/v2rdm_casscf/v2rdm_casscf.so loaded.

  Memory set to  60.000 GiB by Python script.
gradient() will perform analytic gradient computation.

*** tstart() called on wr38
*** at Wed Sep 21 08:41:37 2016


         ---------------------------------------------------------
                                   SCF
            by Justin Turney, Rob Parrish, and Andy Simmonett
                              RHF Reference
                       12 Threads,  60000 MiB Core
         ---------------------------------------------------------

  ==> Geometry <==

    Molecular point group: c1
    Full point group: C1

    Geometry (in Angstrom), charge = 0, multiplicity = 1:

       Center              X                  Y                   Z               Mass       
    ------------   -----------------  -----------------  -----------------  -----------------
           C         -2.855868149552     1.304386614665     0.149236491088    12.000000000000
           H         -2.875508184672     1.499221045747    -0.924125389556     1.007825032070
           H         -1.914204282030     1.687998379900     0.542158809582     1.007825032070
           H         -3.661594597391     1.877043100015     0.608485632830     1.007825032070
           C          3.926799888161     0.140110293159     0.425993059553    12.000000000000
           H          4.644994786734    -0.653236951948     0.631668539959     1.007825032070
           H          3.835457801462     0.750851906921     1.325184397667     1.007825032070
           H          4.339033013991     0.770989040134    -0.362476992529     1.007825032070
           C         -3.014418983312    -0.184413054584     0.436163057729    12.000000000000
           H         -4.003362413261    -0.510668894365     0.105663420925     1.007825032070
           H         -2.980463625044    -0.347654589714     1.516956000754     1.007825032070
           C          2.570180069145    -0.420196684375     0.016170282850    12.000000000000
           H          2.680167690583    -1.040526687473    -0.878171049549     1.007825032070
           H          2.195169046609    -1.074799704124     0.805167423596     1.007825032070
           C         -1.955071149867    -1.068218668577    -0.222002915982    12.000000000000
           H         -2.037204752083    -0.984335193396    -1.310471309668     1.007825032070
           H         -2.181364272791    -2.108017635866     0.023004249066     1.007825032070
           C         -0.516764700889    -0.736261367001     0.201775798806    12.000000000000
           H          0.053183262033    -1.660162254537     0.312801614400     1.007825032070
           H         -0.529307823934    -0.265576261519     1.191640953227     1.007825032070
           C          0.213132855852     0.176822098081    -0.782138197842    12.000000000000
           H          0.366979926627    -0.369991693025    -1.718228040844     1.007825032070
           H         -0.422451593386     1.029693856941    -1.027481718813     1.007825032070
           C          1.557052519213     0.683711081470    -0.266501202987    12.000000000000
           H          1.986823678599     1.374093487434    -0.998421013922     1.007825032070
           H          1.396160249904     1.264099916790     0.648439681004     1.007825032070

  Running in c1 symmetry.

  Rotational constants: A =      0.15963  B =      0.02361  C =      0.02221 [cm^-1]
  Rotational constants: A =   4785.71778  B =    707.73891  C =    665.78346 [MHz]
  Nuclear repulsion =  392.501090807084665

  Charge       = 0
  Multiplicity = 1
  Electrons    = 66
  Nalpha       = 33
  Nbeta        = 33

  ==> Algorithm <==

  SCF Algorithm Type is DF.
  DIIS enabled.
  MOM disabled.
  Fractional occupation disabled.
  Guess Type is SAD.
  Energy threshold   = 1.00e-10
  Density threshold  = 1.00e-10
  Integral threshold = 0.00e+00

  ==> Primary Basis <==

  Basis Set: AUG-CC-PVTZ
    Number of shells: 274
    Number of basis function: 782
    Number of Cartesian functions: 890
    Spherical Harmonics?: true
    Max angular momentum: 3

  ==> Pre-Iterations <==

   -------------------------------------------------------
    Irrep   Nso     Nmo     Nalpha   Nbeta   Ndocc  Nsocc
   -------------------------------------------------------
     A        782     782       0       0       0       0
   -------------------------------------------------------
    Total     782     782      33      33      33       0
   -------------------------------------------------------

  ==> Integral Setup <==

  ==> DFJK: Density-Fitted J/K Matrices <==

    J tasked:                  Yes
    K tasked:                  Yes
    wK tasked:                  No
    OpenMP threads:             12
    Integrals threads:          12
    Memory (MB):             42915
    Algorithm:                Core
    Integral Cache:           NONE
    Schwarz Cutoff:          1E-12
    Fitting Condition:       1E-12

   => Auxiliary Basis Set <=

  Basis Set: 
    Number of shells: 492
    Number of basis function: 1660
    Number of Cartesian functions: 2038
    Spherical Harmonics?: true
    Max angular momentum: 4

  Minimum eigenvalue in the overlap matrix is 1.7944765520E-06.
  Using Symmetric Orthogonalization.
  SCF Guess: Superposition of Atomic Densities via on-the-fly atomic UHF.

  ==> Iterations <==

                           Total Energy        Delta E     RMS |[F,P]|

   @DF-RHF iter   0:  -316.77330881110618   -3.16773e+02   6.90010e-03 
   @DF-RHF iter   1:  -313.26656110910221    3.50675e+00   7.88535e-04 
   @DF-RHF iter   2:  -313.49865340327551   -2.32092e-01   3.09778e-04 DIIS
   @DF-RHF iter   3:  -313.53329039706250   -3.46370e-02   1.01014e-04 DIIS
   @DF-RHF iter   4:  -313.53865825030493   -5.36785e-03   1.62414e-05 DIIS
   @DF-RHF iter   5:  -313.53882973265945   -1.71482e-04   5.12486e-06 DIIS
   @DF-RHF iter   6:  -313.53884350925807   -1.37766e-05   1.35772e-06 DIIS
   @DF-RHF iter   7:  -313.53884473569792   -1.22644e-06   2.70380e-07 DIIS
   @DF-RHF iter   8:  -313.53884478483519   -4.91373e-08   8.72428e-08 DIIS
   @DF-RHF iter   9:  -313.53884478877285   -3.93766e-09   2.09582e-08 DIIS
   @DF-RHF iter  10:  -313.53884478907014   -2.97291e-10   5.12687e-09 DIIS
   @DF-RHF iter  11:  -313.53884478909106   -2.09184e-11   1.12279e-09 DIIS
   @DF-RHF iter  12:  -313.53884478909231   -1.25056e-12   3.99708e-10 DIIS
   @DF-RHF iter  13:  -313.53884478909254   -2.27374e-13   1.10074e-10 DIIS
   @DF-RHF iter  14:  -313.53884478909276   -2.27374e-13   2.52769e-11 DIIS

  ==> Post-Iterations <==

    Orbital Energies (a.u.)
    -----------------------

    Doubly Occupied:                                                      

       1A    -11.213275     2A    -11.211731     3A    -11.210480  
       4A    -11.210147     5A    -11.209613     6A    -11.208896  
       7A    -11.207112     8A    -11.206767     9A     -1.093403  
      10A     -1.060395    11A     -1.006657    12A     -0.949455  
      13A     -0.883501    14A     -0.829217    15A     -0.781729  
      16A     -0.765470    17A     -0.641930    18A     -0.632050  
      19A     -0.610673    20A     -0.591480    21A     -0.572277  
      22A     -0.558725    23A     -0.557311    24A     -0.527516  
      25A     -0.511342    26A     -0.502579    27A     -0.487996  
      28A     -0.477668    29A     -0.463224    30A     -0.460910  
      31A     -0.451592    32A     -0.435149    33A     -0.431743  

    Virtual:                                                              

      34A      0.030648    35A      0.032666    36A      0.033887  
      37A      0.035600    38A      0.045738    39A      0.046817  
      40A      0.049349    41A      0.055048    42A      0.056776  
      43A      0.064767    44A      0.067022    45A      0.069822  
      46A      0.072507    47A      0.077253    48A      0.091612  
      49A      0.095684    50A      0.099682    51A      0.102294  
      52A      0.111891    53A      0.115041    54A      0.117373  
      55A      0.122749    56A      0.126400    57A      0.127757  
      58A      0.132601    59A      0.138208    60A      0.138747  
      61A      0.144114    62A      0.149356    63A      0.150987  
      64A      0.156545    65A      0.158092    66A      0.161161  
      67A      0.165292    68A      0.167224    69A      0.168883  
      70A      0.171670    71A      0.174336    72A      0.181851  
      73A      0.188868    74A      0.196046    75A      0.197701  
      76A      0.208595    77A      0.219092    78A      0.222500  
      79A      0.226894    80A      0.233489    81A      0.243202  
      82A      0.249537    83A      0.255184    84A      0.263764  
      85A      0.266654    86A      0.270563    87A      0.275366  
      88A      0.281163    89A      0.284288    90A      0.291349  
      91A      0.293797    92A      0.301352    93A      0.307091  
      94A      0.311853    95A      0.315988    96A      0.318109  
      97A      0.325186    98A      0.328819    99A      0.330688  
     100A      0.334225   101A      0.340908   102A      0.345614  
     103A      0.349015   104A      0.349934   105A      0.351802  
     106A      0.357100   107A      0.360676   108A      0.363026  
     109A      0.368223   110A      0.370973   111A      0.372642  
     112A      0.380745   113A      0.383633   114A      0.385702  
     115A      0.391614   116A      0.392893   117A      0.396734  
     118A      0.402625   119A      0.402787   120A      0.409767  
     121A      0.413187   122A      0.416780   123A      0.422167  
     124A      0.428943   125A      0.429878   126A      0.436411  
     127A      0.438623   128A      0.440997   129A      0.443627  
     130A      0.453284   131A      0.455501   132A      0.458186  
     133A      0.461817   134A      0.467699   135A      0.470927  
     136A      0.475002   137A      0.476720   138A      0.479903  
     139A      0.483232   140A      0.487281   141A      0.490593  
     142A      0.496030   143A      0.498443   144A      0.500049  
     145A      0.508059   146A      0.509464   147A      0.511808  
     148A      0.518068   149A      0.523817   150A      0.526650  
     151A      0.529217   152A      0.535685   153A      0.537769  
     154A      0.542104   155A      0.545565   156A      0.550258  
     157A      0.555446   158A      0.556064   159A      0.563836  
     160A      0.565789   161A      0.571333   162A      0.574035  
     163A      0.582526   164A      0.585073   165A      0.590105  
     166A      0.592535   167A      0.600410   168A      0.602302  
     169A      0.605860   170A      0.611004   171A      0.621660  
     172A      0.626229   173A      0.631671   174A      0.635346  
     175A      0.639810   176A      0.641580   177A      0.644054  
     178A      0.650480   179A      0.653837   180A      0.660258  
     181A      0.665963   182A      0.672915   183A      0.679871  
     184A      0.687296   185A      0.688515   186A      0.695994  
     187A      0.699099   188A      0.703163   189A      0.710341  
     190A      0.715417   191A      0.724603   192A      0.732462  
     193A      0.740000   194A      0.741330   195A      0.746892  
     196A      0.751156   197A      0.765022   198A      0.766232  
     199A      0.784551   200A      0.796579   201A      0.799321  
     202A      0.811293   203A      0.816981   204A      0.829389  
     205A      0.838654   206A      0.843298   207A      0.848967  
     208A      0.852843   209A      0.854879   210A      0.858675  
     211A      0.867251   212A      0.870249   213A      0.875593  
     214A      0.879335   215A      0.886600   216A      0.889525  
     217A      0.891757   218A      0.903641   219A      0.909563  
     220A      0.911318   221A      0.913673   222A      0.918099  
     223A      0.922697   224A      0.926159   225A      0.934474  
     226A      0.939368   227A      0.941309   228A      0.947204  
     229A      0.957082   230A      0.959718   231A      0.960841  
     232A      0.966149   233A      0.971841   234A      0.974600  
     235A      0.981630   236A      0.988950   237A      0.994458  
     238A      0.999202   239A      1.005687   240A      1.010873  
     241A      1.015911   242A      1.017220   243A      1.023686  
     244A      1.025109   245A      1.032121   246A      1.042474  
     247A      1.047211   248A      1.049909   249A      1.051901  
     250A      1.054537   251A      1.061466   252A      1.062959  
     253A      1.067576   254A      1.076788   255A      1.085595  
     256A      1.094450   257A      1.097301   258A      1.102943  
     259A      1.106463   260A      1.113728   261A      1.116861  
     262A      1.121269   263A      1.129899   264A      1.133244  
     265A      1.140293   266A      1.144946   267A      1.149608  
     268A      1.156112   269A      1.158852   270A      1.165202  
     271A      1.170875   272A      1.174766   273A      1.180970  
     274A      1.182853   275A      1.189560   276A      1.194818  
     277A      1.202950   278A      1.204759   279A      1.211333  
     280A      1.214524   281A      1.216705   282A      1.227886  
     283A      1.236973   284A      1.238967   285A      1.242413  
     286A      1.246668   287A      1.252729   288A      1.265324  
     289A      1.269038   290A      1.271853   291A      1.272715  
     292A      1.274969   293A      1.287700   294A      1.290356  
     295A      1.293570   296A      1.306128   297A      1.313635  
     298A      1.319830   299A      1.324343   300A      1.328299  
     301A      1.335282   302A      1.344109   303A      1.349262  
     304A      1.357549   305A      1.364568   306A      1.370912  
     307A      1.375693   308A      1.382582   309A      1.389464  
     310A      1.391867   311A      1.394244   312A      1.401909  
     313A      1.419211   314A      1.420599   315A      1.428512  
     316A      1.433982   317A      1.436792   318A      1.454705  
     319A      1.460975   320A      1.469482   321A      1.477832  
     322A      1.487253   323A      1.489846   324A      1.506452  
     325A      1.513836   326A      1.515275   327A      1.526868  
     328A      1.532953   329A      1.533914   330A      1.546880  
     331A      1.553862   332A      1.556687   333A      1.566613  
     334A      1.569515   335A      1.575661   336A      1.591845  
     337A      1.598355   338A      1.602859   339A      1.611055  
     340A      1.616206   341A      1.622334   342A      1.624891  
     343A      1.636151   344A      1.647417   345A      1.652938  
     346A      1.665574   347A      1.666615   348A      1.670791  
     349A      1.688757   350A      1.698257   351A      1.700806  
     352A      1.705340   353A      1.711501   354A      1.712722  
     355A      1.719113   356A      1.721334   357A      1.727858  
     358A      1.729777   359A      1.739872   360A      1.743187  
     361A      1.745356   362A      1.760242   363A      1.764764  
     364A      1.767348   365A      1.771946   366A      1.779179  
     367A      1.780897   368A      1.792039   369A      1.793153  
     370A      1.795892   371A      1.808954   372A      1.810394  
     373A      1.817882   374A      1.820242   375A      1.827278  
     376A      1.831846   377A      1.837387   378A      1.842611  
     379A      1.849192   380A      1.853365   381A      1.862272  
     382A      1.870040   383A      1.874539   384A      1.880812  
     385A      1.888604   386A      1.898997   387A      1.908094  
     388A      1.912528   389A      1.923098   390A      1.926722  
     391A      1.931807   392A      1.948434   393A      1.950153  
     394A      1.954745   395A      1.961749   396A      1.974232  
     397A      1.976499   398A      1.983384   399A      1.985554  
     400A      1.991580   401A      1.996860   402A      2.009777  
     403A      2.011816   404A      2.026722   405A      2.027473  
     406A      2.030864   407A      2.042440   408A      2.046926  
     409A      2.057114   410A      2.060525   411A      2.062240  
     412A      2.068562   413A      2.075797   414A      2.089701  
     415A      2.097277   416A      2.104972   417A      2.113149  
     418A      2.117758   419A      2.120725   420A      2.132413  
     421A      2.137918   422A      2.154647   423A      2.157194  
     424A      2.167590   425A      2.172974   426A      2.182501  
     427A      2.190248   428A      2.194543   429A      2.210900  
     430A      2.217075   431A      2.226847   432A      2.239083  
     433A      2.250725   434A      2.254928   435A      2.261640  
     436A      2.271321   437A      2.281485   438A      2.289357  
     439A      2.295175   440A      2.305741   441A      2.315295  
     442A      2.324195   443A      2.334936   444A      2.340774  
     445A      2.345779   446A      2.354399   447A      2.369732  
     448A      2.378414   449A      2.382665   450A      2.385904  
     451A      2.395585   452A      2.405275   453A      2.411293  
     454A      2.429493   455A      2.440531   456A      2.442372  
     457A      2.454739   458A      2.462063   459A      2.470726  
     460A      2.488588   461A      2.494621   462A      2.513965  
     463A      2.525918   464A      2.532146   465A      2.540377  
     466A      2.554659   467A      2.565882   468A      2.581246  
     469A      2.598547   470A      2.606840   471A      2.620697  
     472A      2.624292   473A      2.652314   474A      2.658024  
     475A      2.662482   476A      2.694774   477A      2.707100  
     478A      2.739046   479A      2.758543   480A      2.763066  
     481A      2.782502   482A      2.791424   483A      2.826408  
     484A      2.870041   485A      2.917543   486A      2.922603  
     487A      3.006910   488A      3.014167   489A      3.074821  
     490A      3.127933   491A      3.200344   492A      3.202952  
     493A      3.287499   494A      3.321247   495A      3.369935  
     496A      3.414854   497A      3.430727   498A      3.454158  
     499A      3.465294   500A      3.480794   501A      3.491548  
     502A      3.496460   503A      3.498067   504A      3.519294  
     505A      3.536828   506A      3.546069   507A      3.555832  
     508A      3.567022   509A      3.581234   510A      3.591672  
     511A      3.602522   512A      3.613599   513A      3.619406  
     514A      3.624677   515A      3.644699   516A      3.661057  
     517A      3.666609   518A      3.680744   519A      3.690269  
     520A      3.699121   521A      3.703755   522A      3.714401  
     523A      3.719362   524A      3.726039   525A      3.735134  
     526A      3.742750   527A      3.751531   528A      3.757724  
     529A      3.767920   530A      3.791713   531A      3.795975  
     532A      3.800611   533A      3.806679   534A      3.816060  
     535A      3.817108   536A      3.823932   537A      3.832178  
     538A      3.841771   539A      3.857830   540A      3.867703  
     541A      3.872403   542A      3.885049   543A      3.894284  
     544A      3.904780   545A      3.910045   546A      3.922621  
     547A      3.931492   548A      3.936611   549A      3.939084  
     550A      3.945081   551A      3.953517   552A      3.959578  
     553A      3.964127   554A      3.972600   555A      3.978105  
     556A      3.991870   557A      3.995979   558A      4.000146  
     559A      4.009748   560A      4.017988   561A      4.020371  
     562A      4.038925   563A      4.045199   564A      4.056980  
     565A      4.060123   566A      4.069760   567A      4.074088  
     568A      4.080790   569A      4.083571   570A      4.088751  
     571A      4.091483   572A      4.104808   573A      4.106984  
     574A      4.119790   575A      4.125737   576A      4.136642  
     577A      4.148939   578A      4.162165   579A      4.166719  
     580A      4.177276   581A      4.189113   582A      4.201438  
     583A      4.210310   584A      4.211356   585A      4.227518  
     586A      4.230423   587A      4.237928   588A      4.253049  
     589A      4.265284   590A      4.278247   591A      4.283315  
     592A      4.289404   593A      4.297736   594A      4.315261  
     595A      4.325312   596A      4.333407   597A      4.347031  
     598A      4.350308   599A      4.356041   600A      4.369899  
     601A      4.380652   602A      4.391088   603A      4.396867  
     604A      4.417270   605A      4.424558   606A      4.436944  
     607A      4.457719   608A      4.462436   609A      4.474014  
     610A      4.476587   611A      4.488375   612A      4.512579  
     613A      4.528120   614A      4.541512   615A      4.560829  
     616A      4.565459   617A      4.576125   618A      4.591413  
     619A      4.608383   620A      4.613250   621A      4.636666  
     622A      4.644630   623A      4.656584   624A      4.677364  
     625A      4.690439   626A      4.695722   627A      4.707597  
     628A      4.720127   629A      4.729369   630A      4.737104  
     631A      4.739219   632A      4.747325   633A      4.751039  
     634A      4.768943   635A      4.771330   636A      4.791424  
     637A      4.795832   638A      4.817902   639A      4.827129  
     640A      4.832891   641A      4.836287   642A      4.845050  
     643A      4.870856   644A      4.880073   645A      4.887833  
     646A      4.895150   647A      4.906604   648A      4.909932  
     649A      4.932148   650A      4.944783   651A      4.949367  
     652A      4.965679   653A      4.979075   654A      4.993249  
     655A      4.996935   656A      5.015999   657A      5.017419  
     658A      5.040368   659A      5.043009   660A      5.058326  
     661A      5.074956   662A      5.086029   663A      5.095703  
     664A      5.109381   665A      5.130398   666A      5.137773  
     667A      5.145289   668A      5.154814   669A      5.168185  
     670A      5.177914   671A      5.196638   672A      5.205242  
     673A      5.217936   674A      5.229932   675A      5.231410  
     676A      5.245930   677A      5.263484   678A      5.275622  
     679A      5.286677   680A      5.292915   681A      5.297804  
     682A      5.309163   683A      5.317832   684A      5.331715  
     685A      5.347411   686A      5.355648   687A      5.373419  
     688A      5.378040   689A      5.385598   690A      5.388991  
     691A      5.404374   692A      5.418004   693A      5.428997  
     694A      5.442988   695A      5.452661   696A      5.463904  
     697A      5.474971   698A      5.486737   699A      5.490302  
     700A      5.510996   701A      5.523105   702A      5.528284  
     703A      5.531231   704A      5.555787   705A      5.565552  
     706A      5.573022   707A      5.583255   708A      5.616238  
     709A      5.631359   710A      5.639704   711A      5.646825  
     712A      5.666996   713A      5.673710   714A      5.686114  
     715A      5.689760   716A      5.707800   717A      5.710420  
     718A      5.727723   719A      5.736205   720A      5.746618  
     721A      5.764890   722A      5.772353   723A      5.787339  
     724A      5.798132   725A      5.815530   726A      5.832278  
     727A      5.848144   728A      5.868013   729A      5.877971  
     730A      5.902780   731A      5.930946   732A      5.955688  
     733A      5.971614   734A      5.995631   735A      6.015937  
     736A      6.035949   737A      6.059378   738A      6.074408  
     739A      6.102120   740A      6.115441   741A      6.144246  
     742A      6.167155   743A      6.180221   744A      6.204508  
     745A      6.212158   746A      6.232057   747A      6.242539  
     748A      6.254915   749A      6.277681   750A      6.287624  
     751A      6.292614   752A      6.311937   753A      6.344260  
     754A      6.352290   755A      6.381767   756A      6.403657  
     757A      6.424813   758A      6.464131   759A      6.561176  
     760A      6.622891   761A      6.658229   762A      6.683601  
     763A      6.711987   764A      6.764507   765A      6.793700  
     766A      6.809594   767A      6.875320   768A      6.899540  
     769A      6.959991   770A      6.967232   771A      7.011811  
     772A      7.060396   773A      7.082958   774A      7.130209  
     775A     17.951050   776A     18.104420   777A     18.328227  
     778A     18.540862   779A     18.654699   780A     19.190817  
     781A     19.634268   782A     19.852058  

    Final Occupation by Irrep:
              A 
    DOCC [    33 ]

  Energy converged.

  @DF-RHF Final Energy:  -313.53884478909276

   => Energetics <=

    Nuclear Repulsion Energy =            392.5010908070846654
    One-Electron Energy =               -1200.1558457369785629
    Two-Electron Energy =                 494.1159101408011338
    DFT Exchange-Correlation Energy =       0.0000000000000000
    Empirical Dispersion Energy =           0.0000000000000000
    PCM Polarization Energy =               0.0000000000000000
    EFP Energy =                            0.0000000000000000
    Total Energy =                       -313.5388447890927637


  Saving occupied orbitals to File 180.

*** tstop() called on wr38 at Wed Sep 21 08:43:07 2016
Module time:
	user time   =     973.98 seconds =      16.23 minutes
	system time =      11.32 seconds =       0.19 minutes
	total time  =         90 seconds =       1.50 minutes
Total time:
	user time   =     973.98 seconds =      16.23 minutes
	system time =      11.32 seconds =       0.19 minutes
	total time  =         90 seconds =       1.50 minutes


Properties will be evaluated at   0.000000,   0.000000,   0.000000 Bohr

Properties computed using the SCF density matrix

  Nuclear Dipole Moment: (a.u.)
     X:     0.8367      Y:     1.1615      Z:     0.4610

  Electronic Dipole Moment: (a.u.)
     X:    -0.8718      Y:    -1.2040      Z:    -0.4618

  Dipole Moment: (a.u.)
     X:    -0.0351      Y:    -0.0424      Z:    -0.0007     Total:     0.0550

  Dipole Moment: (Debye)
     X:    -0.0891      Y:    -0.1078      Z:    -0.0019     Total:     0.1399


  //>>>>>>>>>>>>>>>>>>>>>>>>>>>>>>>>>>>//
  //               DFMP2               //
  //<<<<<<<<<<<<<<<<<<<<<<<<<<<<<<<<<<<//


*** tstart() called on wr38
*** at Wed Sep 21 08:43:07 2016


*** tstop() called on wr38 at Wed Sep 21 08:43:07 2016
Module time:
	user time   =       3.36 seconds =       0.06 minutes
	system time =       0.13 seconds =       0.00 minutes
	total time  =          0 seconds =       0.00 minutes
Total time:
	user time   =     978.82 seconds =      16.31 minutes
	system time =      11.45 seconds =       0.19 minutes
	total time  =         90 seconds =       1.50 minutes
	 --------------------------------------------------------
	                          DF-MP2                         
	      2nd-Order Density-Fitted Moller-Plesset Theory     
	              RMP2 Wavefunction,  12 Threads             
	                                                         
	        Rob Parrish, Justin Turney, Andy Simmonett,      
	           Ed Hohenstein, and C. David Sherrill          
	 --------------------------------------------------------

   => Auxiliary Basis Set <=

  Basis Set: 
    Number of shells: 476
    Number of basis function: 1676
    Number of Cartesian functions: 2078
    Spherical Harmonics?: true
    Max angular momentum: 4

	 --------------------------------------------------------
	                 NBF =   782, NAUX =  1676
	 --------------------------------------------------------
	   CLASS    FOCC     OCC    AOCC    AVIR     VIR    FVIR
	   PAIRS       8      33      25     749     749       0
	 --------------------------------------------------------

DGAS Warning! /src/lib/libfock/apps.cc:80 is not currently checking restricted

         ------------------------------------------------------------
                                     CPHF                           
                                  Rob Parrish                       
         ------------------------------------------------------------

  ==> Geometry <==

    Molecular point group: c1
    Full point group: C1

    Geometry (in Angstrom), charge = 0, multiplicity = 1:

       Center              X                  Y                   Z               Mass       
    ------------   -----------------  -----------------  -----------------  -----------------
           C         -2.855868149552     1.304386614665     0.149236491088    12.000000000000
           H         -2.875508184672     1.499221045747    -0.924125389556     1.007825032070
           H         -1.914204282030     1.687998379900     0.542158809582     1.007825032070
           H         -3.661594597391     1.877043100015     0.608485632830     1.007825032070
           C          3.926799888161     0.140110293159     0.425993059553    12.000000000000
           H          4.644994786734    -0.653236951948     0.631668539959     1.007825032070
           H          3.835457801462     0.750851906921     1.325184397667     1.007825032070
           H          4.339033013991     0.770989040134    -0.362476992529     1.007825032070
           C         -3.014418983312    -0.184413054584     0.436163057729    12.000000000000
           H         -4.003362413261    -0.510668894365     0.105663420925     1.007825032070
           H         -2.980463625044    -0.347654589714     1.516956000754     1.007825032070
           C          2.570180069145    -0.420196684375     0.016170282850    12.000000000000
           H          2.680167690583    -1.040526687473    -0.878171049549     1.007825032070
           H          2.195169046609    -1.074799704124     0.805167423596     1.007825032070
           C         -1.955071149867    -1.068218668577    -0.222002915982    12.000000000000
           H         -2.037204752083    -0.984335193396    -1.310471309668     1.007825032070
           H         -2.181364272791    -2.108017635866     0.023004249066     1.007825032070
           C         -0.516764700889    -0.736261367001     0.201775798806    12.000000000000
           H          0.053183262033    -1.660162254537     0.312801614400     1.007825032070
           H         -0.529307823934    -0.265576261519     1.191640953227     1.007825032070
           C          0.213132855852     0.176822098081    -0.782138197842    12.000000000000
           H          0.366979926627    -0.369991693025    -1.718228040844     1.007825032070
           H         -0.422451593386     1.029693856941    -1.027481718813     1.007825032070
           C          1.557052519213     0.683711081470    -0.266501202987    12.000000000000
           H          1.986823678599     1.374093487434    -0.998421013922     1.007825032070
           H          1.396160249904     1.264099916790     0.648439681004     1.007825032070

  Nuclear repulsion =  392.501090807084665
  Reference energy  = -313.538844789092764

  ==> Basis Set <==

  Basis Set: AUG-CC-PVTZ
    Number of shells: 274
    Number of basis function: 782
    Number of Cartesian functions: 890
    Spherical Harmonics?: true
    Max angular momentum: 3

  ==> CGRSolver (by Rob Parrish) <==

   Number of roots    =         1
   Preconditioning    =    JACOBI
   Convergence cutoff =     1E-06
   Maximum iterations =       100

  ==> CPHFRHamiltonian (by Rob Parrish) <== 

  ==> DFJK: Density-Fitted J/K Matrices <==

    J tasked:                  Yes
    K tasked:                  Yes
    wK tasked:                  No
    OpenMP threads:             12
    Integrals threads:          12
    Memory (MB):             42915
    Algorithm:                Core
    Integral Cache:           NONE
    Schwarz Cutoff:          1E-12
    Fitting Condition:       1E-12

   => Auxiliary Basis Set <=

  Basis Set: 
    Number of shells: 492
    Number of basis function: 1660
    Number of Cartesian functions: 2038
    Spherical Harmonics?: true
    Max angular momentum: 4

  ==> CPHF Iterations <==

  => Iterations <=

             Iter  Converged  Remaining    Residual
  CGR           1          0          1   9.079E-02
  CGR           2          0          1   1.293E-02
  CGR           3          0          1   3.495E-03
  CGR           4          0          1   8.279E-04
  CGR           5          0          1   1.982E-04
  CGR           6          0          1   4.748E-05
  CGR           7          0          1   1.333E-05
  CGR           8          0          1   3.219E-06
  CGR           9          1          0   8.276E-07

    CGRSolver converged.

  ==> DFCorrGrad: Density-Fitted Correlated Gradients <==

    OpenMP threads:             12
    Integrals threads:          12
    Memory (MB):             42915
    Schwarz Cutoff:          0E+00
    Fitting Condition:       1E-12

   => Auxiliary Basis Set <=

  Basis Set: 
    Number of shells: 492
    Number of basis function: 1660
    Number of Cartesian functions: 2038
    Spherical Harmonics?: true
    Max angular momentum: 4

	-----------------------------------------------------------
	 ==================> DF-MP2 Energies <==================== 
	-----------------------------------------------------------
	 Reference Energy          =    -313.5388447890927637 [Eh]
	 Singles Energy            =      -0.0000000000000000 [Eh]
	 Same-Spin Energy          =      -0.3162132730915830 [Eh]
	 Opposite-Spin Energy      =      -1.1255128470596905 [Eh]
	 Correlation Energy        =      -1.4417261201512734 [Eh]
	 Total Energy              =    -314.9805709092440225 [Eh]
	-----------------------------------------------------------
	 ================> DF-SCS-MP2 Energies <================== 
	-----------------------------------------------------------
	 SCS Same-Spin Scale       =       0.3333333333333333 [-]
	 SCS Opposite-Spin Scale   =       1.2000000000000000 [-]
	 SCS Same-Spin Energy      =      -0.1054044243638610 [Eh]
	 SCS Opposite-Spin Energy  =      -1.3506154164716284 [Eh]
	 SCS Correlation Energy    =      -1.4560198408354894 [Eh]
	 SCS Total Energy          =    -314.9948646299282586 [Eh]
	-----------------------------------------------------------


  -Total Gradient:
     Atom            X                  Y                   Z
    ------   -----------------  -----------------  -----------------
       1       -0.000000132987    -0.000000268271    -0.000000063759
       2        0.000000008317     0.000000044676    -0.000000036443
       3        0.000000116510     0.000000068542     0.000000063319
       4        0.000000013130     0.000000024706     0.000000029876
       5       -0.000000324019    -0.000000133908    -0.000000148306
       6        0.000000134382    -0.000000160323     0.000000023289
       7        0.000000012358     0.000000149701     0.000000203457
       8        0.000000108075     0.000000172693    -0.000000156156
       9       -0.000000573244    -0.000000136327     0.000000014665
      10        0.000000219771     0.000000048295     0.000000073490
      11        0.000000109173     0.000000037579    -0.000000058497
      12        0.000000055084     0.000000489181     0.000000150733
      13        0.000000099009    -0.000000196857    -0.000000217530
      14       -0.000000029525    -0.000000247888     0.000000145321
      15       -0.000000741404    -0.000000278928     0.000000045116
      16        0.000000019280    -0.000000020857    -0.000000093588
      17        0.000000174393     0.000000041191     0.000000003168
      18       -0.000000196774     0.000000189486    -0.000000565648
      19        0.000000315810    -0.000000395972    -0.000000061961
      20       -0.000000012725     0.000000265149     0.000000724035
      21        0.000000774555    -0.000000084805     0.000000645356
      22        0.000000084928    -0.000000240466    -0.000000482526
      23       -0.000000501907     0.000000582771    -0.000000340899
      24       -0.000000048647    -0.000000571225    -0.000000105445
      25        0.000000274359     0.000000257126    -0.000000315725
      26        0.000000042097     0.000000364731     0.000000524658


			-----------------------------------------
			 OPTKING 2.0: for geometry optimizations 
			  - R.A. King,  Bethel University        
			-----------------------------------------

	Internal coordinates to be generated automatically.
	Detected frag 1 with atoms:  1 2 3 4 5 6 7 8 9 10 11 12 13 14 15 16 17 18 19 20
	 21 22 23 24 25 26
	---Fragment 1 Bond Connectivity---
	 1 : 2 3 4 9
	 2 : 1
	 3 : 1
	 4 : 1
	 5 : 6 7 8 12
	 6 : 5
	 7 : 5
	 8 : 5
	 9 : 1 10 11 15
	 10 : 9
	 11 : 9
	 12 : 5 13 14 24
	 13 : 12
	 14 : 12
	 15 : 9 16 17 18
	 16 : 15
	 17 : 15
	 18 : 15 19 20 21
	 19 : 18
	 20 : 18
	 21 : 18 22 23 24
	 22 : 21
	 23 : 21
	 24 : 12 21 25 26
	 25 : 24
	 26 : 24

	---Fragment 1 Geometry and Gradient---
	 C          -5.3968086743        2.4649334731        0.2820160972
	 H          -5.4339229619        2.8331171891       -1.7463438987
	 H          -3.6173218554        3.1898546508        1.0245316706
	 H          -6.9194109987        3.5470973987        1.1498712018
	 C           7.4205763673        0.2647700825        0.8050102171
	 H           8.7777680356       -1.2344389391        1.1936805473
	 H           7.2479648390        1.4189044704        2.5042355872
	 H           8.1995840780        1.4569581373       -0.6849822454
	 C          -5.6964263282       -0.3484901685        0.8242287284
	 H          -7.5652585718       -0.9650243549        0.1996749278
	 H          -5.6322600004       -0.6569719634        2.8666313971
	 C           4.8569364429       -0.7940566554        0.0305574061
	 H           5.0647829254       -1.9663104733       -1.6595027815
	 H           4.1482683135       -2.0310770885        1.5215459217
	 C          -3.6945490436       -2.0186407336       -0.4195247119
	 H          -3.8497590580       -1.8601239385       -2.4764318803
	 H          -4.1221810716       -3.9835760151        0.0434717306
	 C          -0.9765437598       -1.3913323459        0.3813010000
	 H           0.1005018001       -3.1372519972        0.5911093851
	 H          -1.0002468272       -0.5018664017        2.2518750503
	 C           0.4027627275        0.3341453396       -1.4780269920
	 H           0.6934915576       -0.6991829713       -3.2469804310
	 H          -0.7983178159        1.9458393903       -1.9416590551
	 C           2.9424028358        1.2920266980       -0.5036142877
	 H           3.7545526269        2.5966603722       -1.8867422816
	 H           2.6383605099        2.3888026473        1.2253734108
	            -0.0000001330       -0.0000002683       -0.0000000638
	             0.0000000083        0.0000000447       -0.0000000364
	             0.0000001165        0.0000000685        0.0000000633
	             0.0000000131        0.0000000247        0.0000000299
	            -0.0000003240       -0.0000001339       -0.0000001483
	             0.0000001344       -0.0000001603        0.0000000233
	             0.0000000124        0.0000001497        0.0000002035
	             0.0000001081        0.0000001727       -0.0000001562
	            -0.0000005732       -0.0000001363        0.0000000147
	             0.0000002198        0.0000000483        0.0000000735
	             0.0000001092        0.0000000376       -0.0000000585
	             0.0000000551        0.0000004892        0.0000001507
	             0.0000000990       -0.0000001969       -0.0000002175
	            -0.0000000295       -0.0000002479        0.0000001453
	            -0.0000007414       -0.0000002789        0.0000000451
	             0.0000000193       -0.0000000209       -0.0000000936
	             0.0000001744        0.0000000412        0.0000000032
	            -0.0000001968        0.0000001895       -0.0000005656
	             0.0000003158       -0.0000003960       -0.0000000620
	            -0.0000000127        0.0000002651        0.0000007240
	             0.0000007746       -0.0000000848        0.0000006454
	             0.0000000849       -0.0000002405       -0.0000004825
	            -0.0000005019        0.0000005828       -0.0000003409
	            -0.0000000486       -0.0000005712       -0.0000001054
	             0.0000002744        0.0000002571       -0.0000003157
	             0.0000000421        0.0000003647        0.0000005247

	Previous optimization step data not found.  Starting new optimization.

	---Fragment 1 Intrafragment Coordinates---
	 - Coordinate -           - BOHR/RAD -       - ANG/DEG -
	 R(1,2)           =         2.061839	       1.091078
	 R(1,3)           =         2.059955	       1.090081
	 R(1,4)           =         2.059750	       1.089973
	 R(1,9)           =         2.880819	       1.524464
	 R(5,6)           =         2.059287	       1.089728
	 R(5,7)           =         2.061356	       1.090823
	 R(5,8)           =         2.061127	       1.090701
	 R(5,12)          =         2.879781	       1.523915
	 R(9,10)          =         2.064635	       1.092558
	 R(9,11)          =         2.066564	       1.093579
	 R(9,15)          =         2.888570	       1.528566
	 R(12,13)         =         2.067289	       1.093962
	 R(12,14)         =         2.062881	       1.091629
	 R(12,24)         =         2.881410	       1.524776
	 R(15,16)         =         2.068837	       1.094781
	 R(15,17)         =         2.063542	       1.091979
	 R(15,18)         =         2.902135	       1.535744
	 R(18,19)         =         2.062106	       1.091220
	 R(18,20)         =         2.071415	       1.096145
	 R(18,21)         =         2.887362	       1.527926
	 R(21,22)         =         2.069175	       1.094960
	 R(21,23)         =         2.062791	       1.091582
	 R(21,24)         =         2.883884	       1.526086
	 R(24,25)         =         2.067535	       1.094092
	 R(24,26)         =         2.069966	       1.095379
	 B(1,9,10)        =         1.905868	     109.198168
	 B(1,9,11)        =         1.905581	     109.181733
	 B(1,9,15)        =         1.994947	     114.302033
	 B(2,1,3)         =         1.883159	     107.897090
	 B(2,1,4)         =         1.883228	     107.901030
	 B(2,1,9)         =         1.936578	     110.957750
	 B(3,1,4)         =         1.877385	     107.566265
	 B(3,1,9)         =         1.945159	     111.449429
	 B(4,1,9)         =         1.935755	     110.910596
	 B(5,12,13)       =         1.916482	     109.806344
	 B(5,12,14)       =         1.909142	     109.385772
	 B(5,12,24)       =         1.955372	     112.034580
	 B(6,5,7)         =         1.883065	     107.891661
	 B(6,5,8)         =         1.884357	     107.965723
	 B(6,5,12)        =         1.949578	     111.702573
	 B(7,5,8)         =         1.879375	     107.680234
	 B(7,5,12)        =         1.931570	     110.670782
	 B(8,5,12)        =         1.933413	     110.776420
	 B(9,15,16)       =         1.909007	     109.378033
	 B(9,15,17)       =         1.886343	     108.079501
	 B(9,15,18)       =         1.988070	     113.908021
	 B(10,9,11)       =         1.857189	     106.409109
	 B(10,9,15)       =         1.901175	     108.929295
	 B(11,9,15)       =         1.894116	     108.524878
	 B(12,24,21)      =         1.990291	     114.035249
	 B(12,24,25)      =         1.896374	     108.654213
	 B(12,24,26)      =         1.903236	     109.047393
	 B(13,12,14)      =         1.860206	     106.581979
	 B(13,12,24)      =         1.902631	     109.012739
	 B(14,12,24)      =         1.917577	     109.869096
	 B(15,18,19)      =         1.911585	     109.525743
	 B(15,18,20)      =         1.908465	     109.346988
	 B(15,18,21)      =         1.981085	     113.507807
	 B(16,15,17)      =         1.855100	     106.289376
	 B(16,15,18)      =         1.905038	     109.150665
	 B(17,15,18)      =         1.915583	     109.754803
	 B(18,21,22)      =         1.895688	     108.614922
	 B(18,21,23)      =         1.910809	     109.481286
	 B(18,21,24)      =         1.984052	     113.677804
	 B(19,18,20)      =         1.852150	     106.120385
	 B(19,18,21)      =         1.898614	     108.782586
	 B(20,18,21)      =         1.907498	     109.291568
	 B(21,24,25)      =         1.906546	     109.237017
	 B(21,24,26)      =         1.905897	     109.199875
	 B(22,21,23)      =         1.854429	     106.250932
	 B(22,21,24)      =         1.908157	     109.329342
	 B(23,21,24)      =         1.906236	     109.219287
	 B(25,24,26)      =         1.856812	     106.387502
	 D(1,9,15,16)     =        -1.099056	     -62.971254
	 D(1,9,15,17)     =        -3.111685	    -178.286438
	 D(1,9,15,18)     =         1.037805	      59.461827
	 D(2,1,9,10)      =        -1.127616	     -64.607622
	 D(2,1,9,11)      =         3.131573	     179.425915
	 D(2,1,9,15)      =         1.006666	      57.677709
	 D(3,1,9,10)      =         3.056491	     175.124006
	 D(3,1,9,11)      =         1.032494	      59.157543
	 D(3,1,9,15)      =        -1.092413	     -62.590663
	 D(4,1,9,10)      =         0.965275	      55.306211
	 D(4,1,9,11)      =        -1.058721	     -60.660252
	 D(4,1,9,15)      =         3.099557	     177.591542
	 D(5,12,24,21)    =         3.065576	     175.644592
	 D(5,12,24,25)    =         0.934631	      53.550392
	 D(5,12,24,26)    =        -1.082407	     -62.017330
	 D(6,5,12,13)     =        -1.029924	     -59.010297
	 D(6,5,12,14)     =         1.005723	      57.623681
	 D(6,5,12,24)     =         3.136423	     179.703810
	 D(7,5,12,13)     =        -3.128443	    -179.246582
	 D(7,5,12,14)     =        -1.092796	     -62.612604
	 D(7,5,12,24)     =         1.037904	      59.467526
	 D(8,5,12,13)     =         1.071493	      61.392002
	 D(8,5,12,14)     =         3.107139	     178.025980
	 D(8,5,12,24)     =        -1.045346	     -59.893891
	 D(9,15,18,19)    =         2.465802	     141.280051
	 D(9,15,18,20)    =         0.443029	      25.383705
	 D(9,15,18,21)    =        -1.691761	     -96.930740
	 D(10,9,15,16)    =         1.037785	      59.460722
	 D(10,9,15,17)    =        -0.974844	     -55.854463
	 D(10,9,15,18)    =        -3.108540	    -178.106197
	 D(11,9,15,16)    =         3.052940	     174.920589
	 D(11,9,15,17)    =         1.040311	      59.605404
	 D(11,9,15,18)    =        -1.093385	     -62.646330
	 D(12,24,21,18)   =         1.074619	      61.571153
	 D(12,24,21,22)   =        -1.046759	     -59.974878
	 D(12,24,21,23)   =        -3.069092	    -175.846045
	 D(13,12,24,21)   =         0.940779	      53.902644
	 D(13,12,24,25)   =        -1.190167	     -68.191556
	 D(13,12,24,26)   =         3.075981	     176.240722
	 D(14,12,24,21)   =        -1.091734	     -62.551745
	 D(14,12,24,25)   =         3.060506	     175.354056
	 D(14,12,24,26)   =         1.043468	      59.786334
	 D(15,18,21,22)   =        -1.169338	     -66.998110
	 D(15,18,21,23)   =         0.848587	      48.620440
	 D(15,18,21,24)   =         2.985541	     171.058875
	 D(16,15,18,19)   =        -1.678345	     -96.162112
	 D(16,15,18,20)   =         2.582067	     147.941542
	 D(16,15,18,21)   =         0.447277	      25.627098
	 D(17,15,18,19)   =         0.348277	      19.954777
	 D(17,15,18,20)   =        -1.674496	     -95.941568
	 D(17,15,18,21)   =         2.473899	     141.743987
	 D(18,21,24,25)   =        -3.083222	    -176.655633
	 D(18,21,24,26)   =        -1.059123	     -60.683278
	 D(19,18,21,22)   =         0.963496	      55.204263
	 D(19,18,21,23)   =         2.981421	     170.822813
	 D(19,18,21,24)   =        -1.164811	     -66.738752
	 D(20,18,21,22)   =         2.978522	     170.656748
	 D(20,18,21,23)   =        -1.286739	     -73.724702
	 D(20,18,21,24)   =         0.850215	      48.713733
	 D(22,21,24,25)   =         1.078584	      61.798335
	 D(22,21,24,26)   =         3.102684	     177.770691
	 D(23,21,24,25)   =        -0.943749	     -54.072832
	 D(23,21,24,26)   =         1.080350	      61.899524
	 R(1,21)          =         6.424410	       3.399651

	Current energy   :      -314.9805709092

	Generating empirical Hessian (Schlegel '84) for each fragment.
	Taking RFO optimization step.
	Going to follow RFO solution 1.
	Using RFO vector 1.
	Norm of target step-size    0.00011
	Projected energy change by RFO approximation:         0.0000000002

	Back-transformation to cartesian coordinates...
	Successfully converged to displaced geometry.

	--- Internal Coordinate Step in ANG or DEG, aJ/ANG or AJ/DEG ---
	 ---------------------------------------------------------------------------
	   Coordinate                Previous        Force       Change         New 
	   ----------                --------       ------       ------       ------
	    1 R(1,2)          =      1.091078    -0.000000    -0.000000     1.091078
	    2 R(1,3)          =      1.090081    -0.000001    -0.000000     1.090081
	    3 R(1,4)          =      1.089973    -0.000000    -0.000000     1.089973
	    4 R(1,9)          =      1.524464     0.000001     0.000000     1.524464
	    5 R(5,6)          =      1.089728    -0.000002    -0.000000     1.089727
	    6 R(5,7)          =      1.090823    -0.000002    -0.000000     1.090822
	    7 R(5,8)          =      1.090701    -0.000002    -0.000000     1.090701
	    8 R(5,12)         =      1.523915     0.000001     0.000000     1.523915
	    9 R(9,10)         =      1.092558     0.000002     0.000000     1.092558
	   10 R(9,11)         =      1.093579     0.000000     0.000000     1.093579
	   11 R(9,15)         =      1.528566     0.000001    -0.000000     1.528565
	   12 R(12,13)        =      1.093962    -0.000003    -0.000000     1.093962
	   13 R(12,14)        =      1.091629    -0.000002    -0.000000     1.091629
	   14 R(12,24)        =      1.524776    -0.000000    -0.000000     1.524776
	   15 R(15,16)        =      1.094781    -0.000001    -0.000000     1.094781
	   16 R(15,17)        =      1.091979     0.000001     0.000000     1.091980
	   17 R(15,18)        =      1.535744    -0.000005    -0.000001     1.535743
	   18 R(18,19)        =      1.091220    -0.000004    -0.000001     1.091219
	   19 R(18,20)        =      1.096145    -0.000006    -0.000001     1.096144
	   20 R(18,21)        =      1.527926    -0.000004    -0.000001     1.527925
	   21 R(21,22)        =      1.094960    -0.000005    -0.000001     1.094960
	   22 R(21,23)        =      1.091582    -0.000007    -0.000001     1.091581
	   23 R(21,24)        =      1.526086    -0.000003    -0.000001     1.526085
	   24 R(24,25)        =      1.094092    -0.000004    -0.000001     1.094091
	   25 R(24,26)        =      1.095379    -0.000005    -0.000001     1.095378
	   26 B(1,9,10)       =    109.198168    -0.000000    -0.000039   109.198129
	   27 B(1,9,11)       =    109.181733    -0.000000     0.000025   109.181758
	   28 B(1,9,15)       =    114.302033     0.000000     0.000068   114.302102
	   29 B(2,1,3)        =    107.897090     0.000000     0.000012   107.897103
	   30 B(2,1,4)        =    107.901030     0.000000    -0.000000   107.901030
	   31 B(2,1,9)        =    110.957750    -0.000000    -0.000028   110.957722
	   32 B(3,1,4)        =    107.566265     0.000000     0.000027   107.566292
	   33 B(3,1,9)        =    111.449429    -0.000000     0.000003   111.449432
	   34 B(4,1,9)        =    110.910596    -0.000000    -0.000012   110.910584
	   35 B(5,12,13)      =    109.806344     0.000000     0.000067   109.806410
	   36 B(5,12,14)      =    109.385772     0.000000    -0.000022   109.385749
	   37 B(5,12,24)      =    112.034580    -0.000000    -0.000010   112.034570
	   38 B(6,5,7)        =    107.891661     0.000000     0.000001   107.891662
	   39 B(6,5,8)        =    107.965723     0.000000     0.000007   107.965730
	   40 B(6,5,12)       =    111.702573     0.000000     0.000022   111.702596
	   41 B(7,5,8)        =    107.680234     0.000000     0.000006   107.680240
	   42 B(7,5,12)       =    110.670782    -0.000000    -0.000024   110.670758
	   43 B(8,5,12)       =    110.776420    -0.000000    -0.000011   110.776409
	   44 B(9,15,16)      =    109.378033     0.000000    -0.000035   109.377999
	   45 B(9,15,17)      =    108.079501    -0.000000    -0.000013   108.079489
	   46 B(9,15,18)      =    113.908021     0.000000    -0.000047   113.907974
	   47 B(10,9,11)      =    106.409109     0.000000    -0.000047   106.409062
	   48 B(10,9,15)      =    108.929295    -0.000000    -0.000047   108.929249
	   49 B(11,9,15)      =    108.524878    -0.000000     0.000031   108.524910
	   50 B(12,24,21)     =    114.035249     0.000000     0.000008   114.035257
	   51 B(12,24,25)     =    108.654213     0.000000     0.000096   108.654308
	   52 B(12,24,26)     =    109.047393     0.000000    -0.000013   109.047379
	   53 B(13,12,14)     =    106.581979     0.000000     0.000040   106.582019
	   54 B(13,12,24)     =    109.012739    -0.000000     0.000001   109.012740
	   55 B(14,12,24)     =    109.869096    -0.000000    -0.000072   109.869023
	   56 B(15,18,19)     =    109.525743     0.000000     0.000123   109.525866
	   57 B(15,18,20)     =    109.346988     0.000000    -0.000034   109.346954
	   58 B(15,18,21)     =    113.507807    -0.000000    -0.000226   113.507581
	   59 B(16,15,17)     =    106.289376     0.000000     0.000002   106.289377
	   60 B(16,15,18)     =    109.150665    -0.000000    -0.000025   109.150640
	   61 B(17,15,18)     =    109.754803     0.000000     0.000121   109.754924
	   62 B(18,21,22)     =    108.614922     0.000000     0.000070   108.614992
	   63 B(18,21,23)     =    109.481286     0.000000    -0.000075   109.481211
	   64 B(18,21,24)     =    113.677804    -0.000000    -0.000047   113.677757
	   65 B(19,18,20)     =    106.120385    -0.000000     0.000034   106.120419
	   66 B(19,18,21)     =    108.782586     0.000000     0.000165   108.782751
	   67 B(20,18,21)     =    109.291568     0.000000    -0.000045   109.291523
	   68 B(21,24,25)     =    109.237017    -0.000000     0.000019   109.237036
	   69 B(21,24,26)     =    109.199875    -0.000000    -0.000116   109.199759
	   70 B(22,21,23)     =    106.250932     0.000000     0.000067   106.250999
	   71 B(22,21,24)     =    109.329342     0.000000     0.000110   109.329452
	   72 B(23,21,24)     =    109.219287    -0.000000    -0.000116   109.219171
	   73 B(25,24,26)     =    106.387502     0.000000     0.000007   106.387509
	   74 D(1,9,15,16)    =    -62.971254     0.000000    -0.000791   -62.972045
	   75 D(1,9,15,17)    =   -178.286438     0.000000    -0.000768  -178.287206
	   76 D(1,9,15,18)    =     59.461827    -0.000000    -0.000883    59.460944
	   77 D(2,1,9,10)     =    -64.607622    -0.000000    -0.000118   -64.607740
	   78 D(2,1,9,11)     =    179.425915     0.000000    -0.000054   179.425861
	   79 D(2,1,9,15)     =     57.677709    -0.000000    -0.000160    57.677549
	   80 D(3,1,9,10)     =    175.124006    -0.000000    -0.000117   175.123889
	   81 D(3,1,9,11)     =     59.157543     0.000000    -0.000053    59.157490
	   82 D(3,1,9,15)     =    -62.590663    -0.000000    -0.000159   -62.590822
	   83 D(4,1,9,10)     =     55.306211    -0.000000    -0.000144    55.306067
	   84 D(4,1,9,11)     =    -60.660252     0.000000    -0.000081   -60.660333
	   85 D(4,1,9,15)     =    177.591542    -0.000000    -0.000187   177.591355
	   86 D(5,12,24,21)   =    175.644592     0.000000     0.000424   175.645016
	   87 D(5,12,24,25)   =     53.550392     0.000000     0.000323    53.550715
	   88 D(5,12,24,26)   =    -62.017330    -0.000000     0.000270   -62.017060
	   89 D(6,5,12,13)    =    -59.010297    -0.000000    -0.000168   -59.010465
	   90 D(6,5,12,14)    =     57.623681     0.000000    -0.000094    57.623586
	   91 D(6,5,12,24)    =    179.703810    -0.000000    -0.000208   179.703602
	   92 D(7,5,12,13)    =   -179.246582    -0.000000    -0.000167  -179.246749
	   93 D(7,5,12,14)    =    -62.612604     0.000000    -0.000093   -62.612697
	   94 D(7,5,12,24)    =     59.467526    -0.000000    -0.000207    59.467319
	   95 D(8,5,12,13)    =     61.392002    -0.000000    -0.000152    61.391850
	   96 D(8,5,12,14)    =    178.025980     0.000000    -0.000078   178.025902
	   97 D(8,5,12,24)    =    -59.893891    -0.000000    -0.000192   -59.894083
	   98 D(9,15,18,19)   =    141.280051    -0.000000    -0.000574   141.279476
	   99 D(9,15,18,20)   =     25.383705    -0.000000    -0.000665    25.383040
	  100 D(9,15,18,21)   =    -96.930740    -0.000000    -0.000426   -96.931166
	  101 D(10,9,15,16)   =     59.460722     0.000000    -0.000829    59.459892
	  102 D(10,9,15,17)   =    -55.854463     0.000000    -0.000806   -55.855269
	  103 D(10,9,15,18)   =   -178.106197    -0.000000    -0.000921  -178.107118
	  104 D(11,9,15,16)   =    174.920589    -0.000000    -0.000893   174.919696
	  105 D(11,9,15,17)   =     59.605404    -0.000000    -0.000869    59.604535
	  106 D(11,9,15,18)   =    -62.646330    -0.000000    -0.000984   -62.647314
	  107 D(12,24,21,18)  =     61.571153     0.000000    -0.000095    61.571058
	  108 D(12,24,21,22)  =    -59.974878    -0.000000    -0.000234   -59.975113
	  109 D(12,24,21,23)  =   -175.846045    -0.000000    -0.000311  -175.846356
	  110 D(13,12,24,21)  =     53.902644     0.000000     0.000346    53.902990
	  111 D(13,12,24,25)  =    -68.191556    -0.000000     0.000245   -68.191311
	  112 D(13,12,24,26)  =    176.240722    -0.000000     0.000192   176.240914
	  113 D(14,12,24,21)  =    -62.551745     0.000000     0.000338   -62.551406
	  114 D(14,12,24,25)  =    175.354056     0.000000     0.000238   175.354293
	  115 D(14,12,24,26)  =     59.786334    -0.000000     0.000184    59.786518
	  116 D(15,18,21,22)  =    -66.998110    -0.000000    -0.001742   -66.999852
	  117 D(15,18,21,23)  =     48.620440    -0.000000    -0.001664    48.618776
	  118 D(15,18,21,24)  =    171.058875    -0.000000    -0.001903   171.056972
	  119 D(16,15,18,19)  =    -96.162112    -0.000000    -0.000671   -96.162783
	  120 D(16,15,18,20)  =    147.941542    -0.000000    -0.000762   147.940780
	  121 D(16,15,18,21)  =     25.627098     0.000000    -0.000523    25.626575
	  122 D(17,15,18,19)  =     19.954777     0.000000    -0.000615    19.954162
	  123 D(17,15,18,20)  =    -95.941568    -0.000000    -0.000706   -95.942275
	  124 D(17,15,18,21)  =    141.743987     0.000000    -0.000467   141.743520
	  125 D(18,21,24,25)  =   -176.655633     0.000000     0.000048  -176.655585
	  126 D(18,21,24,26)  =    -60.683278     0.000000     0.000003   -60.683275
	  127 D(19,18,21,22)  =     55.204263    -0.000000    -0.001617    55.202646
	  128 D(19,18,21,23)  =    170.822813     0.000000    -0.001539   170.821274
	  129 D(19,18,21,24)  =    -66.738752    -0.000000    -0.001777   -66.740529
	  130 D(20,18,21,22)  =    170.656748     0.000000    -0.001510   170.655238
	  131 D(20,18,21,23)  =    -73.724702     0.000000    -0.001432   -73.726134
	  132 D(20,18,21,24)  =     48.713733    -0.000000    -0.001670    48.712063
	  133 D(22,21,24,25)  =     61.798335     0.000000    -0.000091    61.798245
	  134 D(22,21,24,26)  =    177.770691    -0.000000    -0.000136   177.770555
	  135 D(23,21,24,25)  =    -54.072832    -0.000000    -0.000168   -54.072999
	  136 D(23,21,24,26)  =     61.899524    -0.000000    -0.000213    61.899311
	  137 R(1,21)         =      3.399651    -0.000002    -0.000003     3.399648
	 ---------------------------------------------------------------------------

  ==> Convergence Check <==

  Measures of convergence in internal coordinates in au.
  Criteria marked as inactive (o), active & met (*), and active & unmet ( ).
  --------------------------------------------------------------------------------------------- ~
   Step     Total Energy     Delta E     MAX Force     RMS Force      MAX Disp      RMS Disp    ~
  --------------------------------------------------------------------------------------------- ~
    Convergence Criteria             o    2.00e-06 *    1.00e-06 *    6.00e-06 *    4.00e-06 *  ~
  --------------------------------------------------------------------------------------------- ~
      1    -314.98057091   -3.15e+02 o    8.21e-07 *    1.89e-07 *    3.32e-05      9.02e-06    ~
  ---------------------------------------------------------------------------------------------

	Writing optimization data to binary file.
	Structure for next step:
	Cartesian Geometry (in Angstrom)
	    C    -2.8558328290   1.3043961264   0.1492701884
	    H    -2.8754674769   1.4992499134  -0.9240882016
	    H    -1.9141633939   1.6879846146   0.5422012312
	    H    -3.6615507301   1.8770577537   0.6085278505
	    C     3.9267824087   0.1401356964   0.4260132276
	    H     4.6449816136  -0.6532005719   0.6317142384
	    H     3.8354184689   0.7508910298   1.3251925854
	    H     4.3390224681   0.7710053751  -0.3624599314
	    C    -3.0144096743  -0.1844062004   0.4361693581
	    H    -4.0033592999  -0.5106381019   0.1056634105
	    H    -2.9804583224  -0.3476685829   1.5169593688
	    C     2.5701749713  -0.4201914237   0.0161763784
	    H     2.6801822663  -1.0405327318  -0.8781541170
	    H     2.1951580535  -1.0747860268   0.8051771276
	    C    -1.9550787477  -1.0682197105  -0.2220129954
	    H    -2.0372211798  -0.9843258167  -1.3104797892
	    H    -2.1813833386  -2.1080179125   0.0229873641
	    C    -0.5167660199  -0.7362819803   0.2017547037
	    H     0.0531712044  -1.6601887580   0.3127792802
	    H    -0.5292964956  -0.2655934895   1.1916170809
	    C     0.2131311018   0.1767914101  -0.7821675156
	    H     0.3669902533  -0.3700343577  -1.7182473875
	    H    -0.4224581927   1.0296533387  -1.0275270737
	    C     1.5570402581   0.6837017891  -0.2665258329
	    H     1.9868116206   1.3740763605  -0.9984518083
	    H     1.3961312729   1.2641034376   0.6484028400
			--------------------------
			 OPTKING Finished Execution 
			--------------------------

    Structure for next step:
    Molecular point group: c1
    Full point group: C1

    Geometry (in Angstrom), charge = 0, multiplicity = 1:

    C           -2.855832744318     1.304397532961     0.149272004793
    H           -2.875467392208     1.499251320003    -0.924086385274
    H           -1.914163309217     1.687986021214     0.542203047542
    H           -3.661550645356     1.877059160305     0.608529666848
    C            3.926782493410     0.140137102961     0.426015043992
    H            4.644981698325    -0.653199165305     0.631716054786
    H            3.835418553646     0.750892436397     1.325194401798
    H            4.339022552863     0.771006781657    -0.362458115022
    C           -3.014409589561    -0.184404793826     0.436171174441
    H           -4.003359215164    -0.510636695298     0.105665226910
    H           -2.980458237714    -0.347667176266     1.516961185139
    C            2.570175056022    -0.420190017091     0.016178194757
    H            2.680182351024    -1.040531325240    -0.878152300612
    H            2.195158138251    -1.074784620244     0.805178943994
    C           -1.955078662995    -1.068218303862    -0.222011178995
    H           -2.037221095074    -0.984324410113    -1.310477972852
    H           -2.181383253904    -2.108016505926     0.022989180472
    C           -0.516765935179    -0.736280573743     0.201756520074
    H            0.053171289077    -1.660187351405     0.312781096603
    H           -0.529296410853    -0.265592082919     1.191618897236
    C            0.213131186556     0.176792816655    -0.782165699246
    H            0.366990338013    -0.370032951112    -1.718245571114
    H           -0.422458107976     1.029654745259    -1.027525257331
    C            1.557040342851     0.683703195715    -0.266524016498
    H            1.986811705369     1.374077767121    -0.998449991964
    H            1.396131357613     1.264104844198     0.648404656329

gradient() will perform analytic gradient computation.

*** tstart() called on wr38
*** at Wed Sep 21 08:48:38 2016


         ---------------------------------------------------------
                                   SCF
            by Justin Turney, Rob Parrish, and Andy Simmonett
                              RHF Reference
                       12 Threads,  60000 MiB Core
         ---------------------------------------------------------

  ==> Geometry <==

    Molecular point group: c1
    Full point group: C1

    Geometry (in Angstrom), charge = 0, multiplicity = 1:

       Center              X                  Y                   Z               Mass       
    ------------   -----------------  -----------------  -----------------  -----------------
           C         -2.855832744318     1.304397532961     0.149272004793    12.000000000000
           H         -2.875467392208     1.499251320003    -0.924086385274     1.007825032070
           H         -1.914163309217     1.687986021214     0.542203047542     1.007825032070
           H         -3.661550645356     1.877059160305     0.608529666848     1.007825032070
           C          3.926782493410     0.140137102961     0.426015043992    12.000000000000
           H          4.644981698325    -0.653199165305     0.631716054786     1.007825032070
           H          3.835418553646     0.750892436397     1.325194401798     1.007825032070
           H          4.339022552863     0.771006781657    -0.362458115022     1.007825032070
           C         -3.014409589561    -0.184404793826     0.436171174441    12.000000000000
           H         -4.003359215164    -0.510636695298     0.105665226910     1.007825032070
           H         -2.980458237714    -0.347667176266     1.516961185139     1.007825032070
           C          2.570175056022    -0.420190017091     0.016178194757    12.000000000000
           H          2.680182351024    -1.040531325240    -0.878152300612     1.007825032070
           H          2.195158138251    -1.074784620244     0.805178943994     1.007825032070
           C         -1.955078662995    -1.068218303862    -0.222011178995    12.000000000000
           H         -2.037221095074    -0.984324410113    -1.310477972852     1.007825032070
           H         -2.181383253904    -2.108016505926     0.022989180472     1.007825032070
           C         -0.516765935179    -0.736280573743     0.201756520074    12.000000000000
           H          0.053171289077    -1.660187351405     0.312781096603     1.007825032070
           H         -0.529296410853    -0.265592082919     1.191618897236     1.007825032070
           C          0.213131186556     0.176792816655    -0.782165699246    12.000000000000
           H          0.366990338013    -0.370032951112    -1.718245571114     1.007825032070
           H         -0.422458107976     1.029654745259    -1.027525257331     1.007825032070
           C          1.557040342851     0.683703195715    -0.266524016498    12.000000000000
           H          1.986811705369     1.374077767121    -0.998449991964     1.007825032070
           H          1.396131357613     1.264104844198     0.648404656329     1.007825032070

  Running in c1 symmetry.

  Rotational constants: A =      0.15963  B =      0.02361  C =      0.02221 [cm^-1]
  Rotational constants: A =   4785.63699  B =    707.74396  C =    665.78868 [MHz]
  Nuclear repulsion =  392.501484227746118

  Charge       = 0
  Multiplicity = 1
  Electrons    = 66
  Nalpha       = 33
  Nbeta        = 33

  ==> Algorithm <==

  SCF Algorithm Type is DF.
  DIIS enabled.
  MOM disabled.
  Fractional occupation disabled.
  Guess Type is READ.
  Energy threshold   = 1.00e-10
  Density threshold  = 1.00e-10
  Integral threshold = 0.00e+00

  ==> Primary Basis <==

  Basis Set: AUG-CC-PVTZ
    Number of shells: 274
    Number of basis function: 782
    Number of Cartesian functions: 890
    Spherical Harmonics?: true
    Max angular momentum: 3

  ==> Pre-Iterations <==

   -------------------------------------------------------
    Irrep   Nso     Nmo     Nalpha   Nbeta   Ndocc  Nsocc
   -------------------------------------------------------
     A        782     782       0       0       0       0
   -------------------------------------------------------
    Total     782     782      33      33      33       0
   -------------------------------------------------------

  ==> Integral Setup <==

  ==> DFJK: Density-Fitted J/K Matrices <==

    J tasked:                  Yes
    K tasked:                  Yes
    wK tasked:                  No
    OpenMP threads:             12
    Integrals threads:          12
    Memory (MB):             42915
    Algorithm:                Core
    Integral Cache:           NONE
    Schwarz Cutoff:          1E-12
    Fitting Condition:       1E-12

   => Auxiliary Basis Set <=

  Basis Set: 
    Number of shells: 492
    Number of basis function: 1660
    Number of Cartesian functions: 2038
    Spherical Harmonics?: true
    Max angular momentum: 4

  Minimum eigenvalue in the overlap matrix is 1.7944703035E-06.
  Using Symmetric Orthogonalization.
  SCF Guess: Reading in previously saved MOs, projecting if necessary.

  Using orbitals from previous SCF, no projection.
  Recomputing DOCC and SOCC from number of alpha and beta electrons from previous calculation.
              A 
    DOCC [    33 ]

  ==> Iterations <==

                           Total Energy        Delta E     RMS |[F,P]|

   @DF-RHF iter   0:  -313.53885698601255   -3.13539e+02   8.81204e-08 
   @DF-RHF iter   1:  -313.53884478803639    1.21980e-05   1.63166e-08 
   @DF-RHF iter   2:  -313.53884478818725   -1.50862e-10   6.03827e-09 DIIS
   @DF-RHF iter   3:  -313.53884478820760   -2.03499e-11   2.69539e-09 DIIS
   @DF-RHF iter   4:  -313.53884478821089   -3.29692e-12   3.03189e-10 DIIS
   @DF-RHF iter   5:  -313.53884478821169   -7.95808e-13   8.76206e-11 DIIS

  ==> Post-Iterations <==

    Orbital Energies (a.u.)
    -----------------------

    Doubly Occupied:                                                      

       1A    -11.213275     2A    -11.211731     3A    -11.210480  
       4A    -11.210147     5A    -11.209612     6A    -11.208896  
       7A    -11.207112     8A    -11.206766     9A     -1.093403  
      10A     -1.060395    11A     -1.006657    12A     -0.949455  
      13A     -0.883501    14A     -0.829217    15A     -0.781729  
      16A     -0.765471    17A     -0.641931    18A     -0.632050  
      19A     -0.610674    20A     -0.591480    21A     -0.572277  
      22A     -0.558724    23A     -0.557312    24A     -0.527516  
      25A     -0.511342    26A     -0.502579    27A     -0.487996  
      28A     -0.477668    29A     -0.463224    30A     -0.460910  
      31A     -0.451592    32A     -0.435149    33A     -0.431743  

    Virtual:                                                              

      34A      0.030648    35A      0.032666    36A      0.033887  
      37A      0.035600    38A      0.045738    39A      0.046817  
      40A      0.049349    41A      0.055048    42A      0.056776  
      43A      0.064767    44A      0.067022    45A      0.069822  
      46A      0.072507    47A      0.077253    48A      0.091612  
      49A      0.095685    50A      0.099682    51A      0.102294  
      52A      0.111891    53A      0.115041    54A      0.117373  
      55A      0.122749    56A      0.126400    57A      0.127757  
      58A      0.132601    59A      0.138208    60A      0.138748  
      61A      0.144114    62A      0.149355    63A      0.150988  
      64A      0.156545    65A      0.158092    66A      0.161161  
      67A      0.165292    68A      0.167224    69A      0.168883  
      70A      0.171669    71A      0.174336    72A      0.181850  
      73A      0.188868    74A      0.196047    75A      0.197700  
      76A      0.208596    77A      0.219091    78A      0.222500  
      79A      0.226894    80A      0.233489    81A      0.243202  
      82A      0.249536    83A      0.255183    84A      0.263763  
      85A      0.266655    86A      0.270562    87A      0.275368  
      88A      0.281163    89A      0.284287    90A      0.291349  
      91A      0.293797    92A      0.301352    93A      0.307091  
      94A      0.311852    95A      0.315988    96A      0.318109  
      97A      0.325186    98A      0.328819    99A      0.330688  
     100A      0.334225   101A      0.340908   102A      0.345613  
     103A      0.349015   104A      0.349934   105A      0.351802  
     106A      0.357101   107A      0.360676   108A      0.363026  
     109A      0.368223   110A      0.370973   111A      0.372642  
     112A      0.380744   113A      0.383633   114A      0.385703  
     115A      0.391615   116A      0.392894   117A      0.396734  
     118A      0.402626   119A      0.402786   120A      0.409767  
     121A      0.413188   122A      0.416780   123A      0.422167  
     124A      0.428942   125A      0.429878   126A      0.436412  
     127A      0.438623   128A      0.440996   129A      0.443626  
     130A      0.453284   131A      0.455501   132A      0.458187  
     133A      0.461816   134A      0.467700   135A      0.470928  
     136A      0.475003   137A      0.476720   138A      0.479904  
     139A      0.483233   140A      0.487282   141A      0.490594  
     142A      0.496029   143A      0.498442   144A      0.500049  
     145A      0.508059   146A      0.509464   147A      0.511808  
     148A      0.518068   149A      0.523818   150A      0.526650  
     151A      0.529216   152A      0.535685   153A      0.537769  
     154A      0.542104   155A      0.545566   156A      0.550257  
     157A      0.555446   158A      0.556062   159A      0.563837  
     160A      0.565789   161A      0.571334   162A      0.574035  
     163A      0.582526   164A      0.585072   165A      0.590106  
     166A      0.592536   167A      0.600411   168A      0.602303  
     169A      0.605860   170A      0.611004   171A      0.621659  
     172A      0.626228   173A      0.631673   174A      0.635346  
     175A      0.639809   176A      0.641578   177A      0.644056  
     178A      0.650480   179A      0.653837   180A      0.660259  
     181A      0.665963   182A      0.672915   183A      0.679871  
     184A      0.687297   185A      0.688514   186A      0.695994  
     187A      0.699099   188A      0.703162   189A      0.710341  
     190A      0.715417   191A      0.724604   192A      0.732462  
     193A      0.740001   194A      0.741329   195A      0.746895  
     196A      0.751153   197A      0.765023   198A      0.766233  
     199A      0.784551   200A      0.796579   201A      0.799322  
     202A      0.811293   203A      0.816982   204A      0.829389  
     205A      0.838655   206A      0.843297   207A      0.848968  
     208A      0.852843   209A      0.854880   210A      0.858675  
     211A      0.867252   212A      0.870250   213A      0.875593  
     214A      0.879334   215A      0.886600   216A      0.889526  
     217A      0.891756   218A      0.903641   219A      0.909563  
     220A      0.911318   221A      0.913675   222A      0.918098  
     223A      0.922696   224A      0.926158   225A      0.934475  
     226A      0.939368   227A      0.941310   228A      0.947204  
     229A      0.957082   230A      0.959719   231A      0.960842  
     232A      0.966148   233A      0.971841   234A      0.974599  
     235A      0.981631   236A      0.988950   237A      0.994457  
     238A      0.999202   239A      1.005686   240A      1.010874  
     241A      1.015913   242A      1.017221   243A      1.023688  
     244A      1.025110   245A      1.032123   246A      1.042472  
     247A      1.047212   248A      1.049909   249A      1.051902  
     250A      1.054537   251A      1.061465   252A      1.062959  
     253A      1.067576   254A      1.076787   255A      1.085595  
     256A      1.094451   257A      1.097300   258A      1.102943  
     259A      1.106463   260A      1.113727   261A      1.116860  
     262A      1.121267   263A      1.129902   264A      1.133245  
     265A      1.140292   266A      1.144947   267A      1.149609  
     268A      1.156112   269A      1.158854   270A      1.165202  
     271A      1.170874   272A      1.174763   273A      1.180973  
     274A      1.182855   275A      1.189560   276A      1.194820  
     277A      1.202950   278A      1.204757   279A      1.211334  
     280A      1.214523   281A      1.216708   282A      1.227885  
     283A      1.236974   284A      1.238966   285A      1.242413  
     286A      1.246669   287A      1.252730   288A      1.265323  
     289A      1.269038   290A      1.271852   291A      1.272716  
     292A      1.274969   293A      1.287699   294A      1.290356  
     295A      1.293572   296A      1.306130   297A      1.313636  
[...]

	Performing BFGS update.
	Previous computed or guess Hessian on step 1.
	Denominators (dg)(dq) or (dq)(dq) are very small.
	 Skipping Hessian update for step 16.
	Denominators (dg)(dq) or (dq)(dq) are very small.
	 Skipping Hessian update for step 15.
	Denominators (dg)(dq) or (dq)(dq) are very small.
	 Skipping Hessian update for step 14.
	Denominators (dg)(dq) or (dq)(dq) are very small.
	 Skipping Hessian update for step 13.
	Denominators (dg)(dq) or (dq)(dq) are very small.
	 Skipping Hessian update for step 12.
	Denominators (dg)(dq) or (dq)(dq) are very small.
	 Skipping Hessian update for step 11.
	Denominators (dg)(dq) or (dq)(dq) are very small.
	 Skipping Hessian update for step 10.
	Denominators (dg)(dq) or (dq)(dq) are very small.
	 Skipping Hessian update for step 9.
	Denominators (dg)(dq) or (dq)(dq) are very small.
	 Skipping Hessian update for step 8.
	Denominators (dg)(dq) or (dq)(dq) are very small.
	 Skipping Hessian update for step 7.
	Denominators (dg)(dq) or (dq)(dq) are very small.
	 Skipping Hessian update for step 6.
	Denominators (dg)(dq) or (dq)(dq) are very small.
	 Skipping Hessian update for step 5.
	Denominators (dg)(dq) or (dq)(dq) are very small.
	 Skipping Hessian update for step 4.
	Denominators (dg)(dq) or (dq)(dq) are very small.
	 Skipping Hessian update for step 3.
	Denominators (dg)(dq) or (dq)(dq) are very small.
	 Skipping Hessian update for step 2.
	Steps to be used in Hessian update: 1
	Taking RFO optimization step.
	Going to follow RFO solution 1.
	Using RFO vector 1.
	Norm of target step-size    0.00002
	Projected energy change by RFO approximation:        -0.0000000000

	Back-transformation to cartesian coordinates...
	Successfully converged to displaced geometry.

	--- Internal Coordinate Step in ANG or DEG, aJ/ANG or AJ/DEG ---
	 ---------------------------------------------------------------------------
	   Coordinate                Previous        Force       Change         New 
	   ----------                --------       ------       ------       ------
	    1 R(1,2)          =      1.091078    -0.000002    -0.000000     1.091078
	    2 R(1,3)          =      1.090081    -0.000002    -0.000000     1.090081
	    3 R(1,4)          =      1.089973    -0.000002    -0.000000     1.089973
	    4 R(1,9)          =      1.524464    -0.000001     0.000000     1.524464
	    5 R(5,6)          =      1.089727    -0.000001    -0.000000     1.089727
	    6 R(5,7)          =      1.090822    -0.000001    -0.000000     1.090822
	    7 R(5,8)          =      1.090701    -0.000001    -0.000000     1.090701
	    8 R(5,12)         =      1.523915    -0.000001     0.000000     1.523915
	    9 R(9,10)         =      1.092558    -0.000004    -0.000000     1.092558
	   10 R(9,11)         =      1.093579    -0.000004    -0.000000     1.093578
	   11 R(9,15)         =      1.528566    -0.000000    -0.000000     1.528566
	   12 R(12,13)        =      1.093962    -0.000002    -0.000000     1.093962
	   13 R(12,14)        =      1.091629    -0.000002    -0.000000     1.091629
	   14 R(12,24)        =      1.524776    -0.000000     0.000000     1.524777
	   15 R(15,16)        =      1.094781    -0.000005    -0.000001     1.094781
	   16 R(15,17)        =      1.091979    -0.000004    -0.000000     1.091979
	   17 R(15,18)        =      1.535743     0.000000    -0.000000     1.535743
	   18 R(18,19)        =      1.091219    -0.000003    -0.000001     1.091219
	   19 R(18,20)        =      1.096145    -0.000004    -0.000001     1.096144
	   20 R(18,21)        =      1.527926     0.000002    -0.000000     1.527926
	   21 R(21,22)        =      1.094960    -0.000003    -0.000000     1.094960
	   22 R(21,23)        =      1.091581    -0.000003    -0.000001     1.091581
	   23 R(21,24)        =      1.526086     0.000001     0.000000     1.526086
	   24 R(24,25)        =      1.094092    -0.000001    -0.000000     1.094091
	   25 R(24,26)        =      1.095378    -0.000002    -0.000000     1.095378
	   26 B(1,9,10)       =    109.198134    -0.000000    -0.000022   109.198112
	   27 B(1,9,11)       =    109.181733    -0.000000    -0.000039   109.181694
	   28 B(1,9,15)       =    114.302121    -0.000000     0.000026   114.302148
	   29 B(2,1,3)        =    107.897101     0.000000     0.000003   107.897104
	   30 B(2,1,4)        =    107.901026    -0.000000     0.000000   107.901026
	   31 B(2,1,9)        =    110.957741    -0.000000    -0.000008   110.957734
	   32 B(3,1,4)        =    107.566279    -0.000000    -0.000001   107.566278
	   33 B(3,1,9)        =    111.449445    -0.000000    -0.000007   111.449438
	   34 B(4,1,9)        =    110.910568     0.000000     0.000013   110.910582
	   35 B(5,12,13)      =    109.806370    -0.000000     0.000007   109.806377
	   36 B(5,12,14)      =    109.385765    -0.000000     0.000009   109.385774
	   37 B(5,12,24)      =    112.034579     0.000000     0.000039   112.034619
	   38 B(6,5,7)        =    107.891664     0.000000     0.000001   107.891665
	   39 B(6,5,8)        =    107.965733     0.000000     0.000003   107.965737
	   40 B(6,5,12)       =    111.702591    -0.000000    -0.000001   111.702590
	   41 B(7,5,8)        =    107.680246     0.000000     0.000015   107.680261
	   42 B(7,5,12)       =    110.670752    -0.000000    -0.000005   110.670746
	   43 B(8,5,12)       =    110.776408    -0.000000    -0.000011   110.776397
	   44 B(9,15,16)      =    109.378023     0.000000    -0.000017   109.378007
	   45 B(9,15,17)      =    108.079440     0.000000    -0.000005   108.079435
	   46 B(9,15,18)      =    113.908003    -0.000000    -0.000048   113.907955
	   47 B(10,9,11)      =    106.409074    -0.000000    -0.000013   106.409061
	   48 B(10,9,15)      =    108.929270     0.000000     0.000038   108.929308
	   49 B(11,9,15)      =    108.524877     0.000000     0.000008   108.524885
	   50 B(12,24,21)     =    114.035210    -0.000000    -0.000036   114.035174
	   51 B(12,24,25)     =    108.654268     0.000000     0.000030   108.654298
	   52 B(12,24,26)     =    109.047382     0.000000     0.000024   109.047407
	   53 B(13,12,14)     =    106.582021     0.000000    -0.000009   106.582012
	   54 B(13,12,24)     =    109.012734    -0.000000    -0.000015   109.012719
	   55 B(14,12,24)     =    109.869042    -0.000000    -0.000033   109.869009
	   56 B(15,18,19)     =    109.525805    -0.000000     0.000006   109.525811
	   57 B(15,18,20)     =    109.346998    -0.000000     0.000009   109.347006
	   58 B(15,18,21)     =    113.507675     0.000000    -0.000062   113.507613
	   59 B(16,15,17)     =    106.289368    -0.000000     0.000011   106.289380
	   60 B(16,15,18)     =    109.150672    -0.000000    -0.000010   109.150662
	   61 B(17,15,18)     =    109.754894    -0.000000     0.000072   109.754966
	   62 B(18,21,22)     =    108.614933    -0.000000    -0.000028   108.614904
	   63 B(18,21,23)     =    109.481281    -0.000000    -0.000037   109.481244
	   64 B(18,21,24)     =    113.677770     0.000000     0.000024   113.677794
	   65 B(19,18,20)     =    106.120399     0.000000     0.000006   106.120405
	   66 B(19,18,21)     =    108.782644     0.000000     0.000074   108.782718
	   67 B(20,18,21)     =    109.291566    -0.000000    -0.000029   109.291537
	   68 B(21,24,25)     =    109.237044     0.000000    -0.000016   109.237028
	   69 B(21,24,26)     =    109.199831     0.000000    -0.000017   109.199813
	   70 B(22,21,23)     =    106.250974     0.000000     0.000012   106.250986
	   71 B(22,21,24)     =    109.329388    -0.000000     0.000005   109.329393
	   72 B(23,21,24)     =    109.219233     0.000000     0.000024   109.219257
	   73 B(25,24,26)     =    106.387518    -0.000000     0.000018   106.387536
	   74 D(1,9,15,16)    =    -62.971445     0.000000    -0.000182   -62.971627
	   75 D(1,9,15,17)    =   -178.286583    -0.000000    -0.000183  -178.286766
	   76 D(1,9,15,18)    =     59.461624    -0.000000    -0.000241    59.461384
	   77 D(2,1,9,10)     =    -64.607649    -0.000000    -0.000134   -64.607783
	   78 D(2,1,9,11)     =    179.425950    -0.000000    -0.000084   179.425865
	   79 D(2,1,9,15)     =     57.677685     0.000000    -0.000083    57.677602
	   80 D(3,1,9,10)     =    175.123959    -0.000000    -0.000127   175.123832
	   81 D(3,1,9,11)     =     59.157558     0.000000    -0.000078    59.157480
	   82 D(3,1,9,15)     =    -62.590707     0.000000    -0.000076   -62.590783
	   83 D(4,1,9,10)     =     55.306154    -0.000000    -0.000130    55.306024
	   84 D(4,1,9,11)     =    -60.660247     0.000000    -0.000080   -60.660328
	   85 D(4,1,9,15)     =    177.591488     0.000000    -0.000079   177.591409
	   86 D(5,12,24,21)   =    175.644673    -0.000000    -0.000191   175.644482
	   87 D(5,12,24,25)   =     53.550424     0.000000    -0.000169    53.550255
	   88 D(5,12,24,26)   =    -62.017341    -0.000000    -0.000220   -62.017561
	   89 D(6,5,12,13)    =    -59.010464     0.000000    -0.000215   -59.010678
	   90 D(6,5,12,14)    =     57.623577    -0.000000    -0.000217    57.623360
	   91 D(6,5,12,24)    =    179.703633     0.000000    -0.000227   179.703407
	   92 D(7,5,12,13)    =   -179.246743     0.000000    -0.000211  -179.246954
	   93 D(7,5,12,14)    =    -62.612702    -0.000000    -0.000213   -62.612916
	   94 D(7,5,12,24)    =     59.467355     0.000000    -0.000223    59.467131
	   95 D(8,5,12,13)    =     61.391852    -0.000000    -0.000219    61.391633
	   96 D(8,5,12,14)    =    178.025892    -0.000000    -0.000221   178.025671
	   97 D(8,5,12,24)    =    -59.894051     0.000000    -0.000231   -59.894282
	   98 D(9,15,18,19)   =    141.280283    -0.000000    -0.000078   141.280204
	   99 D(9,15,18,20)   =     25.383879     0.000000    -0.000094    25.383785
	  100 D(9,15,18,21)   =    -96.930478     0.000000    -0.000021   -96.930499
	  101 D(10,9,15,16)   =     59.460528     0.000000    -0.000164    59.460364
	  102 D(10,9,15,17)   =    -55.854610    -0.000000    -0.000165   -55.854775
	  103 D(10,9,15,18)   =   -178.106403    -0.000000    -0.000223  -178.106625
	  104 D(11,9,15,16)   =    174.920339     0.000000    -0.000155   174.920184
	  105 D(11,9,15,17)   =     59.605202     0.000000    -0.000157    59.605045
	  106 D(11,9,15,18)   =    -62.646591     0.000000    -0.000214   -62.646805
	  107 D(12,24,21,18)  =     61.570662    -0.000000    -0.000161    61.570501
	  108 D(12,24,21,22)  =    -59.975395    -0.000000    -0.000144   -59.975539
	  109 D(12,24,21,23)  =   -175.846607    -0.000000    -0.000174  -175.846782
	  110 D(13,12,24,21)  =     53.902696    -0.000000    -0.000215    53.902481
	  111 D(13,12,24,25)  =    -68.191553    -0.000000    -0.000193   -68.191746
	  112 D(13,12,24,26)  =    176.240682    -0.000000    -0.000244   176.240438
	  113 D(14,12,24,21)  =    -62.551709     0.000000    -0.000177   -62.551886
	  114 D(14,12,24,25)  =    175.354042     0.000000    -0.000154   175.353888
	  115 D(14,12,24,26)  =     59.786277    -0.000000    -0.000206    59.786071
	  116 D(15,18,21,22)  =    -66.998662     0.000000     0.000012   -66.998650
	  117 D(15,18,21,23)  =     48.619941    -0.000000    -0.000010    48.619931
	  118 D(15,18,21,24)  =    171.058279     0.000000     0.000010   171.058289
	  119 D(16,15,18,19)  =    -96.161901    -0.000000    -0.000141   -96.162041
	  120 D(16,15,18,20)  =    147.941696     0.000000    -0.000157   147.941540
	  121 D(16,15,18,21)  =     25.627339     0.000000    -0.000083    25.627255
	  122 D(17,15,18,19)  =     19.955034    -0.000000    -0.000092    19.954942
	  123 D(17,15,18,20)  =    -95.941369    -0.000000    -0.000108   -95.941477
	  124 D(17,15,18,21)  =    141.744274    -0.000000    -0.000035   141.744239
	  125 D(18,21,24,25)  =   -176.656060    -0.000000    -0.000158  -176.656218
	  126 D(18,21,24,26)  =    -60.683696     0.000000    -0.000155   -60.683850
	  127 D(19,18,21,22)  =     55.203743     0.000000     0.000032    55.203775
	  128 D(19,18,21,23)  =    170.822347    -0.000000     0.000010   170.822357
	  129 D(19,18,21,24)  =    -66.739316     0.000000     0.000030   -66.739286
	  130 D(20,18,21,22)  =    170.656276    -0.000000     0.000064   170.656340
	  131 D(20,18,21,23)  =    -73.725121    -0.000000     0.000043   -73.725078
	  132 D(20,18,21,24)  =     48.713217     0.000000     0.000062    48.713279
	  133 D(22,21,24,25)  =     61.797884    -0.000000    -0.000141    61.797743
	  134 D(22,21,24,26)  =    177.770248     0.000000    -0.000138   177.770110
	  135 D(23,21,24,25)  =    -54.073329    -0.000000    -0.000172   -54.073501
	  136 D(23,21,24,26)  =     61.899036     0.000000    -0.000168    61.898867
	  137 R(1,21)         =      3.399645    -0.000001    -0.000003     3.399641
	 ---------------------------------------------------------------------------

  ==> Convergence Check <==

  Measures of convergence in internal coordinates in au.
  Criteria marked as inactive (o), active & met (*), and active & unmet ( ).
  ---------------------------------------------------------------------------------------------
   Step     Total Energy     Delta E     MAX Force     RMS Force      MAX Disp      RMS Disp   
  ---------------------------------------------------------------------------------------------
    Convergence Criteria             o    2.00e-06 *    1.00e-06 *    6.00e-06 *    4.00e-06 *
  ---------------------------------------------------------------------------------------------
     17    -314.98057091    1.89e-09 o    6.49e-07 *    1.40e-07 *    5.86e-06 *    1.94e-06 *  ~
  ---------------------------------------------------------------------------------------------


  **** Optimization is complete! (in 17 steps) ****

  ==> Optimization Summary <==

  Measures of convergence in internal coordinates in au.
  --------------------------------------------------------------------------------------------------------------- ~
   Step         Total Energy             Delta E       MAX Force       RMS Force        MAX Disp        RMS Disp  ~
  --------------------------------------------------------------------------------------------------------------- ~
      1    -314.980570909244   -314.980570909244      0.00000082      0.00000019      0.00003321      0.00000902  ~
      2    -314.980570912214     -0.000000002970      0.00000171      0.00000040      0.00022808      0.00005663  ~
      3    -314.980570907612      0.000000004602      0.00000662      0.00000159      0.00023875      0.00005923  ~
      4    -314.980570909695     -0.000000002083      0.00000117      0.00000023      0.00001690      0.00000470  ~
      5    -314.980570912302     -0.000000002607      0.00000084      0.00000021      0.00002471      0.00000681  ~
      6    -314.980570911330      0.000000000971      0.00000107      0.00000025      0.00003460      0.00001218  ~
      7    -314.980570909578      0.000000001752      0.00000182      0.00000039      0.00003685      0.00001494  ~
      8    -314.980570911005     -0.000000001427      0.00000067      0.00000014      0.00001903      0.00000709  ~
      9    -314.980570916468     -0.000000005463      0.00000044      0.00000014      0.00001557      0.00000503  ~
     10    -314.980570910131      0.000000006337      0.00000052      0.00000011      0.00002446      0.00000665  ~
     11    -314.980570914848     -0.000000004717      0.00000114      0.00000025      0.00002249      0.00000641  ~
     12    -314.980570911966      0.000000002882      0.00000030      0.00000007      0.00001936      0.00000542  ~
     13    -314.980570913561     -0.000000001595      0.00000029      0.00000009      0.00001408      0.00000409  ~
     14    -314.980570913405      0.000000000155      0.00000082      0.00000023      0.00052055      0.00015412  ~
     15    -314.980570902827      0.000000010579      0.00001638      0.00000416      0.00052162      0.00015459  ~
     16    -314.980570913718     -0.000000010892      0.00000087      0.00000018      0.00001034      0.00000298  ~
     17    -314.980570911832      0.000000001886      0.00000065      0.00000014      0.00000586      0.00000194  ~
  --------------------------------------------------------------------------------------------------------------- ~

	Writing optimization data to binary file.
	Final energy is   -314.9805709118319
	Final (previous) structure:
	Cartesian Geometry (in Angstrom)
	    C    -2.8558549876   1.3043900229   0.1492463199
	    H    -2.8754954933   1.4992299136  -0.9241145348
	    H    -1.9141889782   1.6879953310   0.5421695064
	    H    -3.6615783961   1.8770476894   0.6084992244
	    C     3.9267925549   0.1401165894   0.4259998269
	    H     4.6449865018  -0.6532283151   0.6316859250
	    H     3.8354450162   0.7508654757   1.3251852764
	    H     4.3390293476   0.7709886754  -0.3624730999
	    C    -3.0144129625  -0.1844103876   0.4361654505
	    H    -4.0033590134  -0.5106588930   0.1056656257
	    H    -2.9804575953  -0.3476575863   1.5169575833
	    C     2.5701748763  -0.4201941781   0.0161744856
	    H     2.6801663987  -1.0405292545  -0.8781623774
	    H     2.1951607917  -1.0747917920   0.8051742093
	    C    -1.9550717259  -1.0682199997  -0.2220060809
	    H    -2.0372089105  -0.9843338458  -1.3104739530
	    H    -2.1813705488  -2.1080181279   0.0229997568
	    C    -0.5167628920  -0.7362702377   0.2017680864
	    H     0.0531830775  -1.6601727881   0.3127865161
	    H    -0.5292999806  -0.2655899251   1.1916349963
	    C     0.2131303316   0.1768166694  -0.7821454225
	    H     0.3669791163  -0.3699954059  -1.7182353948
	    H    -0.4224569614   1.0296859811  -1.0274870455
	    C     1.5570474140   0.6837109812  -0.2665076521
	    H     1.9868196692   1.3740895242  -0.9984296636
	    H     1.3961507746   1.2641043676   0.6484288460
	Saving final (previous) structure.
			--------------------------
			 OPTKING Finished Execution 
			--------------------------

    Final optimized geometry and variables:
    Molecular point group: c1
    Full point group: C1

    Geometry (in Angstrom), charge = 0, multiplicity = 1:

    C           -2.855854987638     1.304390022942     0.149246319894
    H           -2.875495493318     1.499229913610    -0.924114534796
    H           -1.914188978233     1.687995330995     0.542169506385
    H           -3.661578396070     1.877047689391     0.608499224351
    C            3.926792554913     0.140116589379     0.425999826858
    H            4.644986501766    -0.653228315140     0.631685924963
    H            3.835445016248     0.750865475674     1.325185276356
    H            4.339029347635     0.770988675438    -0.362473099907
    C           -3.014412962474    -0.184410387554     0.436165450525
    H           -4.003359013432    -0.510658893005     0.105665625689
    H           -2.980457595264    -0.347657586276     1.516957583280
    C            2.570174876277    -0.420194178141     0.016174485554
    H            2.680166398652    -1.040529254519    -0.878162377384
    H            2.195160791682    -1.074791792049     0.805174209261
    C           -1.955071725911    -1.068219999746    -0.222006080926
    H           -2.037208910512    -0.984333845774    -1.310473952976
    H           -2.181370548840    -2.108018127934     0.022999756848
    C           -0.516762892025    -0.736270237659     0.201768086374
    H            0.053183077456    -1.660172788065     0.312786516061
    H           -0.529299980614    -0.265589925081     1.191634996348
    C            0.213130331634     0.176816669445    -0.782145422527
    H            0.366979116270    -0.369995405903    -1.718235394780
    H           -0.422456961447     1.029685981109    -1.027487045452
    C            1.557047414010     0.683710981189    -0.266507652133
    H            1.986819669156     1.374089524183    -0.998429663598
    H            1.396150774631     1.264104367583     0.648428846002

	Cleaning optimization helper files.

*** Psi4 exiting successfully. Buy a developer a beer!
