    -----------------------------------------------------------------------
          Psi4: An Open-Source Ab Initio Electronic Structure Package
                              Psi4 1.0.0 Driver

                          Git: Rev {master} 6a9a71b dirty

    J. M. Turney, A. C. Simmonett, R. M. Parrish, E. G. Hohenstein,
    F. A. Evangelista, J. T. Fermann, B. J. Mintz, L. A. Burns, J. J. Wilke,
    M. L. Abrams, N. J. Russ, M. L. Leininger, C. L. Janssen, E. T. Seidl,
    W. D. Allen, H. F. Schaefer, R. A. King, E. F. Valeev, C. D. Sherrill,
    and T. D. Crawford, WIREs Comput. Mol. Sci. 2, 556-565 (2012)
    (doi: 10.1002/wcms.93)

                         Additional Contributions by
    A. E. DePrince, U. Bozkaya, A. Yu. Sokolov, D. G. A. Smith, R. Di Remigio,
    R. M. Richard, J. F. Gonthier, H. R. McAlexander, M. Saitow, and
    B. P. Pritchard
    -----------------------------------------------------------------------


    Psi4 started on: Wed Sep 21 04:57:33 2016

    Process ID:  47162
    PSI4DATADIR: /usr/local/hpc5/psi4conda/share/psi4
    Memory level set to 256.000 MB

  ==> Input File <==

--------------------------------------------------------------------------
memory 60 Gb

molecule molecule_11_psi {
0 1
C            3.731415272124     0.795666718202     0.148697527611
H            3.728341097226     0.890406514968     1.235957590068
H            3.154032091995     1.624004326051    -0.259863628030
H            4.759552633246     0.910023867244    -0.193890166615
C           -3.731411513454    -0.795670481943    -0.148699622672
H           -4.759548715894    -0.910031995002     0.193887294235
H           -3.154025472195    -1.624006673724     0.259860551641
H           -3.728336296367    -0.890408532367    -1.235959869556
C            3.156353296747    -0.552009530083    -0.274132858107
H            3.821456453430    -1.348375337140     0.067131201236
H            3.132232560020    -0.614753512007    -1.365583205154
C           -3.156354925701     0.552007266088     0.274133371115
H           -3.821460514666     1.348371281275    -0.067130370729
H           -3.132235641933     0.614749695265     1.365583979446
C            1.753304467039    -0.807999474368     0.271407696566
H            1.778464426633    -0.763548593947     1.365240878144
H            1.445508296360    -1.824406752779     0.009538856674
C            0.701989239289     0.167973277390    -0.244282839563
H            0.713896938157     0.163676893279    -1.339582241515
H            0.950223305804     1.186278734929     0.065720351337
C           -0.701989739032    -0.167970129081     0.244281970407
H           -0.950224109666    -1.186275227918    -0.065722967703
H           -0.713896384053    -0.163676050881     1.339581534669
C           -1.753306308796     0.808002823975    -0.271405138182
H           -1.445512662354     1.824409994676    -0.009532515556
H           -1.778465484062     0.763555769719    -1.365238548712
}

set globals {
  reference rhf
  g_convergence gau_verytight
  basis aug-cc-pvtz
  freeze_core true
  scf_type df
  mp_type df
}
optimize('mp2')
--------------------------------------------------------------------------
/usr/local/hpc5/psi4conda/lib/python2.7/site-packages/v2rdm_casscf/v2rdm_casscf.so loaded.

  Memory set to  60.000 GiB by Python script.
gradient() will perform analytic gradient computation.

*** tstart() called on wr40
*** at Wed Sep 21 04:57:34 2016


         ---------------------------------------------------------
                                   SCF
            by Justin Turney, Rob Parrish, and Andy Simmonett
                              RHF Reference
                       12 Threads,  60000 MiB Core
         ---------------------------------------------------------

  ==> Geometry <==

    Molecular point group: c1
    Full point group: C1

    Geometry (in Angstrom), charge = 0, multiplicity = 1:

       Center              X                  Y                   Z               Mass       
    ------------   -----------------  -----------------  -----------------  -----------------
           C          3.731415272124     0.795666718202     0.148697527611    12.000000000000
           H          3.728341097226     0.890406514968     1.235957590068     1.007825032070
           H          3.154032091995     1.624004326051    -0.259863628030     1.007825032070
           H          4.759552633246     0.910023867244    -0.193890166615     1.007825032070
           C         -3.731411513454    -0.795670481943    -0.148699622672    12.000000000000
           H         -4.759548715894    -0.910031995002     0.193887294235     1.007825032070
           H         -3.154025472195    -1.624006673724     0.259860551641     1.007825032070
           H         -3.728336296367    -0.890408532367    -1.235959869556     1.007825032070
           C          3.156353296747    -0.552009530083    -0.274132858107    12.000000000000
           H          3.821456453430    -1.348375337140     0.067131201236     1.007825032070
           H          3.132232560020    -0.614753512007    -1.365583205154     1.007825032070
           C         -3.156354925701     0.552007266088     0.274133371115    12.000000000000
           H         -3.821460514666     1.348371281275    -0.067130370729     1.007825032070
           H         -3.132235641933     0.614749695265     1.365583979446     1.007825032070
           C          1.753304467039    -0.807999474368     0.271407696566    12.000000000000
           H          1.778464426633    -0.763548593947     1.365240878144     1.007825032070
           H          1.445508296360    -1.824406752779     0.009538856674     1.007825032070
           C          0.701989239289     0.167973277390    -0.244282839563    12.000000000000
           H          0.713896938157     0.163676893279    -1.339582241515     1.007825032070
           H          0.950223305804     1.186278734929     0.065720351337     1.007825032070
           C         -0.701989739032    -0.167970129081     0.244281970407    12.000000000000
           H         -0.950224109666    -1.186275227918    -0.065722967703     1.007825032070
           H         -0.713896384053    -0.163676050881     1.339581534669     1.007825032070
           C         -1.753306308796     0.808002823975    -0.271405138182    12.000000000000
           H         -1.445512662354     1.824409994676    -0.009532515556     1.007825032070
           H         -1.778465484062     0.763555769719    -1.365238548712     1.007825032070

  Running in c1 symmetry.

  Rotational constants: A =      0.20411  B =      0.02018  C =      0.01920 [cm^-1]
  Rotational constants: A =   6119.15088  B =    605.06832  C =    575.67700 [MHz]
  Nuclear repulsion =  384.902651219051108

  Charge       = 0
  Multiplicity = 1
  Electrons    = 66
  Nalpha       = 33
  Nbeta        = 33

  ==> Algorithm <==

  SCF Algorithm Type is DF.
  DIIS enabled.
  MOM disabled.
  Fractional occupation disabled.
  Guess Type is SAD.
  Energy threshold   = 1.00e-10
  Density threshold  = 1.00e-10
  Integral threshold = 0.00e+00

  ==> Primary Basis <==

  Basis Set: AUG-CC-PVTZ
    Number of shells: 274
    Number of basis function: 782
    Number of Cartesian functions: 890
    Spherical Harmonics?: true
    Max angular momentum: 3

  ==> Pre-Iterations <==

   -------------------------------------------------------
    Irrep   Nso     Nmo     Nalpha   Nbeta   Ndocc  Nsocc
   -------------------------------------------------------
     A        782     782       0       0       0       0
   -------------------------------------------------------
    Total     782     782      33      33      33       0
   -------------------------------------------------------

  ==> Integral Setup <==

  ==> DFJK: Density-Fitted J/K Matrices <==

    J tasked:                  Yes
    K tasked:                  Yes
    wK tasked:                  No
    OpenMP threads:             12
    Integrals threads:          12
    Memory (MB):             42915
    Algorithm:                Core
    Integral Cache:           NONE
    Schwarz Cutoff:          1E-12
    Fitting Condition:       1E-12

   => Auxiliary Basis Set <=

  Basis Set: 
    Number of shells: 492
    Number of basis function: 1660
    Number of Cartesian functions: 2038
    Spherical Harmonics?: true
    Max angular momentum: 4

  Minimum eigenvalue in the overlap matrix is 2.8727391461E-06.
  Using Symmetric Orthogonalization.
  SCF Guess: Superposition of Atomic Densities via on-the-fly atomic UHF.

  ==> Iterations <==

                           Total Energy        Delta E     RMS |[F,P]|

   @DF-RHF iter   0:  -316.76189913733538   -3.16762e+02   6.94065e-03 
   @DF-RHF iter   1:  -313.28334046710017    3.47856e+00   7.28437e-04 
   @DF-RHF iter   2:  -313.50720660591310   -2.23866e-01   2.74272e-04 DIIS
   @DF-RHF iter   3:  -313.53822929207502   -3.10227e-02   1.04506e-04 DIIS
   @DF-RHF iter   4:  -313.54399063532230   -5.76134e-03   1.33261e-05 DIIS
   @DF-RHF iter   5:  -313.54411640607236   -1.25771e-04   3.56077e-06 DIIS
   @DF-RHF iter   6:  -313.54412346242998   -7.05636e-06   1.14966e-06 DIIS
   @DF-RHF iter   7:  -313.54412405411324   -5.91683e-07   2.13567e-07 DIIS
   @DF-RHF iter   8:  -313.54412408113603   -2.70228e-08   4.26169e-08 DIIS
   @DF-RHF iter   9:  -313.54412408231349   -1.17745e-09   1.08573e-08 DIIS
   @DF-RHF iter  10:  -313.54412408238238   -6.88942e-11   3.31562e-09 DIIS
   @DF-RHF iter  11:  -313.54412408238795   -5.57066e-12   7.39516e-10 DIIS
   @DF-RHF iter  12:  -313.54412408238932   -1.36424e-12   1.56187e-10 DIIS
   @DF-RHF iter  13:  -313.54412408238909    2.27374e-13   3.54552e-11 DIIS

  ==> Post-Iterations <==

    Orbital Energies (a.u.)
    -----------------------

    Doubly Occupied:                                                      

       1A    -11.212729     2A    -11.212729     3A    -11.210325  
       4A    -11.210270     5A    -11.209484     6A    -11.208911  
       7A    -11.206440     8A    -11.206440     9A     -1.093380  
      10A     -1.062096    11A     -1.009283    12A     -0.945072  
      13A     -0.886483    14A     -0.828593    15A     -0.773681  
      16A     -0.770856    17A     -0.649980    18A     -0.622170  
      19A     -0.610003    20A     -0.602344    21A     -0.579866  
      22A     -0.554605    23A     -0.548804    24A     -0.521477  
      25A     -0.513619    26A     -0.503884    27A     -0.481982  
      28A     -0.480121    29A     -0.461028    30A     -0.458336  
      31A     -0.455497    32A     -0.448148    33A     -0.428043  

    Virtual:                                                              

      34A      0.030181    35A      0.031613    36A      0.034019  
      37A      0.036586    38A      0.044012    39A      0.046127  
      40A      0.049609    41A      0.053856    42A      0.059782  
      43A      0.061658    44A      0.067036    45A      0.070399  
      46A      0.071505    47A      0.077985    48A      0.085744  
      49A      0.094368    50A      0.101002    51A      0.109457  
      52A      0.112595    53A      0.114257    54A      0.119439  
      55A      0.125122    56A      0.127903    57A      0.129468  
      58A      0.133085    59A      0.133890    60A      0.138859  
      61A      0.140520    62A      0.144402    63A      0.154102  
      64A      0.156926    65A      0.157757    66A      0.163502  
      67A      0.164298    68A      0.167681    69A      0.170383  
      70A      0.174343    71A      0.177764    72A      0.183232  
      73A      0.186847    74A      0.195808    75A      0.200822  
      76A      0.205440    77A      0.219554    78A      0.223397  
      79A      0.233373    80A      0.235152    81A      0.243913  
      82A      0.245176    83A      0.255937    84A      0.256489  
      85A      0.263160    86A      0.278630    87A      0.279924  
      88A      0.282513    89A      0.283528    90A      0.294246  
      91A      0.296861    92A      0.298270    93A      0.307348  
      94A      0.310699    95A      0.313825    96A      0.315142  
      97A      0.330702    98A      0.331607    99A      0.335237  
     100A      0.335344   101A      0.339616   102A      0.342896  
     103A      0.343019   104A      0.353676   105A      0.356777  
     106A      0.356855   107A      0.361635   108A      0.365606  
     109A      0.366064   110A      0.370245   111A      0.371888  
     112A      0.374582   113A      0.379630   114A      0.383849  
     115A      0.384134   116A      0.387513   117A      0.391875  
     118A      0.399623   119A      0.405614   120A      0.413617  
     121A      0.416545   122A      0.419529   123A      0.425902  
     124A      0.426321   125A      0.429059   126A      0.429500  
     127A      0.432064   128A      0.440140   129A      0.444995  
     130A      0.449621   131A      0.453077   132A      0.453233  
     133A      0.459300   134A      0.465774   135A      0.466716  
     136A      0.473040   137A      0.474080   138A      0.477358  
     139A      0.481761   140A      0.484323   141A      0.485469  
     142A      0.487861   143A      0.489557   144A      0.494438  
     145A      0.499072   146A      0.510624   147A      0.511960  
     148A      0.515640   149A      0.516383   150A      0.518688  
     151A      0.526125   152A      0.527132   153A      0.529798  
     154A      0.534751   155A      0.535372   156A      0.538316  
     157A      0.548362   158A      0.555772   159A      0.560116  
     160A      0.561975   161A      0.563292   162A      0.570935  
     163A      0.581652   164A      0.583095   165A      0.584477  
     166A      0.588576   167A      0.592304   168A      0.593954  
     169A      0.605008   170A      0.605609   171A      0.609751  
     172A      0.619452   173A      0.620361   174A      0.620851  
     175A      0.630863   176A      0.631663   177A      0.639756  
     178A      0.642072   179A      0.655486   180A      0.660443  
     181A      0.665203   182A      0.676244   183A      0.680550  
     184A      0.691070   185A      0.695463   186A      0.696649  
     187A      0.698390   188A      0.707783   189A      0.713678  
     190A      0.720730   191A      0.725296   192A      0.725385  
     193A      0.735304   194A      0.744858   195A      0.749305  
     196A      0.751941   197A      0.758949   198A      0.780241  
     199A      0.784139   200A      0.791956   201A      0.802787  
     202A      0.804045   203A      0.824024   204A      0.831119  
     205A      0.832630   206A      0.840914   207A      0.846649  
     208A      0.853096   209A      0.856501   210A      0.857839  
     211A      0.862626   212A      0.863114   213A      0.869006  
     214A      0.875941   215A      0.881347   216A      0.886794  
     217A      0.889428   218A      0.894310   219A      0.897091  
     220A      0.907886   221A      0.908258   222A      0.914006  
     223A      0.917620   224A      0.919618   225A      0.923196  
     226A      0.932348   227A      0.933893   228A      0.936758  
     229A      0.943250   230A      0.947970   231A      0.953494  
     232A      0.960333   233A      0.967541   234A      0.970256  
     235A      0.979434   236A      0.980257   237A      0.989513  
     238A      0.995865   239A      0.997648   240A      1.002898  
     241A      1.006988   242A      1.016523   243A      1.019827  
     244A      1.029402   245A      1.030791   246A      1.033630  
     247A      1.034506   248A      1.037071   249A      1.047667  
     250A      1.050157   251A      1.056066   252A      1.066254  
     253A      1.073831   254A      1.075204   255A      1.084841  
     256A      1.090783   257A      1.093431   258A      1.098732  
     259A      1.099176   260A      1.107722   261A      1.111140  
     262A      1.113206   263A      1.118160   264A      1.126089  
     265A      1.127889   266A      1.128172   267A      1.140423  
     268A      1.152335   269A      1.156710   270A      1.164838  
     271A      1.169759   272A      1.174638   273A      1.184176  
     274A      1.186032   275A      1.187744   276A      1.195275  
     277A      1.201748   278A      1.208186   279A      1.209464  
     280A      1.212082   281A      1.213930   282A      1.216787  
     283A      1.219698   284A      1.231411   285A      1.232198  
     286A      1.235906   287A      1.241046   288A      1.245914  
     289A      1.251411   290A      1.253747   291A      1.262920  
     292A      1.271489   293A      1.278259   294A      1.278972  
     295A      1.286449   296A      1.292969   297A      1.294925  
     298A      1.300913   299A      1.314583   300A      1.318334  
     301A      1.326732   302A      1.328250   303A      1.337598  
     304A      1.339616   305A      1.346314   306A      1.351481  
     307A      1.365473   308A      1.367871   309A      1.370017  
     310A      1.398348   311A      1.399391   312A      1.410235  
     313A      1.412108   314A      1.414866   315A      1.433466  
     316A      1.435452   317A      1.439286   318A      1.445743  
     319A      1.445935   320A      1.458779   321A      1.459975  
     322A      1.463186   323A      1.475461   324A      1.489871  
     325A      1.496377   326A      1.506047   327A      1.512117  
     328A      1.518285   329A      1.522161   330A      1.527566  
     331A      1.546069   332A      1.557873   333A      1.565310  
     334A      1.566855   335A      1.571873   336A      1.573796  
     337A      1.580913   338A      1.586415   339A      1.604497  
     340A      1.612051   341A      1.615799   342A      1.616877  
     343A      1.621318   344A      1.633125   345A      1.640908  
     346A      1.648102   347A      1.660697   348A      1.663199  
     349A      1.670387   350A      1.681970   351A      1.682390  
     352A      1.688526   353A      1.701728   354A      1.702545  
     355A      1.708967   356A      1.712887   357A      1.718961  
     358A      1.725254   359A      1.731939   360A      1.735338  
     361A      1.737189   362A      1.740594   363A      1.741666  
     364A      1.751385   365A      1.752291   366A      1.765535  
     367A      1.772301   368A      1.779314   369A      1.785347  
     370A      1.788870   371A      1.792849   372A      1.802589  
     373A      1.808673   374A      1.811400   375A      1.815775  
     376A      1.825806   377A      1.826383   378A      1.831011  
     379A      1.840600   380A      1.842137   381A      1.857549  
     382A      1.862843   383A      1.863911   384A      1.874190  
     385A      1.887406   386A      1.890834   387A      1.896834  
     388A      1.903016   389A      1.908862   390A      1.917390  
     391A      1.917553   392A      1.918760   393A      1.932114  
     394A      1.934815   395A      1.939038   396A      1.955286  
     397A      1.958436   398A      1.963610   399A      1.971352  
     400A      1.976074   401A      1.990153   402A      1.990448  
     403A      1.996787   404A      2.003343   405A      2.009502  
     406A      2.016969   407A      2.025026   408A      2.025444  
     409A      2.027877   410A      2.046844   411A      2.049599  
     412A      2.055882   413A      2.059570   414A      2.070336  
     415A      2.073248   416A      2.077078   417A      2.087590  
     418A      2.109292   419A      2.114536   420A      2.117847  
     421A      2.119717   422A      2.132480   423A      2.137051  
     424A      2.140048   425A      2.154913   426A      2.160436  
     427A      2.165056   428A      2.185756   429A      2.198009  
     430A      2.204360   431A      2.218492   432A      2.233590  
     433A      2.252773   434A      2.254030   435A      2.257232  
     436A      2.264477   437A      2.282984   438A      2.288136  
     439A      2.290110   440A      2.303985   441A      2.306184  
     442A      2.317663   443A      2.320758   444A      2.330521  
     445A      2.333140   446A      2.340501   447A      2.352381  
     448A      2.362941   449A      2.368092   450A      2.375715  
     451A      2.383224   452A      2.388014   453A      2.414644  
     454A      2.419201   455A      2.428468   456A      2.432177  
     457A      2.443462   458A      2.446038   459A      2.463514  
     460A      2.465976   461A      2.475901   462A      2.489721  
     463A      2.508819   464A      2.531761   465A      2.550533  
     466A      2.552144   467A      2.561917   468A      2.565061  
     469A      2.583651   470A      2.589762   471A      2.609230  
     472A      2.620977   473A      2.631182   474A      2.643520  
     475A      2.666042   476A      2.667318   477A      2.675826  
     478A      2.691582   479A      2.693987   480A      2.747346  
     481A      2.788255   482A      2.819586   483A      2.830569  
     484A      2.900335   485A      2.905062   486A      2.968709  
     487A      2.982327   488A      2.991581   489A      3.029099  
     490A      3.075549   491A      3.142073   492A      3.154528  
     493A      3.264665   494A      3.283101   495A      3.339230  
     496A      3.395884   497A      3.411005   498A      3.428380  
     499A      3.446807   500A      3.455599   501A      3.470255  
     502A      3.476416   503A      3.500808   504A      3.508617  
     505A      3.528164   506A      3.531825   507A      3.546254  
     508A      3.556038   509A      3.573674   510A      3.591300  
     511A      3.592068   512A      3.604868   513A      3.614972  
     514A      3.642491   515A      3.645887   516A      3.652477  
     517A      3.662624   518A      3.673073   519A      3.679129  
     520A      3.679582   521A      3.699977   522A      3.703480  
     523A      3.709878   524A      3.718172   525A      3.723363  
     526A      3.733916   527A      3.739052   528A      3.761341  
     529A      3.768675   530A      3.771597   531A      3.773201  
     532A      3.798705   533A      3.806207   534A      3.807242  
     535A      3.815609   536A      3.819593   537A      3.820873  
     538A      3.835995   539A      3.839224   540A      3.859077  
     541A      3.860635   542A      3.866142   543A      3.872526  
     544A      3.882625   545A      3.887382   546A      3.904490  
     547A      3.911073   548A      3.911509   549A      3.921163  
     550A      3.945988   551A      3.953073   552A      3.953267  
     553A      3.959455   554A      3.962027   555A      3.966681  
     556A      3.979816   557A      3.991529   558A      3.991544  
     559A      4.001941   560A      4.003264   561A      4.015118  
     562A      4.017341   563A      4.024574   564A      4.030801  
     565A      4.042880   566A      4.047277   567A      4.055875  
     568A      4.057551   569A      4.076887   570A      4.081238  
     571A      4.084970   572A      4.091211   573A      4.095911  
     574A      4.096403   575A      4.107984   576A      4.109024  
     577A      4.129937   578A      4.131089   579A      4.144563  
     580A      4.146000   581A      4.152344   582A      4.152439  
     583A      4.187291   584A      4.204377   585A      4.215049  
     586A      4.216498   587A      4.221023   588A      4.246622  
     589A      4.247157   590A      4.261788   591A      4.272393  
     592A      4.279498   593A      4.293348   594A      4.295529  
     595A      4.301046   596A      4.312662   597A      4.317674  
     598A      4.339285   599A      4.350526   600A      4.353867  
     601A      4.369787   602A      4.386306   603A      4.389402  
     604A      4.419445   605A      4.426333   606A      4.428413  
     607A      4.445537   608A      4.454595   609A      4.464967  
     610A      4.467459   611A      4.482057   612A      4.492907  
     613A      4.520097   614A      4.537576   615A      4.557025  
     616A      4.563000   617A      4.565639   618A      4.569721  
     619A      4.596727   620A      4.605926   621A      4.607828  
     622A      4.637083   623A      4.667081   624A      4.674527  
     625A      4.685019   626A      4.691747   627A      4.692338  
     628A      4.705440   629A      4.708254   630A      4.731636  
     631A      4.737484   632A      4.738178   633A      4.748584  
     634A      4.769271   635A      4.779244   636A      4.787106  
     637A      4.801161   638A      4.806503   639A      4.821826  
     640A      4.826567   641A      4.842346   642A      4.851851  
     643A      4.853976   644A      4.869423   645A      4.878159  
     646A      4.888068   647A      4.906544   648A      4.916958  
     649A      4.926440   650A      4.936289   651A      4.938469  
     652A      4.957930   653A      4.960962   654A      4.964192  
     655A      4.983981   656A      4.996349   657A      5.013004  
     658A      5.020168   659A      5.031227   660A      5.032609  
     661A      5.044749   662A      5.066034   663A      5.077097  
     664A      5.096767   665A      5.098586   666A      5.115212  
     667A      5.140492   668A      5.141202   669A      5.143678  
     670A      5.164106   671A      5.171623   672A      5.175651  
     673A      5.203051   674A      5.211984   675A      5.227515  
     676A      5.230160   677A      5.240885   678A      5.268415  
     679A      5.283497   680A      5.300842   681A      5.309838  
     682A      5.316008   683A      5.321143   684A      5.337324  
     685A      5.345437   686A      5.353346   687A      5.356741  
     688A      5.380354   689A      5.386593   690A      5.394806  
     691A      5.410178   692A      5.417931   693A      5.435343  
     694A      5.448905   695A      5.455764   696A      5.460974  
     697A      5.461742   698A      5.474791   699A      5.492011  
     700A      5.499991   701A      5.521874   702A      5.529751  
     703A      5.544331   704A      5.548731   705A      5.560515  
     706A      5.576993   707A      5.581852   708A      5.599907  
     709A      5.609543   710A      5.611686   711A      5.628602  
     712A      5.631272   713A      5.649166   714A      5.651877  
     715A      5.682415   716A      5.687625   717A      5.698721  
     718A      5.707312   719A      5.715971   720A      5.729734  
     721A      5.735372   722A      5.763937   723A      5.795156  
     724A      5.795669   725A      5.804403   726A      5.842724  
     727A      5.843435   728A      5.856808   729A      5.875469  
     730A      5.892880   731A      5.897253   732A      5.940627  
     733A      5.953768   734A      5.991605   735A      6.009449  
     736A      6.023969   737A      6.039989   738A      6.050120  
     739A      6.070131   740A      6.108347   741A      6.130969  
     742A      6.145777   743A      6.166777   744A      6.179166  
     745A      6.198998   746A      6.222894   747A      6.268518  
     748A      6.270655   749A      6.275898   750A      6.276556  
     751A      6.298945   752A      6.305561   753A      6.332388  
     754A      6.338937   755A      6.344668   756A      6.345491  
     757A      6.396024   758A      6.400673   759A      6.541292  
     760A      6.578505   761A      6.625951   762A      6.626342  
     763A      6.742142   764A      6.745228   765A      6.791305  
     766A      6.801362   767A      6.825519   768A      6.897595  
     769A      6.900447   770A      6.923552   771A      6.975585  
     772A      6.996762   773A      7.018609   774A      7.129525  
     775A     17.781604   776A     17.897263   777A     18.244955  
     778A     18.427323   779A     18.612586   780A     18.631750  
     781A     19.097076   782A     19.602137  

    Final Occupation by Irrep:
              A 
    DOCC [    33 ]

  Energy converged.

  @DF-RHF Final Energy:  -313.54412408238909

   => Energetics <=

    Nuclear Repulsion Energy =            384.9026512190511085
    One-Electron Energy =               -1184.9601878551388836
    Two-Electron Energy =                 486.5134125536987426
    DFT Exchange-Correlation Energy =       0.0000000000000000
    Empirical Dispersion Energy =           0.0000000000000000
    PCM Polarization Energy =               0.0000000000000000
    EFP Energy =                            0.0000000000000000
    Total Energy =                       -313.5441240823890325


  Saving occupied orbitals to File 180.

*** tstop() called on wr40 at Wed Sep 21 04:59:05 2016
Module time:
	user time   =     976.54 seconds =      16.28 minutes
	system time =      17.24 seconds =       0.29 minutes
	total time  =         91 seconds =       1.52 minutes
Total time:
	user time   =     976.54 seconds =      16.28 minutes
	system time =      17.24 seconds =       0.29 minutes
	total time  =         91 seconds =       1.52 minutes


Properties will be evaluated at   0.000000,   0.000000,   0.000000 Bohr

Properties computed using the SCF density matrix

  Nuclear Dipole Moment: (a.u.)
     X:     0.0000      Y:    -0.0000      Z:    -0.0000

  Electronic Dipole Moment: (a.u.)
     X:    -0.0000      Y:     0.0000      Z:     0.0000

  Dipole Moment: (a.u.)
     X:    -0.0000      Y:    -0.0000      Z:    -0.0000     Total:     0.0000

  Dipole Moment: (Debye)
     X:    -0.0000      Y:    -0.0000      Z:    -0.0000     Total:     0.0000


  //>>>>>>>>>>>>>>>>>>>>>>>>>>>>>>>>>>>//
  //               DFMP2               //
  //<<<<<<<<<<<<<<<<<<<<<<<<<<<<<<<<<<<//


*** tstart() called on wr40
*** at Wed Sep 21 04:59:05 2016


*** tstop() called on wr40 at Wed Sep 21 04:59:05 2016
Module time:
	user time   =       4.83 seconds =       0.08 minutes
	system time =       0.10 seconds =       0.00 minutes
	total time  =          0 seconds =       0.00 minutes
Total time:
	user time   =     982.18 seconds =      16.37 minutes
	system time =      17.38 seconds =       0.29 minutes
	total time  =         91 seconds =       1.52 minutes
	 --------------------------------------------------------
	                          DF-MP2                         
	      2nd-Order Density-Fitted Moller-Plesset Theory     
	              RMP2 Wavefunction,  12 Threads             
	                                                         
	        Rob Parrish, Justin Turney, Andy Simmonett,      
	           Ed Hohenstein, and C. David Sherrill          
	 --------------------------------------------------------

   => Auxiliary Basis Set <=

  Basis Set: 
    Number of shells: 476
    Number of basis function: 1676
    Number of Cartesian functions: 2078
    Spherical Harmonics?: true
    Max angular momentum: 4

	 --------------------------------------------------------
	                 NBF =   782, NAUX =  1676
	 --------------------------------------------------------
	   CLASS    FOCC     OCC    AOCC    AVIR     VIR    FVIR
	   PAIRS       8      33      25     749     749       0
	 --------------------------------------------------------

DGAS Warning! /src/lib/libfock/apps.cc:80 is not currently checking restricted

         ------------------------------------------------------------
                                     CPHF                           
                                  Rob Parrish                       
         ------------------------------------------------------------

  ==> Geometry <==

    Molecular point group: c1
    Full point group: C1

    Geometry (in Angstrom), charge = 0, multiplicity = 1:

       Center              X                  Y                   Z               Mass       
    ------------   -----------------  -----------------  -----------------  -----------------
           C          3.731415272124     0.795666718202     0.148697527611    12.000000000000
           H          3.728341097226     0.890406514968     1.235957590068     1.007825032070
           H          3.154032091995     1.624004326051    -0.259863628030     1.007825032070
           H          4.759552633246     0.910023867244    -0.193890166615     1.007825032070
           C         -3.731411513454    -0.795670481943    -0.148699622672    12.000000000000
           H         -4.759548715894    -0.910031995002     0.193887294235     1.007825032070
           H         -3.154025472195    -1.624006673724     0.259860551641     1.007825032070
           H         -3.728336296367    -0.890408532367    -1.235959869556     1.007825032070
           C          3.156353296747    -0.552009530083    -0.274132858107    12.000000000000
           H          3.821456453430    -1.348375337140     0.067131201236     1.007825032070
           H          3.132232560020    -0.614753512007    -1.365583205154     1.007825032070
           C         -3.156354925701     0.552007266088     0.274133371115    12.000000000000
           H         -3.821460514666     1.348371281275    -0.067130370729     1.007825032070
           H         -3.132235641933     0.614749695265     1.365583979446     1.007825032070
           C          1.753304467039    -0.807999474368     0.271407696566    12.000000000000
           H          1.778464426633    -0.763548593947     1.365240878144     1.007825032070
           H          1.445508296360    -1.824406752779     0.009538856674     1.007825032070
           C          0.701989239289     0.167973277390    -0.244282839563    12.000000000000
           H          0.713896938157     0.163676893279    -1.339582241515     1.007825032070
           H          0.950223305804     1.186278734929     0.065720351337     1.007825032070
           C         -0.701989739032    -0.167970129081     0.244281970407    12.000000000000
           H         -0.950224109666    -1.186275227918    -0.065722967703     1.007825032070
           H         -0.713896384053    -0.163676050881     1.339581534669     1.007825032070
           C         -1.753306308796     0.808002823975    -0.271405138182    12.000000000000
           H         -1.445512662354     1.824409994676    -0.009532515556     1.007825032070
           H         -1.778465484062     0.763555769719    -1.365238548712     1.007825032070

  Nuclear repulsion =  384.902651219051108
  Reference energy  = -313.544124082389089

  ==> Basis Set <==

  Basis Set: AUG-CC-PVTZ
    Number of shells: 274
    Number of basis function: 782
    Number of Cartesian functions: 890
    Spherical Harmonics?: true
    Max angular momentum: 3

  ==> CGRSolver (by Rob Parrish) <==

   Number of roots    =         1
   Preconditioning    =    JACOBI
   Convergence cutoff =     1E-06
   Maximum iterations =       100

  ==> CPHFRHamiltonian (by Rob Parrish) <== 

  ==> DFJK: Density-Fitted J/K Matrices <==

    J tasked:                  Yes
    K tasked:                  Yes
    wK tasked:                  No
    OpenMP threads:             12
    Integrals threads:          12
    Memory (MB):             42915
    Algorithm:                Core
    Integral Cache:           NONE
    Schwarz Cutoff:          1E-12
    Fitting Condition:       1E-12

   => Auxiliary Basis Set <=

  Basis Set: 
    Number of shells: 492
    Number of basis function: 1660
    Number of Cartesian functions: 2038
    Spherical Harmonics?: true
    Max angular momentum: 4

  ==> CPHF Iterations <==

  => Iterations <=

             Iter  Converged  Remaining    Residual
  CGR           1          0          1   8.959E-02
  CGR           2          0          1   1.232E-02
  CGR           3          0          1   2.648E-03
  CGR           4          0          1   6.881E-04
  CGR           5          0          1   1.737E-04
  CGR           6          0          1   3.803E-05
  CGR           7          0          1   8.603E-06
  CGR           8          0          1   2.478E-06
  CGR           9          1          0   5.764E-07

    CGRSolver converged.

  ==> DFCorrGrad: Density-Fitted Correlated Gradients <==

    OpenMP threads:             12
    Integrals threads:          12
    Memory (MB):             42915
    Schwarz Cutoff:          0E+00
    Fitting Condition:       1E-12

   => Auxiliary Basis Set <=

  Basis Set: 
    Number of shells: 492
    Number of basis function: 1660
    Number of Cartesian functions: 2038
    Spherical Harmonics?: true
    Max angular momentum: 4

	-----------------------------------------------------------
	 ==================> DF-MP2 Energies <==================== 
	-----------------------------------------------------------
	 Reference Energy          =    -313.5441240823890894 [Eh]
	 Singles Energy            =      -0.0000000000000001 [Eh]
	 Same-Spin Energy          =      -0.3154068485705609 [Eh]
	 Opposite-Spin Energy      =      -1.1241423779884678 [Eh]
	 Correlation Energy        =      -1.4395492265590288 [Eh]
	 Total Energy              =    -314.9836733089481413 [Eh]
	-----------------------------------------------------------
	 ================> DF-SCS-MP2 Energies <================== 
	-----------------------------------------------------------
	 SCS Same-Spin Scale       =       0.3333333333333333 [-]
	 SCS Opposite-Spin Scale   =       1.2000000000000000 [-]
	 SCS Same-Spin Energy      =      -0.1051356161901870 [Eh]
	 SCS Opposite-Spin Energy  =      -1.3489708535861613 [Eh]
	 SCS Correlation Energy    =      -1.4541064697763484 [Eh]
	 SCS Total Energy          =    -314.9982305521654098 [Eh]
	-----------------------------------------------------------


  -Total Gradient:
     Atom            X                  Y                   Z
    ------   -----------------  -----------------  -----------------
       1        0.000000149301     0.000000406307     0.000000137154
       2       -0.000000004483    -0.000000106264    -0.000000502901
       3        0.000000270119    -0.000000414252     0.000000129003
       4       -0.000000341714     0.000000014970     0.000000142111
       5       -0.000000116131    -0.000000323701    -0.000000099918
       6        0.000000240737    -0.000000002095    -0.000000095067
       7       -0.000000161625     0.000000284141    -0.000000090808
       8        0.000000003837     0.000000073263     0.000000324501
       9        0.000000113216    -0.000000661449    -0.000000443355
      10       -0.000000363385     0.000000403086    -0.000000215679
      11       -0.000000017079     0.000000039829     0.000000704848
      12       -0.000000095098     0.000000415311     0.000000287320
      13        0.000000207322    -0.000000219693     0.000000105068
      14        0.000000025842    -0.000000027423    -0.000000426057
      15       -0.000000199926    -0.000000609563     0.000000746172
      16       -0.000000144068     0.000000068945    -0.000001048295
      17        0.000000120591     0.000000980537     0.000000205487
      18        0.000000624900     0.000000895808    -0.000000614948
      19        0.000000007213    -0.000000130964     0.000000968869
      20       -0.000000302813    -0.000000909771    -0.000000119221
      21       -0.000000232861    -0.000000828472     0.000000515247
      22        0.000000267795     0.000000654658     0.000000108769
      23        0.000000065103     0.000000076587    -0.000000822224
      24       -0.000000157408     0.000000527006    -0.000000392294
      25       -0.000000061483    -0.000000513131    -0.000000111491
      26        0.000000102095    -0.000000093669     0.000000607711


			-----------------------------------------
			 OPTKING 2.0: for geometry optimizations 
			  - R.A. King,  Bethel University        
			-----------------------------------------

	Internal coordinates to be generated automatically.
	Detected frag 1 with atoms:  1 2 3 4 5 6 7 8 9 10 11 12 13 14 15 16 17 18 19 20
	 21 22 23 24 25 26
	---Fragment 1 Bond Connectivity---
	 1 : 2 3 4 9
	 2 : 1
	 3 : 1
	 4 : 1
	 5 : 6 7 8 12
	 6 : 5
	 7 : 5
	 8 : 5
	 9 : 1 10 11 15
	 10 : 9
	 11 : 9
	 12 : 5 13 14 24
	 13 : 12
	 14 : 12
	 15 : 9 16 17 18
	 16 : 15
	 17 : 15
	 18 : 15 19 20 21
	 19 : 18
	 20 : 18
	 21 : 18 22 23 24
	 22 : 21
	 23 : 21
	 24 : 12 21 25 26
	 25 : 24
	 26 : 24

	---Fragment 1 Geometry and Gradient---
	 C           7.0513529524        1.5035921905        0.2809976038
	 H           7.0455436037        1.6826244602        2.3356213571
	 H           5.9602568682        3.0689234149       -0.4910710889
	 H           8.9942509919        1.7196958835       -0.3663993148
	 C          -7.0513458495       -1.5035993029       -0.2810015629
	 H          -8.9942435892       -1.7197112427        0.3663938868
	 H          -5.9602443586       -3.0689278513        0.4910652753
	 H          -7.0455345314       -1.6826282726       -2.3356256647
	 C           5.9646433095       -1.0431468346       -0.5180360258
	 H           7.2215061257       -2.5480601115        0.1268595853
	 H           5.9190617229       -1.1617157769       -2.5805782694
	 C          -5.9646463878        1.0431425563        0.5180369953
	 H          -7.2215138004        2.5480524471       -0.1268580159
	 H          -5.9190675469        1.1617085643        2.5805797326
	 C           3.3132652703       -1.5268977221        0.5128862169
	 H           3.3608107034       -1.4428977317        2.5799313651
	 H           2.7316148029       -3.4476291177        0.0180258267
	 C           1.3265674105        0.3174234919       -0.4616276657
	 H           1.3490697002        0.3093045026       -2.5314435689
	 H           1.7956618131        2.2417419263        0.1241934654
	 C          -1.3265683549       -0.3174175425        0.4616260233
	 H          -1.7956633321       -2.2417352990       -0.1241984096
	 H          -1.3490686531       -0.3093029107        2.5314422332
	 C          -3.3132687507        1.5269040519       -0.5128813822
	 H          -2.7316230535        3.4476352440       -0.0180138438
	 H          -3.3608127017        1.4429112920       -2.5799269631
	             0.0000001493        0.0000004063        0.0000001372
	            -0.0000000045       -0.0000001063       -0.0000005029
	             0.0000002701       -0.0000004143        0.0000001290
	            -0.0000003417        0.0000000150        0.0000001421
	            -0.0000001161       -0.0000003237       -0.0000000999
	             0.0000002407       -0.0000000021       -0.0000000951
	            -0.0000001616        0.0000002841       -0.0000000908
	             0.0000000038        0.0000000733        0.0000003245
	             0.0000001132       -0.0000006614       -0.0000004434
	            -0.0000003634        0.0000004031       -0.0000002157
	            -0.0000000171        0.0000000398        0.0000007048
	            -0.0000000951        0.0000004153        0.0000002873
	             0.0000002073       -0.0000002197        0.0000001051
	             0.0000000258       -0.0000000274       -0.0000004261
	            -0.0000001999       -0.0000006096        0.0000007462
	            -0.0000001441        0.0000000689       -0.0000010483
	             0.0000001206        0.0000009805        0.0000002055
	             0.0000006249        0.0000008958       -0.0000006149
	             0.0000000072       -0.0000001310        0.0000009689
	            -0.0000003028       -0.0000009098       -0.0000001192
	            -0.0000002329       -0.0000008285        0.0000005152
	             0.0000002678        0.0000006547        0.0000001088
	             0.0000000651        0.0000000766       -0.0000008222
	            -0.0000001574        0.0000005270       -0.0000003923
	            -0.0000000615       -0.0000005131       -0.0000001115
	             0.0000001021       -0.0000000937        0.0000006077

	Previous optimization step data not found.  Starting new optimization.

	---Fragment 1 Intrafragment Coordinates---
	 - Coordinate -           - BOHR/RAD -       - ANG/DEG -
	 R(1,2)           =         2.062417	       1.091384
	 R(1,3)           =         2.058359	       1.089237
	 R(1,4)           =         2.059290	       1.089729
	 R(1,9)           =         2.881887	       1.525029
	 R(5,6)           =         2.059290	       1.089730
	 R(5,7)           =         2.058359	       1.089237
	 R(5,8)           =         2.062417	       1.091384
	 R(5,12)          =         2.881887	       1.525029
	 R(9,10)          =         2.064064	       1.092255
	 R(9,11)          =         2.066450	       1.093518
	 R(9,15)          =         2.885589	       1.526988
	 R(12,13)         =         2.064064	       1.092255
	 R(12,14)         =         2.066451	       1.093519
	 R(12,24)         =         2.885589	       1.526988
	 R(15,16)         =         2.069298	       1.095025
	 R(15,17)         =         2.066982	       1.093800
	 R(15,18)         =         2.880654	       1.524376
	 R(18,19)         =         2.069954	       1.095373
	 R(18,20)         =         2.065487	       1.093009
	 R(18,21)         =         2.880026	       1.524044
	 R(21,22)         =         2.065488	       1.093009
	 R(21,23)         =         2.069954	       1.095373
	 R(21,24)         =         2.880654	       1.524376
	 R(24,25)         =         2.066982	       1.093800
	 R(24,26)         =         2.069298	       1.095025
	 B(1,9,10)        =         1.905055	     109.151595
	 B(1,9,11)        =         1.913207	     109.618711
	 B(1,9,15)        =         1.977483	     113.301434
	 B(2,1,3)         =         1.881958	     107.828224
	 B(2,1,4)         =         1.882561	     107.862795
	 B(2,1,9)         =         1.930356	     110.601278
	 B(3,1,4)         =         1.878001	     107.601511
	 B(3,1,9)         =         1.947820	     111.601840
	 B(4,1,9)         =         1.940503	     111.182621
	 B(5,12,13)       =         1.905055	     109.151601
	 B(5,12,14)       =         1.913207	     109.618708
	 B(5,12,24)       =         1.977483	     113.301426
	 B(6,5,7)         =         1.878001	     107.601512
	 B(6,5,8)         =         1.882561	     107.862797
	 B(6,5,12)        =         1.940503	     111.182614
	 B(7,5,8)         =         1.881957	     107.828222
	 B(7,5,12)        =         1.947820	     111.601843
	 B(8,5,12)        =         1.930357	     110.601281
	 B(9,15,16)       =         1.905998	     109.205666
	 B(9,15,17)       =         1.905839	     109.196508
	 B(9,15,18)       =         1.988319	     113.922285
	 B(10,9,11)       =         1.858182	     106.465986
	 B(10,9,15)       =         1.902494	     109.004901
	 B(11,9,15)       =         1.903610	     109.068816
	 B(12,24,21)      =         1.988319	     113.922261
	 B(12,24,25)      =         1.905839	     109.196526
	 B(12,24,26)      =         1.905998	     109.205655
	 B(13,12,14)      =         1.858182	     106.465992
	 B(13,12,24)      =         1.902494	     109.004905
	 B(14,12,24)      =         1.903610	     109.068813
	 B(15,18,19)      =         1.905262	     109.163497
	 B(15,18,20)      =         1.921869	     110.114996
	 B(15,18,21)      =         1.966828	     112.690943
	 B(16,15,17)      =         1.858070	     106.459552
	 B(16,15,18)      =         1.904754	     109.134351
	 B(17,15,18)      =         1.896397	     108.655519
	 B(18,21,22)      =         1.900392	     108.884424
	 B(18,21,23)      =         1.906781	     109.250530
	 B(18,21,24)      =         1.966830	     112.691038
	 B(19,18,20)      =         1.859584	     106.546302
	 B(19,18,21)      =         1.906782	     109.250555
	 B(20,18,21)      =         1.900392	     108.884448
	 B(21,24,25)      =         1.896397	     108.655566
	 B(21,24,26)      =         1.904753	     109.134326
	 B(22,21,23)      =         1.859584	     106.546289
	 B(22,21,24)      =         1.921869	     110.114970
	 B(23,21,24)      =         1.905262	     109.163484
	 B(25,24,26)      =         1.858070	     106.459550
	 D(1,9,15,16)     =        -1.023114	     -58.620137
	 D(1,9,15,17)     =        -3.048381	    -174.659368
	 D(1,9,15,18)     =         1.111303	      63.672988
	 D(2,1,9,10)      =        -1.149399	     -65.855718
	 D(2,1,9,11)      =         3.104787	     177.891181
	 D(2,1,9,15)      =         0.974018	      55.807116
	 D(3,1,9,10)      =         3.038661	     174.102453
	 D(3,1,9,11)      =         1.009662	      57.849352
	 D(3,1,9,15)      =        -1.121107	     -64.234713
	 D(4,1,9,10)      =         0.941663	      53.953319
	 D(4,1,9,11)      =        -1.087336	     -62.299782
	 D(4,1,9,15)      =         3.065080	     175.616153
	 D(5,12,24,21)    =        -1.111300	     -63.672789
	 D(5,12,24,25)    =         3.048384	     174.659510
	 D(5,12,24,26)    =         1.023117	      58.620279
	 D(6,5,12,13)     =        -0.941664	     -53.953358
	 D(6,5,12,14)     =         1.087336	      62.299753
	 D(6,5,12,24)     =        -3.065081	    -175.616194
	 D(7,5,12,13)     =        -3.038662	    -174.102490
	 D(7,5,12,14)     =        -1.009662	     -57.849380
	 D(7,5,12,24)     =         1.121107	      64.234674
	 D(8,5,12,13)     =         1.149398	      65.855680
	 D(8,5,12,14)     =        -3.104787	    -177.891210
	 D(8,5,12,24)     =        -0.974019	     -55.807157
	 D(9,15,18,19)    =         0.953649	      54.640072
	 D(9,15,18,20)    =        -1.082077	     -61.998463
	 D(9,15,18,21)    =         3.075554	     176.216247
	 D(10,9,15,16)    =         1.101736	      63.124831
	 D(10,9,15,17)    =        -0.923530	     -52.914400
	 D(10,9,15,18)    =        -3.047031	    -174.582044
	 D(11,9,15,16)    =         3.123959	     178.989691
	 D(11,9,15,17)    =         1.098693	      62.950460
	 D(11,9,15,18)    =        -1.024808	     -58.717185
	 D(12,24,21,18)   =        -3.075557	    -176.216450
	 D(12,24,21,22)   =         1.082073	      61.998244
	 D(12,24,21,23)   =        -0.953652	     -54.640254
	 D(13,12,24,21)   =         3.047035	     174.582238
	 D(13,12,24,25)   =         0.923533	      52.914538
	 D(13,12,24,26)   =        -1.101734	     -63.124694
	 D(14,12,24,21)   =         1.024811	      58.717372
	 D(14,12,24,25)   =        -1.098691	     -62.950329
	 D(14,12,24,26)   =        -3.123957	    -178.989561
	 D(15,18,21,22)   =        -1.003931	     -57.521004
	 D(15,18,21,23)   =         1.020548	      58.473080
	 D(15,18,21,24)   =         3.141593	     180.000000
	 D(16,15,18,19)   =         3.088751	     176.972396
	 D(16,15,18,20)   =         1.053025	      60.333861
	 D(16,15,18,21)   =        -1.072530	     -61.451429
	 D(17,15,18,19)   =        -1.175070	     -67.326549
	 D(17,15,18,20)   =         3.072389	     176.034916
	 D(17,15,18,21)   =         0.946835	      54.249626
	 D(18,21,24,25)   =        -0.946837	     -54.249788
	 D(18,21,24,26)   =         1.072527	      61.451276
	 D(19,18,21,22)   =         1.117112	      64.005778
	 D(19,18,21,23)   =         3.141593	     180.000000
	 D(19,18,21,24)   =        -1.020552	     -58.473327
	 D(20,18,21,22)   =         3.141593	     180.000000
	 D(20,18,21,23)   =        -1.117116	     -64.006012
	 D(20,18,21,24)   =         1.003927	      57.520798
	 D(22,21,24,25)   =        -3.072392	    -176.035094
	 D(22,21,24,26)   =        -1.053027	     -60.334030
	 D(23,21,24,25)   =         1.175067	      67.326408
	 D(23,21,24,26)   =        -3.088753	    -176.972528

	Current energy   :      -314.9836733089

	Generating empirical Hessian (Schlegel '84) for each fragment.
	Taking RFO optimization step.
	Going to follow RFO solution 1.
	Using RFO vector 1.
	Norm of target step-size    0.00011
	Projected energy change by RFO approximation:         0.0000000000

	Back-transformation to cartesian coordinates...
	Successfully converged to displaced geometry.
	First geometry is closer to target in internal coordinates, so am using that one.
	First geometry has RMS(Delta(q)) = 1.72e-07

	--- Internal Coordinate Step in ANG or DEG, aJ/ANG or AJ/DEG ---
	 ---------------------------------------------------------------------------
	   Coordinate                Previous        Force       Change         New 
	   ----------                --------       ------       ------       ------
	    1 R(1,2)          =      1.091384     0.000004     0.000001     1.091385
	    2 R(1,3)          =      1.089237     0.000004     0.000001     1.089238
	    3 R(1,4)          =      1.089729     0.000003     0.000001     1.089730
	    4 R(1,9)          =      1.525029     0.000000     0.000000     1.525029
	    5 R(5,6)          =      1.089730     0.000002     0.000000     1.089730
	    6 R(5,7)          =      1.089237     0.000003     0.000000     1.089237
	    7 R(5,8)          =      1.091384     0.000003     0.000000     1.091385
	    8 R(5,12)         =      1.525029    -0.000000    -0.000000     1.525029
	    9 R(9,10)         =      1.092255     0.000005     0.000001     1.092256
	   10 R(9,11)         =      1.093518     0.000006     0.000001     1.093519
	   11 R(9,15)         =      1.526988     0.000002     0.000000     1.526988
	   12 R(12,13)        =      1.092255     0.000003     0.000001     1.092256
	   13 R(12,14)        =      1.093519     0.000003     0.000001     1.093519
	   14 R(12,24)        =      1.526988     0.000001     0.000000     1.526988
	   15 R(15,16)        =      1.095025     0.000009     0.000002     1.095027
	   16 R(15,17)        =      1.093800     0.000008     0.000002     1.093801
	   17 R(15,18)        =      1.524376     0.000004     0.000001     1.524377
	   18 R(18,19)        =      1.095373     0.000008     0.000001     1.095374
	   19 R(18,20)        =      1.093009     0.000008     0.000001     1.093010
	   20 R(18,21)        =      1.524044     0.000001     0.000000     1.524044
	   21 R(21,22)        =      1.093009     0.000006     0.000001     1.093010
	   22 R(21,23)        =      1.095373     0.000007     0.000001     1.095374
	   23 R(21,24)        =      1.524376     0.000000     0.000000     1.524376
	   24 R(24,25)        =      1.093800     0.000004     0.000001     1.093800
	   25 R(24,26)        =      1.095025     0.000005     0.000001     1.095026
	   26 B(1,9,10)       =    109.151595    -0.000000    -0.000020   109.151575
	   27 B(1,9,11)       =    109.618711     0.000000     0.000017   109.618728
	   28 B(1,9,15)       =    113.301434    -0.000000    -0.000002   113.301433
	   29 B(2,1,3)        =    107.828224    -0.000000    -0.000014   107.828210
	   30 B(2,1,4)        =    107.862795     0.000000     0.000002   107.862797
	   31 B(2,1,9)        =    110.601278     0.000000     0.000030   110.601308
	   32 B(3,1,4)        =    107.601511     0.000000     0.000013   107.601524
	   33 B(3,1,9)        =    111.601840     0.000000     0.000025   111.601864
	   34 B(4,1,9)        =    111.182621    -0.000000    -0.000056   111.182565
	   35 B(5,12,13)      =    109.151601    -0.000000    -0.000025   109.151576
	   36 B(5,12,14)      =    109.618708    -0.000000     0.000012   109.618720
	   37 B(5,12,24)      =    113.301426     0.000000     0.000033   113.301459
	   38 B(6,5,7)        =    107.601512     0.000000     0.000003   107.601514
	   39 B(6,5,8)        =    107.862797     0.000000    -0.000002   107.862796
	   40 B(6,5,12)       =    111.182614    -0.000000    -0.000042   111.182571
	   41 B(7,5,8)        =    107.828222    -0.000000    -0.000004   107.828217
	   42 B(7,5,12)       =    111.601843     0.000000     0.000024   111.601867
	   43 B(8,5,12)       =    110.601281     0.000000     0.000022   110.601303
	   44 B(9,15,16)      =    109.205666    -0.000000    -0.000116   109.205551
	   45 B(9,15,17)      =    109.196508     0.000000     0.000028   109.196536
	   46 B(9,15,18)      =    113.922285    -0.000000    -0.000047   113.922238
	   47 B(10,9,11)      =    106.465986    -0.000000     0.000001   106.465987
	   48 B(10,9,15)      =    109.004901    -0.000000    -0.000019   109.004882
	   49 B(11,9,15)      =    109.068816     0.000000     0.000023   109.068839
	   50 B(12,24,21)     =    113.922261    -0.000000     0.000007   113.922267
	   51 B(12,24,25)     =    109.196526    -0.000000    -0.000031   109.196495
	   52 B(12,24,26)     =    109.205655    -0.000000    -0.000037   109.205618
	   53 B(13,12,14)     =    106.465992     0.000000    -0.000016   106.465976
	   54 B(13,12,24)     =    109.004905    -0.000000    -0.000026   109.004879
	   55 B(14,12,24)     =    109.068813    -0.000000     0.000019   109.068832
	   56 B(15,18,19)     =    109.163497    -0.000000     0.000034   109.163531
	   57 B(15,18,20)     =    110.114996    -0.000000    -0.000073   110.114923
	   58 B(15,18,21)     =    112.690943     0.000000     0.000142   112.691086
	   59 B(16,15,17)     =    106.459552    -0.000000    -0.000028   106.459525
	   60 B(16,15,18)     =    109.134351     0.000000     0.000038   109.134389
	   61 B(17,15,18)     =    108.655519     0.000000     0.000127   108.655646
	   62 B(18,21,22)     =    108.884424     0.000000     0.000054   108.884478
	   63 B(18,21,23)     =    109.250530     0.000000     0.000051   109.250581
	   64 B(18,21,24)     =    112.691038    -0.000000    -0.000041   112.690998
	   65 B(19,18,20)     =    106.546302    -0.000000    -0.000109   106.546192
	   66 B(19,18,21)     =    109.250555    -0.000000     0.000034   109.250589
	   67 B(20,18,21)     =    108.884448    -0.000000    -0.000041   108.884407
	   68 B(21,24,25)     =    108.655566     0.000000     0.000028   108.655593
	   69 B(21,24,26)     =    109.134326     0.000000     0.000068   109.134394
	   70 B(22,21,23)     =    106.546289    -0.000000    -0.000046   106.546243
	   71 B(22,21,24)     =    110.114970    -0.000000    -0.000028   110.114942
	   72 B(23,21,24)     =    109.163484     0.000000     0.000010   109.163494
	   73 B(25,24,26)     =    106.459550    -0.000000    -0.000037   106.459513
	   74 D(1,9,15,16)    =    -58.620137    -0.000000    -0.000133   -58.620270
	   75 D(1,9,15,17)    =   -174.659368     0.000000    -0.000051  -174.659418
	   76 D(1,9,15,18)    =     63.672988    -0.000000    -0.000203    63.672785
	   77 D(2,1,9,10)     =    -65.855718     0.000000     0.000192   -65.855526
	   78 D(2,1,9,11)     =    177.891181     0.000000     0.000193   177.891374
	   79 D(2,1,9,15)     =     55.807116    -0.000000     0.000151    55.807268
	   80 D(3,1,9,10)     =    174.102453     0.000000     0.000173   174.102626
	   81 D(3,1,9,11)     =     57.849352     0.000000     0.000173    57.849525
	   82 D(3,1,9,15)     =    -64.234713    -0.000000     0.000132   -64.234581
	   83 D(4,1,9,10)     =     53.953319     0.000000     0.000178    53.953497
	   84 D(4,1,9,11)     =    -62.299782     0.000000     0.000179   -62.299604
	   85 D(4,1,9,15)     =    175.616153    -0.000000     0.000138   175.616290
	   86 D(5,12,24,21)   =    -63.672789    -0.000000    -0.000051   -63.672840
	   87 D(5,12,24,25)   =    174.659510    -0.000000    -0.000068   174.659442
	   88 D(5,12,24,26)   =     58.620279     0.000000     0.000014    58.620293
	   89 D(6,5,12,13)    =    -53.953358     0.000000     0.000035   -53.953322
	   90 D(6,5,12,14)    =     62.299753    -0.000000     0.000009    62.299761
	   91 D(6,5,12,24)    =   -175.616194     0.000000     0.000064  -175.616130
	   92 D(7,5,12,13)    =   -174.102490     0.000000     0.000045  -174.102445
	   93 D(7,5,12,14)    =    -57.849380    -0.000000     0.000018   -57.849362
	   94 D(7,5,12,24)    =     64.234674     0.000000     0.000073    64.234747
	   95 D(8,5,12,13)    =     65.855680    -0.000000     0.000020    65.855700
	   96 D(8,5,12,14)    =   -177.891210    -0.000000    -0.000007  -177.891217
	   97 D(8,5,12,24)    =    -55.807157     0.000000     0.000049   -55.807108
	   98 D(9,15,18,19)   =     54.640072     0.000000     0.002055    54.642127
	   99 D(9,15,18,20)   =    -61.998463     0.000000     0.002209   -61.996254
	  100 D(9,15,18,21)   =    176.216247     0.000000     0.002216   176.218463
	  101 D(10,9,15,16)   =     63.124831    -0.000000    -0.000174    63.124657
	  102 D(10,9,15,17)   =    -52.914400     0.000000    -0.000092   -52.914491
	  103 D(10,9,15,18)   =   -174.582044    -0.000000    -0.000244  -174.582288
	  104 D(11,9,15,16)   =    178.989691    -0.000000    -0.000170   178.989520
	  105 D(11,9,15,17)   =     62.950460     0.000000    -0.000088    62.950371
	  106 D(11,9,15,18)   =    -58.717185    -0.000000    -0.000240   -58.717425
	  107 D(12,24,21,18)  =   -176.216450    -0.000000    -0.000530  -176.216980
	  108 D(12,24,21,22)  =     61.998244    -0.000000    -0.000551    61.997692
	  109 D(12,24,21,23)  =    -54.640254     0.000000    -0.000485   -54.640739
	  110 D(13,12,24,21)  =    174.582238    -0.000000    -0.000022   174.582216
	  111 D(13,12,24,25)  =     52.914538    -0.000000    -0.000039    52.914498
	  112 D(13,12,24,26)  =    -63.124694     0.000000     0.000042   -63.124651
	  113 D(14,12,24,21)  =     58.717372     0.000000     0.000001    58.717372
	  114 D(14,12,24,25)  =    -62.950329    -0.000000    -0.000017   -62.950346
	  115 D(14,12,24,26)  =   -178.989561     0.000000     0.000065  -178.989495
	  116 D(15,18,21,22)  =    -57.521004    -0.000000    -0.000065   -57.521069
	  117 D(15,18,21,23)  =     58.473080    -0.000000    -0.000062    58.473018
	  118 D(15,18,21,24)  =    180.000000    -0.000000     0.000000   180.000000
	  119 D(16,15,18,19)  =    176.972396    -0.000000     0.001901   176.974297
	  120 D(16,15,18,20)  =     60.333861     0.000000     0.002055    60.335916
	  121 D(16,15,18,21)  =    -61.451429     0.000000     0.002062   -61.449367
	  122 D(17,15,18,19)  =    -67.326549    -0.000000     0.001957   -67.324592
	  123 D(17,15,18,20)  =    176.034916     0.000000     0.002112   176.037027
	  124 D(17,15,18,21)  =     54.249626     0.000000     0.002119    54.251745
	  125 D(18,21,24,25)  =    -54.249788    -0.000000    -0.000546   -54.250334
	  126 D(18,21,24,26)  =     61.451276     0.000000    -0.000537    61.450738
	  127 D(19,18,21,22)  =     64.005778     0.000000     0.000097    64.005875
	  128 D(19,18,21,23)  =    180.000000     0.000000     0.000000   180.000000
	  129 D(19,18,21,24)  =    -58.473327     0.000000     0.000122   -58.473206
	  130 D(20,18,21,22)  =    180.000000    -0.000000     0.000000   180.000000
	  131 D(20,18,21,23)  =    -64.006012    -0.000000    -0.000035   -64.006047
	  132 D(20,18,21,24)  =     57.520798    -0.000000    -0.000013    57.520785
	  133 D(22,21,24,25)  =   -176.035094    -0.000000    -0.000567  -176.035661
	  134 D(22,21,24,26)  =    -60.334030    -0.000000    -0.000559   -60.334589
	  135 D(23,21,24,25)  =     67.326408    -0.000000    -0.000501    67.325907
	  136 D(23,21,24,26)  =   -176.972528     0.000000    -0.000492  -176.973021
	 ---------------------------------------------------------------------------

  ==> Convergence Check <==

  Measures of convergence in internal coordinates in au.
  Criteria marked as inactive (o), active & met (*), and active & unmet ( ).
  --------------------------------------------------------------------------------------------- ~
   Step     Total Energy     Delta E     MAX Force     RMS Force      MAX Disp      RMS Disp    ~
  --------------------------------------------------------------------------------------------- ~
    Convergence Criteria             o    2.00e-06 *    1.00e-06 *    6.00e-06 *    4.00e-06 *  ~
  --------------------------------------------------------------------------------------------- ~
      1    -314.98367331   -3.15e+02 o    1.05e-06 *    2.55e-07 *    3.87e-05      9.74e-06    ~
  ---------------------------------------------------------------------------------------------

	Writing optimization data to binary file.
	Structure for next step:
	Cartesian Geometry (in Angstrom)
	    C     3.7314019106   0.7956754252   0.1487187529
	    H     3.7283150829   0.8904041023   1.2359805205
	    H     3.1540133808   1.6240114230  -0.2598400950
	    H     4.7595421844   0.9100474896  -0.1938570042
	    C    -3.7314143047  -0.7956638465  -0.1486857206
	    H    -4.7595512040  -0.9100174165   0.1939060153
	    H    -3.1540308505  -1.6240004952   0.2598784813
	    H    -3.7283436925  -0.8904099668  -1.2359457725
	    C     3.1563605346  -0.5520031581  -0.2741323365
	    H     3.8214685207  -1.3483653019   0.0671337748
	    H     3.1322553771  -0.6147374301  -1.3655846708
	    C    -3.1563499809   0.5520141616   0.2741356692
	    H    -3.8214539416   1.3483788683  -0.0671312574
	    H    -3.1322263961   0.6147644408   1.3655863857
	    C     1.7533070574  -0.8080141074   0.2713874260
	    H     1.7784548178  -0.7635754507   1.3652230118
	    H     1.4455243934  -1.8244233126   0.0095037487
	    C     0.7019889106   0.1679561155  -0.2443046102
	    H     0.7138852734   0.1636470975  -1.3396055858
	    H     0.9502319202   1.1862657732   0.0656827401
	    C    -0.7019871259  -0.1679721919   0.2442794567
	    H    -0.9502322461  -1.1862807376  -0.0657093231
	    H    -0.7138831786  -0.1636637986   1.3395803545
	    C    -1.7533024578   0.8080007438  -0.2714104528
	    H    -1.4455045212   1.8244096671  -0.0095462790
	    H    -1.7784671539   0.7635467780  -1.3652443984
			--------------------------
			 OPTKING Finished Execution 
			--------------------------

    Structure for next step:
    Molecular point group: c1
    Full point group: C1

    Geometry (in Angstrom), charge = 0, multiplicity = 1:

    C            3.731401452605     0.795676130908     0.148719901123
    H            3.728314624943     0.890404807976     1.235981668663
    H            3.154012922865     1.624012128764    -0.259838946845
    H            4.759541726411     0.910048195299    -0.193855856034
    C           -3.731414762665    -0.795663140819    -0.148684572451
    H           -4.759551661987    -0.910016710788     0.193907163505
    H           -3.154031308488    -1.623999789523     0.259879629512
    H           -3.728344150489    -0.890409261117    -1.235944624305
    C            3.156360076590    -0.552002452411    -0.274131188339
    H            3.821468062671    -1.348364596148     0.067134923025
    H            3.132254919079    -0.614736724367    -1.365583522572
    C           -3.156350438907     0.552014867329     0.274136817371
    H           -3.821454399538     1.348379574049    -0.067130109242
    H           -3.132226854109     0.614765146539     1.365587533944
    C            1.753306599396    -0.808013401714     0.271388574194
    H            1.778454359817    -0.763574744926     1.365224159969
    H            1.445523935445    -1.824422606917     0.009504896860
    C            0.701988452575     0.167956821209    -0.244303462041
    H            0.713884815392     0.163647803237    -1.339604437589
    H            0.950231462179     1.186266478907     0.065683888333
    C           -0.701987583877    -0.167971486155     0.244280604859
    H           -0.950232704079    -1.186280031909    -0.065708174858
    H           -0.713883636614    -0.163663092873     1.339581502695
    C           -1.753302915750     0.808001449509    -0.271409304639
    H           -1.445504979230     1.824410372869    -0.009545130827
    H           -1.778467611883     0.763547483728    -1.365243250197

gradient() will perform analytic gradient computation.

*** tstart() called on wr40
*** at Wed Sep 21 05:05:42 2016


         ---------------------------------------------------------
                                   SCF
            by Justin Turney, Rob Parrish, and Andy Simmonett
                              RHF Reference
                       12 Threads,  60000 MiB Core
         ---------------------------------------------------------

  ==> Geometry <==

    Molecular point group: c1
    Full point group: C1

    Geometry (in Angstrom), charge = 0, multiplicity = 1:

       Center              X                  Y                   Z               Mass       
    ------------   -----------------  -----------------  -----------------  -----------------
           C          3.731401452605     0.795676130908     0.148719901123    12.000000000000
           H          3.728314624943     0.890404807976     1.235981668663     1.007825032070
           H          3.154012922865     1.624012128764    -0.259838946845     1.007825032070
           H          4.759541726411     0.910048195299    -0.193855856034     1.007825032070
           C         -3.731414762665    -0.795663140819    -0.148684572451    12.000000000000
           H         -4.759551661987    -0.910016710788     0.193907163505     1.007825032070
           H         -3.154031308488    -1.623999789523     0.259879629512     1.007825032070
           H         -3.728344150489    -0.890409261117    -1.235944624305     1.007825032070
           C          3.156360076590    -0.552002452411    -0.274131188339    12.000000000000
           H          3.821468062671    -1.348364596148     0.067134923025     1.007825032070
           H          3.132254919079    -0.614736724367    -1.365583522572     1.007825032070
           C         -3.156350438907     0.552014867329     0.274136817371    12.000000000000
           H         -3.821454399538     1.348379574049    -0.067130109242     1.007825032070
           H         -3.132226854109     0.614765146539     1.365587533944     1.007825032070
           C          1.753306599396    -0.808013401714     0.271388574194    12.000000000000
           H          1.778454359817    -0.763574744926     1.365224159969     1.007825032070
           H          1.445523935445    -1.824422606917     0.009504896860     1.007825032070
           C          0.701988452575     0.167956821209    -0.244303462041    12.000000000000
           H          0.713884815392     0.163647803237    -1.339604437589     1.007825032070
           H          0.950231462179     1.186266478907     0.065683888333     1.007825032070
           C         -0.701987583877    -0.167971486155     0.244280604859    12.000000000000
           H         -0.950232704079    -1.186280031909    -0.065708174858     1.007825032070
           H         -0.713883636614    -0.163663092873     1.339581502695     1.007825032070
           C         -1.753302915750     0.808001449509    -0.271409304639    12.000000000000
           H         -1.445504979230     1.824410372869    -0.009545130827     1.007825032070
           H         -1.778467611883     0.763547483728    -1.365243250197     1.007825032070

  Running in c1 symmetry.

  Rotational constants: A =      0.20411  B =      0.02018  C =      0.01920 [cm^-1]
  Rotational constants: A =   6119.12141  B =    605.06902  C =    575.67750 [MHz]
  Nuclear repulsion =  384.902570304354697

  Charge       = 0
  Multiplicity = 1
  Electrons    = 66
  Nalpha       = 33
  Nbeta        = 33

  ==> Algorithm <==

  SCF Algorithm Type is DF.
  DIIS enabled.
  MOM disabled.
  Fractional occupation disabled.
  Guess Type is READ.
  Energy threshold   = 1.00e-10
  Density threshold  = 1.00e-10
  Integral threshold = 0.00e+00

  ==> Primary Basis <==

  Basis Set: AUG-CC-PVTZ
    Number of shells: 274
    Number of basis function: 782
    Number of Cartesian functions: 890
    Spherical Harmonics?: true
    Max angular momentum: 3

  ==> Pre-Iterations <==

   -------------------------------------------------------
    Irrep   Nso     Nmo     Nalpha   Nbeta   Ndocc  Nsocc
   -------------------------------------------------------
     A        782     782       0       0       0       0
   -------------------------------------------------------
    Total     782     782      33      33      33       0
   -------------------------------------------------------

  ==> Integral Setup <==

  ==> DFJK: Density-Fitted J/K Matrices <==

    J tasked:                  Yes
    K tasked:                  Yes
    wK tasked:                  No
    OpenMP threads:             12
    Integrals threads:          12
    Memory (MB):             42915
    Algorithm:                Core
    Integral Cache:           NONE
    Schwarz Cutoff:          1E-12
    Fitting Condition:       1E-12

   => Auxiliary Basis Set <=

  Basis Set: 
    Number of shells: 492
    Number of basis function: 1660
    Number of Cartesian functions: 2038
    Spherical Harmonics?: true
    Max angular momentum: 4

  Minimum eigenvalue in the overlap matrix is 2.8727625796E-06.
  Using Symmetric Orthogonalization.
  SCF Guess: Reading in previously saved MOs, projecting if necessary.

  Using orbitals from previous SCF, no projection.
  Recomputing DOCC and SOCC from number of alpha and beta electrons from previous calculation.
              A 
    DOCC [    33 ]

  ==> Iterations <==

                           Total Energy        Delta E     RMS |[F,P]|

   @DF-RHF iter   0:  -313.54410479270638   -3.13544e+02   6.17474e-08 
   @DF-RHF iter   1:  -313.54412391685952   -1.91242e-05   1.50430e-08 
   @DF-RHF iter   2:  -313.54412391696604   -1.06525e-10   6.70936e-09 DIIS
   @DF-RHF iter   3:  -313.54412391698401   -1.79625e-11   2.07829e-09 DIIS
   @DF-RHF iter   4:  -313.54412391698651   -2.50111e-12   2.92548e-10 DIIS
   @DF-RHF iter   5:  -313.54412391698662   -1.13687e-13   1.13241e-10 DIIS
   @DF-RHF iter   6:  -313.54412391698651    1.13687e-13   2.30237e-11 DIIS

  ==> Post-Iterations <==

    Orbital Energies (a.u.)
    -----------------------

    Doubly Occupied:                                                      

       1A    -11.212730     2A    -11.212729     3A    -11.210326  
       4A    -11.210270     5A    -11.209484     6A    -11.208912  
       7A    -11.206440     8A    -11.206440     9A     -1.093379  
      10A     -1.062096    11A     -1.009283    12A     -0.945071  
      13A     -0.886483    14A     -0.828593    15A     -0.773681  
      16A     -0.770856    17A     -0.649979    18A     -0.622170  
      19A     -0.610003    20A     -0.602344    21A     -0.579866  
      22A     -0.554605    23A     -0.548805    24A     -0.521477  
      25A     -0.513619    26A     -0.503884    27A     -0.481982  
      28A     -0.480121    29A     -0.461028    30A     -0.458336  
      31A     -0.455497    32A     -0.448148    33A     -0.428043  

    Virtual:                                                              

      34A      0.030181    35A      0.031613    36A      0.034019  
      37A      0.036586    38A      0.044012    39A      0.046126  
      40A      0.049609    41A      0.053856    42A      0.059782  
      43A      0.061658    44A      0.067036    45A      0.070399  
      46A      0.071505    47A      0.077985    48A      0.085744  
      49A      0.094368    50A      0.101002    51A      0.109458  
      52A      0.112595    53A      0.114257    54A      0.119439  
      55A      0.125123    56A      0.127903    57A      0.129468  
      58A      0.133085    59A      0.133889    60A      0.138859  
      61A      0.140520    62A      0.144402    63A      0.154102  
      64A      0.156926    65A      0.157757    66A      0.163502  
      67A      0.164298    68A      0.167681    69A      0.170383  
      70A      0.174344    71A      0.177764    72A      0.183232  
      73A      0.186847    74A      0.195808    75A      0.200822  
      76A      0.205440    77A      0.219554    78A      0.223397  
      79A      0.233373    80A      0.235151    81A      0.243913  
      82A      0.245177    83A      0.255937    84A      0.256489  
      85A      0.263160    86A      0.278630    87A      0.279924  
      88A      0.282513    89A      0.283527    90A      0.294246  
      91A      0.296862    92A      0.298270    93A      0.307348  
      94A      0.310699    95A      0.313825    96A      0.315141  
      97A      0.330702    98A      0.331608    99A      0.335237  
     100A      0.335343   101A      0.339617   102A      0.342895  
     103A      0.343019   104A      0.353676   105A      0.356777  
     106A      0.356855   107A      0.361635   108A      0.365605  
     109A      0.366064   110A      0.370245   111A      0.371887  
     112A      0.374582   113A      0.379629   114A      0.383849  
     115A      0.384135   116A      0.387513   117A      0.391876  
     118A      0.399623   119A      0.405614   120A      0.413617  
     121A      0.416544   122A      0.419528   123A      0.425902  
     124A      0.426321   125A      0.429058   126A      0.429499  
     127A      0.432064   128A      0.440140   129A      0.444995  
     130A      0.449621   131A      0.453078   132A      0.453232  
     133A      0.459299   134A      0.465774   135A      0.466716  
     136A      0.473040   137A      0.474080   138A      0.477357  
     139A      0.481761   140A      0.484322   141A      0.485469  
     142A      0.487862   143A      0.489557   144A      0.494437  
     145A      0.499071   146A      0.510624   147A      0.511959  
     148A      0.515641   149A      0.516384   150A      0.518687  
     151A      0.526126   152A      0.527132   153A      0.529798  
     154A      0.534751   155A      0.535372   156A      0.538316  
     157A      0.548362   158A      0.555772   159A      0.560117  
     160A      0.561975   161A      0.563292   162A      0.570934  
     163A      0.581653   164A      0.583095   165A      0.584477  
     166A      0.588576   167A      0.592303   168A      0.593954  
     169A      0.605008   170A      0.605609   171A      0.609750  
     172A      0.619452   173A      0.620361   174A      0.620850  
     175A      0.630863   176A      0.631662   177A      0.639756  
     178A      0.642072   179A      0.655486   180A      0.660443  
     181A      0.665203   182A      0.676244   183A      0.680549  
     184A      0.691070   185A      0.695464   186A      0.696649  
     187A      0.698389   188A      0.707782   189A      0.713677  
     190A      0.720729   191A      0.725296   192A      0.725386  
     193A      0.735303   194A      0.744858   195A      0.749305  
     196A      0.751940   197A      0.758950   198A      0.780242  
     199A      0.784138   200A      0.791955   201A      0.802788  
     202A      0.804045   203A      0.824026   204A      0.831119  
     205A      0.832629   206A      0.840915   207A      0.846648  
     208A      0.853098   209A      0.856501   210A      0.857839  
     211A      0.862626   212A      0.863116   213A      0.869006  
     214A      0.875941   215A      0.881345   216A      0.886793  
     217A      0.889428   218A      0.894309   219A      0.897091  
     220A      0.907885   221A      0.908259   222A      0.914005  
     223A      0.917619   224A      0.919618   225A      0.923196  
     226A      0.932347   227A      0.933894   228A      0.936758  
     229A      0.943250   230A      0.947970   231A      0.953494  
     232A      0.960334   233A      0.967540   234A      0.970257  
     235A      0.979435   236A      0.980258   237A      0.989512  
     238A      0.995865   239A      0.997647   240A      1.002898  
     241A      1.006988   242A      1.016523   243A      1.019827  
     244A      1.029404   245A      1.030791   246A      1.033632  
     247A      1.034505   248A      1.037071   249A      1.047668  
     250A      1.050158   251A      1.056067   252A      1.066253  
     253A      1.073831   254A      1.075204   255A      1.084841  
     256A      1.090784   257A      1.093430   258A      1.098733  
     259A      1.099176   260A      1.107722   261A      1.111140  
     262A      1.113206   263A      1.118160   264A      1.126090  
     265A      1.127889   266A      1.128172   267A      1.140422  
     268A      1.152335   269A      1.156710   270A      1.164836  
     271A      1.169758   272A      1.174638   273A      1.184176  
     274A      1.186032   275A      1.187743   276A      1.195275  
     277A      1.201749   278A      1.208186   279A      1.209463  
     280A      1.212082   281A      1.213930   282A      1.216786  
     283A      1.219698   284A      1.231411   285A      1.232199  
     286A      1.235905   287A      1.241048   288A      1.245913  
     289A      1.251410   290A      1.253749   291A      1.262919  
     292A      1.271490   293A      1.278262   294A      1.278972  
     295A      1.286447   296A      1.292970   297A      1.294925  
[...]
	 D(17,15,18,19)   =        -1.175065	     -67.326287
	 D(17,15,18,20)   =         3.072394	     176.035225
	 D(17,15,18,21)   =         0.946840	      54.249925
	 D(18,21,24,25)   =        -0.946834	     -54.249602
	 D(18,21,24,26)   =         1.072530	      61.451457
	 D(19,18,21,22)   =         1.117116	      64.006026
	 D(19,18,21,23)   =         3.141593	     180.000000
	 D(19,18,21,24)   =        -1.020547	     -58.473061
	 D(20,18,21,22)   =         3.141593	     180.000000
	 D(20,18,21,23)   =        -1.117112	     -64.005791
	 D(20,18,21,24)   =         1.003931	      57.520982
	 D(22,21,24,25)   =        -3.072389	    -176.034904
	 D(22,21,24,26)   =        -1.053024	     -60.333845
	 D(23,21,24,25)   =         1.175070	      67.326580
	 D(23,21,24,26)   =        -3.088750	    -176.972361

	Current energy   :      -314.9836733068

	Energy change for the previous step:
		Projected    :        -0.0000000000
		Actual       :         0.0000000051

	Performing BFGS update.
	Previous computed or guess Hessian on step 1.
	Denominators (dg)(dq) or (dq)(dq) are very small.
	 Skipping Hessian update for step 11.
	Denominators (dg)(dq) or (dq)(dq) are very small.
	 Skipping Hessian update for step 10.
	Denominators (dg)(dq) or (dq)(dq) are very small.
	 Skipping Hessian update for step 9.
	Denominators (dg)(dq) or (dq)(dq) are very small.
	 Skipping Hessian update for step 8.
	Denominators (dg)(dq) or (dq)(dq) are very small.
	 Skipping Hessian update for step 7.
	Denominators (dg)(dq) or (dq)(dq) are very small.
	 Skipping Hessian update for step 6.
	Denominators (dg)(dq) or (dq)(dq) are very small.
	 Skipping Hessian update for step 5.
	Denominators (dg)(dq) or (dq)(dq) are very small.
	 Skipping Hessian update for step 4.
	Denominators (dg)(dq) or (dq)(dq) are very small.
	 Skipping Hessian update for step 3.
	Denominators (dg)(dq) or (dq)(dq) are very small.
	 Skipping Hessian update for step 2.
	Steps to be used in Hessian update: 1
	Taking RFO optimization step.
	Going to follow RFO solution 1.
	Using RFO vector 1.
	Norm of target step-size    0.00002
	Projected energy change by RFO approximation:        -0.0000000000

	Back-transformation to cartesian coordinates...
	Successfully converged to displaced geometry.
	First geometry is closer to target in internal coordinates, so am using that one.
	First geometry has RMS(Delta(q)) = 3.24e-07

	--- Internal Coordinate Step in ANG or DEG, aJ/ANG or AJ/DEG ---
	 ---------------------------------------------------------------------------
	   Coordinate                Previous        Force       Change         New 
	   ----------                --------       ------       ------       ------
	    1 R(1,2)          =      1.091384    -0.000004    -0.000000     1.091384
	    2 R(1,3)          =      1.089237    -0.000003    -0.000000     1.089237
	    3 R(1,4)          =      1.089729    -0.000003    -0.000000     1.089729
	    4 R(1,9)          =      1.525029    -0.000001    -0.000000     1.525029
	    5 R(5,6)          =      1.089729     0.000002     0.000000     1.089729
	    6 R(5,7)          =      1.089237     0.000002     0.000000     1.089237
	    7 R(5,8)          =      1.091384     0.000002     0.000000     1.091384
	    8 R(5,12)         =      1.525029     0.000001     0.000000     1.525029
	    9 R(9,10)         =      1.092255    -0.000004    -0.000000     1.092255
	   10 R(9,11)         =      1.093518    -0.000005    -0.000000     1.093518
	   11 R(9,15)         =      1.526988    -0.000002    -0.000000     1.526988
	   12 R(12,13)        =      1.092255     0.000003     0.000000     1.092255
	   13 R(12,14)        =      1.093518     0.000003     0.000000     1.093519
	   14 R(12,24)        =      1.526988     0.000001     0.000000     1.526988
	   15 R(15,16)        =      1.095025    -0.000006    -0.000000     1.095025
	   16 R(15,17)        =      1.093800    -0.000005    -0.000000     1.093800
	   17 R(15,18)        =      1.524377    -0.000005    -0.000000     1.524376
	   18 R(18,19)        =      1.095373    -0.000003    -0.000000     1.095373
	   19 R(18,20)        =      1.093009    -0.000003    -0.000000     1.093009
	   20 R(18,21)        =      1.524044    -0.000001    -0.000000     1.524044
	   21 R(21,22)        =      1.093009    -0.000000    -0.000000     1.093009
	   22 R(21,23)        =      1.095373    -0.000001    -0.000000     1.095373
	   23 R(21,24)        =      1.524376     0.000004     0.000000     1.524376
	   24 R(24,25)        =      1.093800     0.000003     0.000000     1.093800
	   25 R(24,26)        =      1.095025     0.000003     0.000000     1.095025
	   26 B(1,9,10)       =    109.151604     0.000000     0.000004   109.151607
	   27 B(1,9,11)       =    109.618714     0.000000     0.000001   109.618715
	   28 B(1,9,15)       =    113.301415    -0.000000    -0.000001   113.301414
	   29 B(2,1,3)        =    107.828225     0.000000     0.000002   107.828226
	   30 B(2,1,4)        =    107.862796    -0.000000     0.000000   107.862796
	   31 B(2,1,9)        =    110.601270    -0.000000    -0.000001   110.601269
	   32 B(3,1,4)        =    107.601513    -0.000000     0.000002   107.601515
	   33 B(3,1,9)        =    111.601844    -0.000000    -0.000004   111.601840
	   34 B(4,1,9)        =    111.182621     0.000000     0.000002   111.182623
	   35 B(5,12,13)      =    109.151607    -0.000000    -0.000010   109.151597
	   36 B(5,12,14)      =    109.618710    -0.000000     0.000004   109.618713
	   37 B(5,12,24)      =    113.301424     0.000000     0.000011   113.301435
	   38 B(6,5,7)        =    107.601511     0.000000     0.000003   107.601514
	   39 B(6,5,8)        =    107.862796     0.000000     0.000001   107.862796
	   40 B(6,5,12)       =    111.182623    -0.000000    -0.000010   111.182613
	   41 B(7,5,8)        =    107.828226    -0.000000    -0.000000   107.828225
	   42 B(7,5,12)       =    111.601839     0.000000     0.000005   111.601844
	   43 B(8,5,12)       =    110.601274     0.000000     0.000002   110.601276
	   44 B(9,15,16)      =    109.205627     0.000000     0.000012   109.205638
	   45 B(9,15,17)      =    109.196522    -0.000000    -0.000007   109.196515
	   46 B(9,15,18)      =    113.922272     0.000000     0.000015   113.922287
	   47 B(10,9,11)      =    106.465990    -0.000000     0.000000   106.465990
	   48 B(10,9,15)      =    109.004904     0.000000    -0.000000   109.004903
	   49 B(11,9,15)      =    109.068820     0.000000    -0.000003   109.068817
	   50 B(12,24,21)     =    113.922279    -0.000000     0.000002   113.922281
	   51 B(12,24,25)     =    109.196508     0.000000     0.000006   109.196514
	   52 B(12,24,26)     =    109.205656    -0.000000    -0.000009   109.205647
	   53 B(13,12,14)     =    106.465987     0.000000    -0.000000   106.465987
	   54 B(13,12,24)     =    109.004905    -0.000000    -0.000007   109.004898
	   55 B(14,12,24)     =    109.068812    -0.000000     0.000002   109.068814
	   56 B(15,18,19)     =    109.163512     0.000000    -0.000011   109.163501
	   57 B(15,18,20)     =    110.114997     0.000000     0.000001   110.114998
	   58 B(15,18,21)     =    112.691016    -0.000000    -0.000032   112.690984
	   59 B(16,15,17)     =    106.459555     0.000000    -0.000003   106.459553
	   60 B(16,15,18)     =    109.134344    -0.000000    -0.000005   109.134339
	   61 B(17,15,18)     =    108.655563    -0.000000    -0.000013   108.655550
	   62 B(18,21,22)     =    108.884452    -0.000000    -0.000017   108.884435
	   63 B(18,21,23)     =    109.250558    -0.000000    -0.000003   109.250554
	   64 B(18,21,24)     =    112.690978     0.000000     0.000015   112.690993
	   65 B(19,18,20)     =    106.546255    -0.000000     0.000023   106.546278
	   66 B(19,18,21)     =    109.250539     0.000000     0.000004   109.250542
	   67 B(20,18,21)     =    108.884416     0.000000     0.000019   108.884435
	   68 B(21,24,25)     =    108.655544     0.000000     0.000009   108.655553
	   69 B(21,24,26)     =    109.134351     0.000000    -0.000010   109.134341
	   70 B(22,21,23)     =    106.546311     0.000000    -0.000015   106.546295
	   71 B(22,21,24)     =    110.114971    -0.000000     0.000001   110.114973
	   72 B(23,21,24)     =    109.163471    -0.000000     0.000018   109.163489
	   73 B(25,24,26)     =    106.459544    -0.000000     0.000002   106.459546
	   74 D(1,9,15,16)    =    -58.620220    -0.000000    -0.000046   -58.620266
	   75 D(1,9,15,17)    =   -174.659440    -0.000000    -0.000046  -174.659486
	   76 D(1,9,15,18)    =     63.672858     0.000000    -0.000034    63.672824
	   77 D(2,1,9,10)     =    -65.855618    -0.000000    -0.000020   -65.855639
	   78 D(2,1,9,11)     =    177.891269    -0.000000    -0.000023   177.891246
	   79 D(2,1,9,15)     =     55.807211    -0.000000    -0.000019    55.807192
	   80 D(3,1,9,10)     =    174.102554     0.000000    -0.000018   174.102535
	   81 D(3,1,9,11)     =     57.849441    -0.000000    -0.000021    57.849420
	   82 D(3,1,9,15)     =    -64.234617     0.000000    -0.000017   -64.234634
	   83 D(4,1,9,10)     =     53.953415    -0.000000    -0.000019    53.953395
	   84 D(4,1,9,11)     =    -62.299698    -0.000000    -0.000022   -62.299720
	   85 D(4,1,9,15)     =    175.616244     0.000000    -0.000018   175.616226
	   86 D(5,12,24,21)   =    -63.672794    -0.000000    -0.000117   -63.672911
	   87 D(5,12,24,25)   =    174.659534    -0.000000    -0.000135   174.659399
	   88 D(5,12,24,26)   =     58.620319    -0.000000    -0.000135    58.620184
	   89 D(6,5,12,13)    =    -53.953306    -0.000000    -0.000067   -53.953373
	   90 D(6,5,12,14)    =     62.299802    -0.000000    -0.000070    62.299732
	   91 D(6,5,12,24)    =   -175.616146     0.000000    -0.000058  -175.616204
	   92 D(7,5,12,13)    =   -174.102440    -0.000000    -0.000067  -174.102507
	   93 D(7,5,12,14)    =    -57.849332    -0.000000    -0.000071   -57.849403
	   94 D(7,5,12,24)    =     64.234719     0.000000    -0.000058    64.234661
	   95 D(8,5,12,13)    =     65.855731    -0.000000    -0.000071    65.855660
	   96 D(8,5,12,14)    =   -177.891161    -0.000000    -0.000075  -177.891236
	   97 D(8,5,12,24)    =    -55.807110     0.000000    -0.000062   -55.807172
	   98 D(9,15,18,19)   =     54.640376    -0.000000    -0.000193    54.640183
	   99 D(9,15,18,20)   =    -61.998112    -0.000000    -0.000215   -61.998327
	  100 D(9,15,18,21)   =    176.216588    -0.000000    -0.000218   176.216370
	  101 D(10,9,15,16)   =     63.124747     0.000000    -0.000043    63.124705
	  102 D(10,9,15,17)   =    -52.914473    -0.000000    -0.000042   -52.914515
	  103 D(10,9,15,18)   =   -174.582175     0.000000    -0.000030  -174.582205
	  104 D(11,9,15,16)   =    178.989615    -0.000000    -0.000044   178.989571
	  105 D(11,9,15,17)   =     62.950395    -0.000000    -0.000044    62.950351
	  106 D(11,9,15,18)   =    -58.717308     0.000000    -0.000032   -58.717339
	  107 D(12,24,21,18)  =   -176.216237    -0.000000    -0.000248  -176.216485
	  108 D(12,24,21,22)  =     61.998461    -0.000000    -0.000238    61.998224
	  109 D(12,24,21,23)  =    -54.640055    -0.000000    -0.000230   -54.640285
	  110 D(13,12,24,21)  =    174.582227     0.000000    -0.000106   174.582121
	  111 D(13,12,24,25)  =     52.914555    -0.000000    -0.000124    52.914431
	  112 D(13,12,24,26)  =    -63.124660    -0.000000    -0.000125   -63.124784
	  113 D(14,12,24,21)  =     58.717367     0.000000    -0.000103    58.717263
	  114 D(14,12,24,25)  =    -62.950306    -0.000000    -0.000121   -62.950427
	  115 D(14,12,24,26)  =   -178.989520    -0.000000    -0.000122  -178.989642
	  116 D(15,18,21,22)  =    -57.520812     0.000000    -0.000102   -57.520914
	  117 D(15,18,21,23)  =     58.473328    -0.000000    -0.000132    58.473196
	  118 D(15,18,21,24)  =    180.000000     0.000000     0.000000   180.000000
	  119 D(16,15,18,19)  =    176.972635     0.000000    -0.000172   176.972463
	  120 D(16,15,18,20)  =     60.334147    -0.000000    -0.000193    60.333953
	  121 D(16,15,18,21)  =    -61.451153    -0.000000    -0.000196   -61.451349
	  122 D(17,15,18,19)  =    -67.326287     0.000000    -0.000185   -67.326471
	  123 D(17,15,18,20)  =    176.035225    -0.000000    -0.000206   176.035019
	  124 D(17,15,18,21)  =     54.249925    -0.000000    -0.000209    54.249716
	  125 D(18,21,24,25)  =    -54.249602    -0.000000    -0.000232   -54.249834
	  126 D(18,21,24,26)  =     61.451457    -0.000000    -0.000231    61.451226
	  127 D(19,18,21,22)  =     64.006026    -0.000000    -0.000135    64.005890
	  128 D(19,18,21,23)  =    180.000000    -0.000000     0.000000   180.000000
	  129 D(19,18,21,24)  =    -58.473061    -0.000000    -0.000135   -58.473196
	  130 D(20,18,21,22)  =    180.000000     0.000000     0.000000   180.000000
	  131 D(20,18,21,23)  =    -64.005791    -0.000000    -0.000125   -64.005917
	  132 D(20,18,21,24)  =     57.520982     0.000000    -0.000095    57.520887
	  133 D(22,21,24,25)  =   -176.034904    -0.000000    -0.000221  -176.035125
	  134 D(22,21,24,26)  =    -60.333845    -0.000000    -0.000220   -60.334065
	  135 D(23,21,24,25)  =     67.326580     0.000000    -0.000214    67.326366
	  136 D(23,21,24,26)  =   -176.972361     0.000000    -0.000212  -176.972574
	 ---------------------------------------------------------------------------

  ==> Convergence Check <==

  Measures of convergence in internal coordinates in au.
  Criteria marked as inactive (o), active & met (*), and active & unmet ( ).
  ---------------------------------------------------------------------------------------------
   Step     Total Energy     Delta E     MAX Force     RMS Force      MAX Disp      RMS Disp   
  ---------------------------------------------------------------------------------------------
    Convergence Criteria             o    2.00e-06 *    1.00e-06 *    6.00e-06 *    4.00e-06 *
  ---------------------------------------------------------------------------------------------
     12    -314.98367331    5.09e-09 o    7.79e-07 *    2.01e-07 *    4.33e-06 *    1.58e-06 *  ~
  ---------------------------------------------------------------------------------------------


  **** Optimization is complete! (in 12 steps) ****

  ==> Optimization Summary <==

  Measures of convergence in internal coordinates in au.
  --------------------------------------------------------------------------------------------------------------- ~
   Step         Total Energy             Delta E       MAX Force       RMS Force        MAX Disp        RMS Disp  ~
  --------------------------------------------------------------------------------------------------------------- ~
      1    -314.983673308948   -314.983673308948      0.00000105      0.00000025      0.00003868      0.00000974  ~
      2    -314.983673307051      0.000000001897      0.00000209      0.00000056      0.00003047      0.00000780  ~
      3    -314.983673311090     -0.000000004040      0.00000095      0.00000019      0.00002262      0.00000725  ~
      4    -314.983673309859      0.000000001232      0.00000056      0.00000017      0.00001957      0.00000613  ~
      5    -314.983673307990      0.000000001868      0.00000057      0.00000018      0.00003065      0.00000944  ~
      6    -314.983673314449     -0.000000006459      0.00000104      0.00000022      0.00002064      0.00000638  ~
      7    -314.983673307512      0.000000006937      0.00000230      0.00000059      0.00002150      0.00000652  ~
      8    -314.983673308587     -0.000000001075      0.00000084      0.00000017      0.00001402      0.00000468  ~
      9    -314.983673310043     -0.000000001457      0.00000288      0.00000072      0.00001241      0.00000430  ~
     10    -314.983673311848     -0.000000001804      0.00000304      0.00000076      0.00000753      0.00000197  ~
     11    -314.983673311851     -0.000000000003      0.00000157      0.00000041      0.00000873      0.00000326  ~
     12    -314.983673306758      0.000000005092      0.00000078      0.00000020      0.00000433      0.00000158  ~
  --------------------------------------------------------------------------------------------------------------- ~

	Writing optimization data to binary file.
	Final energy is   -314.9836733067585
	Final (previous) structure:
	Cartesian Geometry (in Angstrom)
	    C     3.7314115284   0.7956693493   0.1487037527
	    H     3.7283355835   0.8904041221   1.2359641628
	    H     3.1540258582   1.6240066220  -0.2598543103
	    H     4.7595487865   0.9100318398  -0.1938820434
	    C    -3.7314135763  -0.7956679994  -0.1486932146
	    H    -4.7595506099  -0.9100254888   0.1938949417
	    H    -3.1540292347  -1.6240034162   0.2598704966
	    H    -3.7283394040  -0.8904112477  -1.2359528535
	    C     3.1563551399  -0.5520070937  -0.2741333858
	    H     3.8214598556  -1.3483721709   0.0671294142
	    H     3.1322374395  -0.6147469437  -1.3655840784
	    C    -3.1563534164   0.5520103601   0.2741327042
	    H    -3.8214576618   1.3483742283  -0.0671335212
	    H    -3.1322322843   0.6147577433   1.3655827958
	    C     1.7533055933  -0.8080032900   0.2714026435
	    H     1.7784636489  -0.7635577155   1.3652364129
	    H     1.4455122958  -1.8244103595   0.0095281548
	    C     0.7019894772   0.1679704248  -0.2442847558
	    H     0.7138957923   0.1636765533  -1.3395843934
	    H     0.9502241459   1.1862756432   0.0657196900
	    C    -0.7019895171  -0.1679722903   0.2442806372
	    H    -0.9502243181  -1.1862778586  -0.0657224342
	    H    -0.7138968857  -0.1636756039   1.3395802623
	    C    -1.7533050573   0.8080003031  -0.2714091537
	    H    -1.4455089025   1.8244078607  -0.0095411605
	    H    -1.7784661498   0.7635490030  -1.3652423410
	Saving final (previous) structure.
			--------------------------
			 OPTKING Finished Execution 
			--------------------------

    Final optimized geometry and variables:
    Molecular point group: c1
    Full point group: C1

    Geometry (in Angstrom), charge = 0, multiplicity = 1:

    C            3.731411528355     0.795669349279     0.148703752728
    H            3.728335583472     0.890404122138     1.235964162846
    H            3.154025858172     1.624006622010    -0.259854310298
    H            4.759548786472     0.910031839830    -0.193882043424
    C           -3.731413576266    -0.795667999446    -0.148693214595
    H           -4.759550609923    -0.910025488761     0.193894941689
    H           -3.154029234659    -1.624003416228     0.259870496602
    H           -3.728339403962    -0.890411247688    -1.235952853471
    C            3.156355139900    -0.552007093670    -0.274133385784
    H            3.821459855592    -1.348372170940     0.067129414239
    H            3.132237439542    -0.614746943733    -1.365584078438
    C           -3.156353416376     0.552010360149     0.274132704182
    H           -3.821457661811     1.348374228251    -0.067133521170
    H           -3.132232284320     0.614757743282     1.365582795763
    C            1.753305593294    -0.808003289979     0.271402643492
    H            1.778463648907    -0.763557715476     1.365236412917
    H            1.445512295838    -1.824410359546     0.009528154789
    C            0.701989477238     0.167970424835    -0.244284755750
    H            0.713895792265     0.163676553253    -1.339584393350
    H            0.950224145915     1.186275643174     0.065719690035
    C           -0.701989517146    -0.167972290341     0.244280637199
    H           -0.950224318148    -1.186277858560    -0.065722434239
    H           -0.713896885693    -0.163675603876     1.339580262290
    C           -1.753305057271     0.808000303108    -0.271409153748
    H           -1.445508902549     1.824407860692    -0.009541160458
    H           -1.778466149847     0.763549002951    -1.365242340950

	Cleaning optimization helper files.

*** Psi4 exiting successfully. Buy a developer a beer!
