    -----------------------------------------------------------------------
          Psi4: An Open-Source Ab Initio Electronic Structure Package
                              Psi4 1.0.0 Driver

                          Git: Rev {master} 6a9a71b dirty

    J. M. Turney, A. C. Simmonett, R. M. Parrish, E. G. Hohenstein,
    F. A. Evangelista, J. T. Fermann, B. J. Mintz, L. A. Burns, J. J. Wilke,
    M. L. Abrams, N. J. Russ, M. L. Leininger, C. L. Janssen, E. T. Seidl,
    W. D. Allen, H. F. Schaefer, R. A. King, E. F. Valeev, C. D. Sherrill,
    and T. D. Crawford, WIREs Comput. Mol. Sci. 2, 556-565 (2012)
    (doi: 10.1002/wcms.93)

                         Additional Contributions by
    A. E. DePrince, U. Bozkaya, A. Yu. Sokolov, D. G. A. Smith, R. Di Remigio,
    R. M. Richard, J. F. Gonthier, H. R. McAlexander, M. Saitow, and
    B. P. Pritchard
    -----------------------------------------------------------------------


    Psi4 started on: Wed Sep 21 04:57:33 2016

    Process ID:   1313
    PSI4DATADIR: /usr/local/hpc5/psi4conda/share/psi4
    Memory level set to 256.000 MB

  ==> Input File <==

--------------------------------------------------------------------------
memory 60 Gb

molecule molecule_36_psi {
0 1
C            3.179712176636     0.771468307006     0.771055058341
H            4.215278190028     1.108065681068     0.728488499182
H            3.155383599735    -0.146372843823     1.357011807704
H            2.604016148373     1.526719475387     1.309136388218
C           -3.216928149583     1.325651401596     0.262189652862
H           -4.010241336381     0.792172173423     0.787722440701
H           -3.684072955399     2.001037756938    -0.454166100030
H           -2.683373123234     1.931498285774     0.995922587050
C            2.611250663498     0.560064512581    -0.628281376720
H            3.171416783122    -0.229279066472    -1.137207881271
H            2.755158793153     1.470309740263    -1.214619285731
C           -2.268936291192     0.348055111631    -0.420735011516
H           -2.811321274311    -0.226530143127    -1.176389134056
H           -1.491393950402     0.898178763799    -0.952795593104
C            1.127103977648     0.198741262072    -0.627555229495
H            0.765894978268     0.154551920416    -1.659438783953
H            0.569779654443     1.000739096849    -0.134173097930
C            0.830481502562    -1.131984632553     0.055685435606
H            1.087112126804    -1.065347645239     1.116337429730
H            1.483713584323    -1.898073637637    -0.374623232690
C           -0.622548490580    -1.592690930712    -0.058536339167
H           -0.874812612652    -1.743897057817    -1.113034940199
H           -0.705798916656    -2.570934618906     0.419769920153
C           -1.636293086514    -0.626127804320     0.569390349592
H           -2.442634917195    -1.192296250747     1.043250644676
H           -1.149854409336    -0.062348028768     1.373103468744
}

set globals {
  reference rhf
  g_convergence gau_verytight
  basis aug-cc-pvtz
  freeze_core true
  scf_type df
  mp_type df
}
optimize('mp2')
--------------------------------------------------------------------------
/usr/local/hpc5/psi4conda/lib/python2.7/site-packages/v2rdm_casscf/v2rdm_casscf.so loaded.

  Memory set to  60.000 GiB by Python script.
gradient() will perform analytic gradient computation.

*** tstart() called on wr39
*** at Wed Sep 21 04:57:34 2016


         ---------------------------------------------------------
                                   SCF
            by Justin Turney, Rob Parrish, and Andy Simmonett
                              RHF Reference
                       12 Threads,  60000 MiB Core
         ---------------------------------------------------------

  ==> Geometry <==

    Molecular point group: c1
    Full point group: C1

    Geometry (in Angstrom), charge = 0, multiplicity = 1:

       Center              X                  Y                   Z               Mass       
    ------------   -----------------  -----------------  -----------------  -----------------
           C          3.179712176636     0.771468307006     0.771055058341    12.000000000000
           H          4.215278190028     1.108065681068     0.728488499182     1.007825032070
           H          3.155383599735    -0.146372843823     1.357011807704     1.007825032070
           H          2.604016148373     1.526719475387     1.309136388218     1.007825032070
           C         -3.216928149583     1.325651401596     0.262189652862    12.000000000000
           H         -4.010241336381     0.792172173423     0.787722440701     1.007825032070
           H         -3.684072955399     2.001037756938    -0.454166100030     1.007825032070
           H         -2.683373123234     1.931498285774     0.995922587050     1.007825032070
           C          2.611250663498     0.560064512581    -0.628281376720    12.000000000000
           H          3.171416783122    -0.229279066472    -1.137207881271     1.007825032070
           H          2.755158793153     1.470309740263    -1.214619285731     1.007825032070
           C         -2.268936291192     0.348055111631    -0.420735011516    12.000000000000
           H         -2.811321274311    -0.226530143127    -1.176389134056     1.007825032070
           H         -1.491393950402     0.898178763799    -0.952795593104     1.007825032070
           C          1.127103977648     0.198741262072    -0.627555229495    12.000000000000
           H          0.765894978268     0.154551920416    -1.659438783953     1.007825032070
           H          0.569779654443     1.000739096849    -0.134173097930     1.007825032070
           C          0.830481502562    -1.131984632553     0.055685435606    12.000000000000
           H          1.087112126804    -1.065347645239     1.116337429730     1.007825032070
           H          1.483713584323    -1.898073637637    -0.374623232690     1.007825032070
           C         -0.622548490580    -1.592690930712    -0.058536339167    12.000000000000
           H         -0.874812612652    -1.743897057817    -1.113034940199     1.007825032070
           H         -0.705798916656    -2.570934618906     0.419769920153     1.007825032070
           C         -1.636293086514    -0.626127804320     0.569390349592    12.000000000000
           H         -2.442634917195    -1.192296250747     1.043250644676     1.007825032070
           H         -1.149854409336    -0.062348028768     1.373103468744     1.007825032070

  Running in c1 symmetry.

  Rotational constants: A =      0.10561  B =      0.02784  C =      0.02483 [cm^-1]
  Rotational constants: A =   3166.10460  B =    834.72363  C =    744.37561 [MHz]
  Nuclear repulsion =  395.372676689943432

  Charge       = 0
  Multiplicity = 1
  Electrons    = 66
  Nalpha       = 33
  Nbeta        = 33

  ==> Algorithm <==

  SCF Algorithm Type is DF.
  DIIS enabled.
  MOM disabled.
  Fractional occupation disabled.
  Guess Type is SAD.
  Energy threshold   = 1.00e-10
  Density threshold  = 1.00e-10
  Integral threshold = 0.00e+00

  ==> Primary Basis <==

  Basis Set: AUG-CC-PVTZ
    Number of shells: 274
    Number of basis function: 782
    Number of Cartesian functions: 890
    Spherical Harmonics?: true
    Max angular momentum: 3

  ==> Pre-Iterations <==

   -------------------------------------------------------
    Irrep   Nso     Nmo     Nalpha   Nbeta   Ndocc  Nsocc
   -------------------------------------------------------
     A        782     782       0       0       0       0
   -------------------------------------------------------
    Total     782     782      33      33      33       0
   -------------------------------------------------------

  ==> Integral Setup <==

  ==> DFJK: Density-Fitted J/K Matrices <==

    J tasked:                  Yes
    K tasked:                  Yes
    wK tasked:                  No
    OpenMP threads:             12
    Integrals threads:          12
    Memory (MB):             42915
    Algorithm:                Core
    Integral Cache:           NONE
    Schwarz Cutoff:          1E-12
    Fitting Condition:       1E-12

   => Auxiliary Basis Set <=

  Basis Set: 
    Number of shells: 492
    Number of basis function: 1660
    Number of Cartesian functions: 2038
    Spherical Harmonics?: true
    Max angular momentum: 4

  Minimum eigenvalue in the overlap matrix is 1.8471462877E-06.
  Using Symmetric Orthogonalization.
  SCF Guess: Superposition of Atomic Densities via on-the-fly atomic UHF.

  ==> Iterations <==

                           Total Energy        Delta E     RMS |[F,P]|

   @DF-RHF iter   0:  -316.96274282164973   -3.16963e+02   7.01115e-03 
   @DF-RHF iter   1:  -313.30849268431814    3.65425e+00   6.86954e-04 
   @DF-RHF iter   2:  -313.50941579092637   -2.00923e-01   2.43243e-04 DIIS
   @DF-RHF iter   3:  -313.53410646712200   -2.46907e-02   9.85567e-05 DIIS
   @DF-RHF iter   4:  -313.53882333748027   -4.71687e-03   1.52211e-05 DIIS
   @DF-RHF iter   5:  -313.53897981692273   -1.56479e-04   4.29671e-06 DIIS
   @DF-RHF iter   6:  -313.53899046728759   -1.06504e-05   1.23156e-06 DIIS
   @DF-RHF iter   7:  -313.53899130204138   -8.34754e-07   2.38359e-07 DIIS
   @DF-RHF iter   8:  -313.53899134195103   -3.99097e-08   5.86650e-08 DIIS
   @DF-RHF iter   9:  -313.53899134412404   -2.17301e-09   1.75348e-08 DIIS
   @DF-RHF iter  10:  -313.53899134431731   -1.93268e-10   4.95103e-09 DIIS
   @DF-RHF iter  11:  -313.53899134433402   -1.67120e-11   1.19816e-09 DIIS
   @DF-RHF iter  12:  -313.53899134433459   -5.68434e-13   3.23739e-10 DIIS
   @DF-RHF iter  13:  -313.53899134433414    4.54747e-13   1.04760e-10 DIIS
   @DF-RHF iter  14:  -313.53899134433482   -6.82121e-13   2.69134e-11 DIIS

  ==> Post-Iterations <==

    Orbital Energies (a.u.)
    -----------------------

    Doubly Occupied:                                                      

       1A    -11.213042     2A    -11.211101     3A    -11.210785  
       4A    -11.210477     5A    -11.210031     6A    -11.209788  
       7A    -11.206876     8A    -11.206604     9A     -1.093973  
      10A     -1.059186    11A     -1.009778    12A     -0.944689  
      13A     -0.888375    14A     -0.825148    15A     -0.786122  
      16A     -0.763485    17A     -0.645175    18A     -0.628776  
      19A     -0.606107    20A     -0.590472    21A     -0.585354  
      22A     -0.563350    23A     -0.540985    24A     -0.532214  
      25A     -0.510404    26A     -0.501942    27A     -0.490776  
      28A     -0.473756    29A     -0.467112    30A     -0.461183  
      31A     -0.449968    32A     -0.435522    33A     -0.432615  

    Virtual:                                                              

      34A      0.029169    35A      0.032993    36A      0.033552  
      37A      0.035412    38A      0.046418    39A      0.047491  
      40A      0.049358    41A      0.053246    42A      0.055461  
      43A      0.066650    44A      0.069351    45A      0.071029  
      46A      0.073913    47A      0.080909    48A      0.082054  
      49A      0.091158    50A      0.093171    51A      0.102957  
      52A      0.114026    53A      0.117122    54A      0.117320  
      55A      0.123706    56A      0.128838    57A      0.131709  
      58A      0.134025    59A      0.137404    60A      0.139840  
      61A      0.145040    62A      0.147632    63A      0.149031  
      64A      0.154129    65A      0.157016    66A      0.162561  
      67A      0.167527    68A      0.168195    69A      0.171175  
      70A      0.174680    71A      0.181279    72A      0.183599  
      73A      0.187949    74A      0.190741    75A      0.195744  
      76A      0.205421    77A      0.213653    78A      0.214322  
      79A      0.228477    80A      0.234412    81A      0.240441  
      82A      0.242882    83A      0.249471    84A      0.251689  
      85A      0.263589    86A      0.273932    87A      0.276995  
      88A      0.281624    89A      0.287325    90A      0.295716  
      91A      0.302154    92A      0.305698    93A      0.310082  
      94A      0.312388    95A      0.318030    96A      0.320280  
      97A      0.323008    98A      0.327476    99A      0.330717  
     100A      0.336432   101A      0.337483   102A      0.341753  
     103A      0.348532   104A      0.350497   105A      0.355843  
     106A      0.359240   107A      0.362163   108A      0.365664  
     109A      0.367180   110A      0.373598   111A      0.376818  
     112A      0.381346   113A      0.383977   114A      0.384894  
     115A      0.388084   116A      0.389883   117A      0.396540  
     118A      0.400496   119A      0.404580   120A      0.412159  
     121A      0.415741   122A      0.420643   123A      0.423764  
     124A      0.427670   125A      0.434281   126A      0.435808  
     127A      0.439802   128A      0.441197   129A      0.446913  
     130A      0.451727   131A      0.454793   132A      0.458554  
     133A      0.464792   134A      0.466122   135A      0.469520  
     136A      0.472876   137A      0.476235   138A      0.477386  
     139A      0.485548   140A      0.490482   141A      0.491832  
     142A      0.494319   143A      0.495831   144A      0.502873  
     145A      0.506366   146A      0.509517   147A      0.511312  
     148A      0.515309   149A      0.524735   150A      0.526569  
     151A      0.531824   152A      0.535384   153A      0.537427  
     154A      0.542401   155A      0.543157   156A      0.551188  
     157A      0.556739   158A      0.559134   159A      0.562224  
     160A      0.569814   161A      0.574620   162A      0.578682  
     163A      0.581864   164A      0.587364   165A      0.592991  
     166A      0.595995   167A      0.599809   168A      0.606191  
     169A      0.609195   170A      0.617585   171A      0.620193  
     172A      0.623694   173A      0.630048   174A      0.634137  
     175A      0.638368   176A      0.643981   177A      0.650721  
     178A      0.654929   179A      0.658696   180A      0.666987  
     181A      0.671470   182A      0.676084   183A      0.684293  
     184A      0.689834   185A      0.691970   186A      0.693051  
     187A      0.698670   188A      0.704945   189A      0.712927  
     190A      0.720064   191A      0.724380   192A      0.734034  
     193A      0.739683   194A      0.742836   195A      0.753671  
     196A      0.758686   197A      0.770490   198A      0.778059  
     199A      0.781956   200A      0.784656   201A      0.802619  
     202A      0.810465   203A      0.818279   204A      0.825627  
     205A      0.835819   206A      0.838375   207A      0.843698  
     208A      0.845391   209A      0.849206   210A      0.856209  
     211A      0.866452   212A      0.872317   213A      0.877242  
     214A      0.882138   215A      0.886203   216A      0.893437  
     217A      0.897863   218A      0.903729   219A      0.911414  
     220A      0.913224   221A      0.915526   222A      0.919655  
     223A      0.927492   224A      0.929214   225A      0.937455  
     226A      0.939299   227A      0.941792   228A      0.945367  
     229A      0.950690   230A      0.953669   231A      0.958475  
     232A      0.962706   233A      0.969992   234A      0.973077  
     235A      0.983983   236A      0.991899   237A      0.996923  
     238A      0.999770   239A      1.002190   240A      1.006371  
     241A      1.009525   242A      1.013565   243A      1.017776  
     244A      1.027670   245A      1.030658   246A      1.037891  
     247A      1.040748   248A      1.049715   249A      1.057911  
     250A      1.064333   251A      1.065839   252A      1.073310  
     253A      1.080051   254A      1.080717   255A      1.084382  
     256A      1.090919   257A      1.101147   258A      1.104243  
     259A      1.109844   260A      1.116671   261A      1.120800  
     262A      1.126270   263A      1.130754   264A      1.136274  
     265A      1.142193   266A      1.143788   267A      1.147663  
     268A      1.155940   269A      1.162317   270A      1.164352  
     271A      1.170936   272A      1.177165   273A      1.180040  
     274A      1.185729   275A      1.198838   276A      1.200671  
     277A      1.201158   278A      1.207793   279A      1.215918  
     280A      1.216945   281A      1.220864   282A      1.225151  
     283A      1.229767   284A      1.238566   285A      1.242657  
     286A      1.249582   287A      1.255208   288A      1.265166  
     289A      1.268787   290A      1.276653   291A      1.285025  
     292A      1.288096   293A      1.296780   294A      1.299860  
     295A      1.304376   296A      1.310162   297A      1.313861  
     298A      1.321708   299A      1.325586   300A      1.337520  
     301A      1.339470   302A      1.347592   303A      1.354175  
     304A      1.362284   305A      1.365115   306A      1.375272  
     307A      1.382184   308A      1.386863   309A      1.388747  
     310A      1.395300   311A      1.406526   312A      1.417510  
     313A      1.422135   314A      1.432092   315A      1.436376  
     316A      1.440672   317A      1.451090   318A      1.452862  
     319A      1.456911   320A      1.463157   321A      1.466618  
     322A      1.477416   323A      1.489079   324A      1.499942  
     325A      1.507586   326A      1.511867   327A      1.518846  
     328A      1.529376   329A      1.535002   330A      1.542275  
     331A      1.548075   332A      1.557038   333A      1.562930  
     334A      1.566326   335A      1.579742   336A      1.593765  
     337A      1.600423   338A      1.608637   339A      1.620454  
     340A      1.628731   341A      1.630759   342A      1.642044  
     343A      1.652081   344A      1.655873   345A      1.657471  
     346A      1.661450   347A      1.672560   348A      1.677226  
     349A      1.687573   350A      1.692422   351A      1.697339  
     352A      1.700474   353A      1.702626   354A      1.708562  
     355A      1.711250   356A      1.717511   357A      1.723726  
     358A      1.731809   359A      1.732798   360A      1.736831  
     361A      1.742729   362A      1.750619   363A      1.756848  
     364A      1.766285   365A      1.771070   366A      1.776125  
     367A      1.784142   368A      1.787296   369A      1.792246  
     370A      1.798034   371A      1.805818   372A      1.809453  
     373A      1.818064   374A      1.826328   375A      1.831004  
     376A      1.841181   377A      1.846456   378A      1.850873  
     379A      1.855509   380A      1.860601   381A      1.866658  
     382A      1.872177   383A      1.878080   384A      1.882744  
     385A      1.894892   386A      1.900171   387A      1.904591  
     388A      1.910495   389A      1.915160   390A      1.917320  
     391A      1.933349   392A      1.940855   393A      1.955984  
     394A      1.961495   395A      1.970464   396A      1.973579  
     397A      1.981195   398A      1.983140   399A      1.986074  
     400A      1.994513   401A      1.996978   402A      2.007976  
     403A      2.014999   404A      2.017149   405A      2.029457  
     406A      2.035879   407A      2.044995   408A      2.052816  
     409A      2.053360   410A      2.067343   411A      2.079244  
     412A      2.089302   413A      2.089953   414A      2.097911  
     415A      2.099421   416A      2.109626   417A      2.112878  
     418A      2.117301   419A      2.127543   420A      2.137222  
     421A      2.143726   422A      2.152149   423A      2.162758  
     424A      2.169849   425A      2.180894   426A      2.184660  
     427A      2.202311   428A      2.211209   429A      2.219010  
     430A      2.226756   431A      2.228631   432A      2.235444  
     433A      2.249708   434A      2.260086   435A      2.271439  
     436A      2.283637   437A      2.286354   438A      2.291450  
     439A      2.299594   440A      2.309880   441A      2.317457  
     442A      2.333363   443A      2.338883   444A      2.346751  
     445A      2.347779   446A      2.359236   447A      2.373225  
     448A      2.380682   449A      2.389068   450A      2.392730  
     451A      2.395857   452A      2.405188   453A      2.411373  
     454A      2.419950   455A      2.428122   456A      2.443012  
     457A      2.459907   458A      2.478469   459A      2.487043  
     460A      2.493067   461A      2.503475   462A      2.513437  
     463A      2.526445   464A      2.536720   465A      2.542847  
     466A      2.554739   467A      2.565319   468A      2.573081  
     469A      2.596792   470A      2.615651   471A      2.620815  
     472A      2.643902   473A      2.657574   474A      2.667536  
     475A      2.684262   476A      2.695257   477A      2.704607  
     478A      2.725875   479A      2.730801   480A      2.766485  
     481A      2.771722   482A      2.802721   483A      2.826496  
     484A      2.850753   485A      2.913814   486A      2.965483  
     487A      3.004357   488A      3.038091   489A      3.065110  
     490A      3.150732   491A      3.187263   492A      3.196226  
     493A      3.299282   494A      3.315308   495A      3.329726  
     496A      3.420211   497A      3.443045   498A      3.455241  
     499A      3.467124   500A      3.475403   501A      3.491851  
     502A      3.498892   503A      3.500928   504A      3.519990  
     505A      3.534708   506A      3.555360   507A      3.567666  
     508A      3.580988   509A      3.588904   510A      3.594497  
     511A      3.606055   512A      3.623439   513A      3.629412  
     514A      3.631379   515A      3.643768   516A      3.648837  
     517A      3.666467   518A      3.673702   519A      3.679364  
     520A      3.685534   521A      3.703634   522A      3.706680  
     523A      3.710346   524A      3.715653   525A      3.739409  
     526A      3.749270   527A      3.755633   528A      3.762565  
     529A      3.769212   530A      3.786389   531A      3.795369  
     532A      3.797767   533A      3.804187   534A      3.811172  
     535A      3.822928   536A      3.839883   537A      3.846418  
     538A      3.851986   539A      3.863000   540A      3.864095  
     541A      3.882662   542A      3.884871   543A      3.890593  
     544A      3.902235   545A      3.910023   546A      3.917282  
     547A      3.923737   548A      3.926371   549A      3.943080  
     550A      3.953075   551A      3.957097   552A      3.963100  
     553A      3.970767   554A      3.975198   555A      3.981853  
     556A      3.993778   557A      3.996692   558A      4.006300  
     559A      4.007820   560A      4.013874   561A      4.020080  
     562A      4.023985   563A      4.037727   564A      4.045748  
     565A      4.053287   566A      4.056467   567A      4.066264  
     568A      4.081122   569A      4.084929   570A      4.091521  
     571A      4.095531   572A      4.104124   573A      4.108573  
     574A      4.120618   575A      4.128519   576A      4.133186  
     577A      4.148482   578A      4.163577   579A      4.174267  
     580A      4.183453   581A      4.190014   582A      4.198886  
     583A      4.210207   584A      4.220289   585A      4.226257  
     586A      4.235815   587A      4.250045   588A      4.254742  
     589A      4.266050   590A      4.271877   591A      4.280416  
     592A      4.294670   593A      4.300129   594A      4.307185  
     595A      4.319527   596A      4.334907   597A      4.347008  
     598A      4.350355   599A      4.363180   600A      4.369683  
     601A      4.372167   602A      4.388911   603A      4.399593  
     604A      4.418600   605A      4.425577   606A      4.437921  
     607A      4.442610   608A      4.454478   609A      4.456561  
     610A      4.487778   611A      4.503395   612A      4.510350  
     613A      4.531028   614A      4.551265   615A      4.562181  
     616A      4.575736   617A      4.587467   618A      4.594669  
     619A      4.614599   620A      4.624083   621A      4.636610  
     622A      4.653580   623A      4.673819   624A      4.674061  
     625A      4.687211   626A      4.695934   627A      4.704748  
     628A      4.716241   629A      4.735283   630A      4.742346  
     631A      4.748652   632A      4.758562   633A      4.765450  
     634A      4.771599   635A      4.787447   636A      4.797224  
     637A      4.813679   638A      4.817969   639A      4.824011  
     640A      4.833358   641A      4.847463   642A      4.854433  
     643A      4.875387   644A      4.877954   645A      4.891223  
     646A      4.898591   647A      4.900090   648A      4.911185  
     649A      4.918487   650A      4.929833   651A      4.944754  
     652A      4.951525   653A      4.961476   654A      4.979579  
     655A      4.984013   656A      5.006945   657A      5.018978  
     658A      5.027873   659A      5.039473   660A      5.059694  
     661A      5.081667   662A      5.091680   663A      5.096055  
     664A      5.112970   665A      5.125758   666A      5.136879  
     667A      5.146246   668A      5.147283   669A      5.152998  
     670A      5.174289   671A      5.183405   672A      5.192899  
     673A      5.209658   674A      5.231507   675A      5.238872  
     676A      5.250264   677A      5.257672   678A      5.271758  
     679A      5.291179   680A      5.293918   681A      5.308291  
     682A      5.316730   683A      5.325524   684A      5.336776  
     685A      5.345829   686A      5.363675   687A      5.370430  
     688A      5.374752   689A      5.393800   690A      5.399890  
     691A      5.407366   692A      5.417604   693A      5.429503  
     694A      5.436071   695A      5.461249   696A      5.467409  
     697A      5.472461   698A      5.483445   699A      5.504303  
     700A      5.512687   701A      5.514943   702A      5.537321  
     703A      5.540086   704A      5.563698   705A      5.584045  
     706A      5.584690   707A      5.602592   708A      5.618605  
     709A      5.632105   710A      5.640468   711A      5.655651  
     712A      5.660746   713A      5.683277   714A      5.695774  
     715A      5.701149   716A      5.702900   717A      5.712409  
     718A      5.729505   719A      5.744185   720A      5.745527  
     721A      5.756603   722A      5.766689   723A      5.785587  
     724A      5.796287   725A      5.815376   726A      5.829153  
     727A      5.853069   728A      5.868704   729A      5.890412  
     730A      5.906315   731A      5.919733   732A      5.956668  
     733A      5.982441   734A      6.017569   735A      6.037521  
     736A      6.044462   737A      6.065459   738A      6.080025  
     739A      6.088693   740A      6.136737   741A      6.140199  
     742A      6.165966   743A      6.176065   744A      6.216387  
     745A      6.223507   746A      6.236316   747A      6.244506  
     748A      6.281556   749A      6.296504   750A      6.300465  
     751A      6.306156   752A      6.335846   753A      6.342755  
     754A      6.354189   755A      6.370163   756A      6.384552  
     757A      6.414504   758A      6.475319   759A      6.587901  
     760A      6.649290   761A      6.683569   762A      6.691525  
     763A      6.717745   764A      6.790163   765A      6.800336  
     766A      6.827950   767A      6.874661   768A      6.891032  
     769A      6.928580   770A      6.972681   771A      7.005268  
     772A      7.039203   773A      7.100555   774A      7.124371  
     775A     17.986433   776A     18.110892   777A     18.413539  
     778A     18.552675   779A     18.628295   780A     19.053498  
     781A     19.518454   782A     19.850161  

    Final Occupation by Irrep:
              A 
    DOCC [    33 ]

  Energy converged.

  @DF-RHF Final Energy:  -313.53899134433482

   => Energetics <=

    Nuclear Repulsion Energy =            395.3726766899434324
    One-Electron Energy =               -1205.8929890513634291
    Two-Electron Energy =                 496.9813210170854063
    DFT Exchange-Correlation Energy =       0.0000000000000000
    Empirical Dispersion Energy =           0.0000000000000000
    PCM Polarization Energy =               0.0000000000000000
    EFP Energy =                            0.0000000000000000
    Total Energy =                       -313.5389913443345904


  Saving occupied orbitals to File 180.

*** tstop() called on wr39 at Wed Sep 21 04:59:09 2016
Module time:
	user time   =    1014.28 seconds =      16.90 minutes
	system time =      14.32 seconds =       0.24 minutes
	total time  =         95 seconds =       1.58 minutes
Total time:
	user time   =    1014.28 seconds =      16.90 minutes
	system time =      14.32 seconds =       0.24 minutes
	total time  =         95 seconds =       1.58 minutes


Properties will be evaluated at   0.000000,   0.000000,   0.000000 Bohr

Properties computed using the SCF density matrix

  Nuclear Dipole Moment: (a.u.)
     X:    -0.0429      Y:     1.6389      Z:     0.8571

  Electronic Dipole Moment: (a.u.)
     X:     0.0620      Y:    -1.6639      Z:    -0.8942

  Dipole Moment: (a.u.)
     X:     0.0191      Y:    -0.0251      Z:    -0.0371     Total:     0.0487

  Dipole Moment: (Debye)
     X:     0.0485      Y:    -0.0637      Z:    -0.0943     Total:     0.1237


  //>>>>>>>>>>>>>>>>>>>>>>>>>>>>>>>>>>>//
  //               DFMP2               //
  //<<<<<<<<<<<<<<<<<<<<<<<<<<<<<<<<<<<//


*** tstart() called on wr39
*** at Wed Sep 21 04:59:09 2016


*** tstop() called on wr39 at Wed Sep 21 04:59:09 2016
Module time:
	user time   =       4.79 seconds =       0.08 minutes
	system time =       0.11 seconds =       0.00 minutes
	total time  =          0 seconds =       0.00 minutes
Total time:
	user time   =    1020.20 seconds =      17.00 minutes
	system time =      14.50 seconds =       0.24 minutes
	total time  =         95 seconds =       1.58 minutes
	 --------------------------------------------------------
	                          DF-MP2                         
	      2nd-Order Density-Fitted Moller-Plesset Theory     
	              RMP2 Wavefunction,  12 Threads             
	                                                         
	        Rob Parrish, Justin Turney, Andy Simmonett,      
	           Ed Hohenstein, and C. David Sherrill          
	 --------------------------------------------------------

   => Auxiliary Basis Set <=

  Basis Set: 
    Number of shells: 476
    Number of basis function: 1676
    Number of Cartesian functions: 2078
    Spherical Harmonics?: true
    Max angular momentum: 4

	 --------------------------------------------------------
	                 NBF =   782, NAUX =  1676
	 --------------------------------------------------------
	   CLASS    FOCC     OCC    AOCC    AVIR     VIR    FVIR
	   PAIRS       8      33      25     749     749       0
	 --------------------------------------------------------

DGAS Warning! /src/lib/libfock/apps.cc:80 is not currently checking restricted

         ------------------------------------------------------------
                                     CPHF                           
                                  Rob Parrish                       
         ------------------------------------------------------------

  ==> Geometry <==

    Molecular point group: c1
    Full point group: C1

    Geometry (in Angstrom), charge = 0, multiplicity = 1:

       Center              X                  Y                   Z               Mass       
    ------------   -----------------  -----------------  -----------------  -----------------
           C          3.179712176636     0.771468307006     0.771055058341    12.000000000000
           H          4.215278190028     1.108065681068     0.728488499182     1.007825032070
           H          3.155383599735    -0.146372843823     1.357011807704     1.007825032070
           H          2.604016148373     1.526719475387     1.309136388218     1.007825032070
           C         -3.216928149583     1.325651401596     0.262189652862    12.000000000000
           H         -4.010241336381     0.792172173423     0.787722440701     1.007825032070
           H         -3.684072955399     2.001037756938    -0.454166100030     1.007825032070
           H         -2.683373123234     1.931498285774     0.995922587050     1.007825032070
           C          2.611250663498     0.560064512581    -0.628281376720    12.000000000000
           H          3.171416783122    -0.229279066472    -1.137207881271     1.007825032070
           H          2.755158793153     1.470309740263    -1.214619285731     1.007825032070
           C         -2.268936291192     0.348055111631    -0.420735011516    12.000000000000
           H         -2.811321274311    -0.226530143127    -1.176389134056     1.007825032070
           H         -1.491393950402     0.898178763799    -0.952795593104     1.007825032070
           C          1.127103977648     0.198741262072    -0.627555229495    12.000000000000
           H          0.765894978268     0.154551920416    -1.659438783953     1.007825032070
           H          0.569779654443     1.000739096849    -0.134173097930     1.007825032070
           C          0.830481502562    -1.131984632553     0.055685435606    12.000000000000
           H          1.087112126804    -1.065347645239     1.116337429730     1.007825032070
           H          1.483713584323    -1.898073637637    -0.374623232690     1.007825032070
           C         -0.622548490580    -1.592690930712    -0.058536339167    12.000000000000
           H         -0.874812612652    -1.743897057817    -1.113034940199     1.007825032070
           H         -0.705798916656    -2.570934618906     0.419769920153     1.007825032070
           C         -1.636293086514    -0.626127804320     0.569390349592    12.000000000000
           H         -2.442634917195    -1.192296250747     1.043250644676     1.007825032070
           H         -1.149854409336    -0.062348028768     1.373103468744     1.007825032070

  Nuclear repulsion =  395.372676689943432
  Reference energy  = -313.538991344334818

  ==> Basis Set <==

  Basis Set: AUG-CC-PVTZ
    Number of shells: 274
    Number of basis function: 782
    Number of Cartesian functions: 890
    Spherical Harmonics?: true
    Max angular momentum: 3

  ==> CGRSolver (by Rob Parrish) <==

   Number of roots    =         1
   Preconditioning    =    JACOBI
   Convergence cutoff =     1E-06
   Maximum iterations =       100

  ==> CPHFRHamiltonian (by Rob Parrish) <== 

  ==> DFJK: Density-Fitted J/K Matrices <==

    J tasked:                  Yes
    K tasked:                  Yes
    wK tasked:                  No
    OpenMP threads:             12
    Integrals threads:          12
    Memory (MB):             42915
    Algorithm:                Core
    Integral Cache:           NONE
    Schwarz Cutoff:          1E-12
    Fitting Condition:       1E-12

   => Auxiliary Basis Set <=

  Basis Set: 
    Number of shells: 492
    Number of basis function: 1660
    Number of Cartesian functions: 2038
    Spherical Harmonics?: true
    Max angular momentum: 4

  ==> CPHF Iterations <==

  => Iterations <=

             Iter  Converged  Remaining    Residual
  CGR           1          0          1   9.083E-02
  CGR           2          0          1   1.309E-02
  CGR           3          0          1   3.795E-03
  CGR           4          0          1   8.580E-04
  CGR           5          0          1   1.977E-04
  CGR           6          0          1   4.572E-05
  CGR           7          0          1   1.256E-05
  CGR           8          0          1   3.336E-06
  CGR           9          1          0   9.681E-07

    CGRSolver converged.

  ==> DFCorrGrad: Density-Fitted Correlated Gradients <==

    OpenMP threads:             12
    Integrals threads:          12
    Memory (MB):             42915
    Schwarz Cutoff:          0E+00
    Fitting Condition:       1E-12

   => Auxiliary Basis Set <=

  Basis Set: 
    Number of shells: 492
    Number of basis function: 1660
    Number of Cartesian functions: 2038
    Spherical Harmonics?: true
    Max angular momentum: 4

	-----------------------------------------------------------
	 ==================> DF-MP2 Energies <==================== 
	-----------------------------------------------------------
	 Reference Energy          =    -313.5389913443348178 [Eh]
	 Singles Energy            =      -0.0000000000000000 [Eh]
	 Same-Spin Energy          =      -0.3162870186866177 [Eh]
	 Opposite-Spin Energy      =      -1.1255832363665617 [Eh]
	 Correlation Energy        =      -1.4418702550531792 [Eh]
	 Total Energy              =    -314.9808615993879926 [Eh]
	-----------------------------------------------------------
	 ================> DF-SCS-MP2 Energies <================== 
	-----------------------------------------------------------
	 SCS Same-Spin Scale       =       0.3333333333333333 [-]
	 SCS Opposite-Spin Scale   =       1.2000000000000000 [-]
	 SCS Same-Spin Energy      =      -0.1054290062288726 [Eh]
	 SCS Opposite-Spin Energy  =      -1.3506998836398740 [Eh]
	 SCS Correlation Energy    =      -1.4561288898687466 [Eh]
	 SCS Total Energy          =    -314.9951202342035685 [Eh]
	-----------------------------------------------------------


  -Total Gradient:
     Atom            X                  Y                   Z
    ------   -----------------  -----------------  -----------------
       1       -0.000000430589     0.000000188274    -0.000000697213
       2        0.000000480190     0.000000185347    -0.000000190294
       3       -0.000000097861    -0.000000739945     0.000000210184
       4       -0.000000351918     0.000000480370     0.000000422690
       5        0.000000298319    -0.000000709455     0.000000303059
       6       -0.000000250299    -0.000000127912     0.000000184026
       7       -0.000000065177     0.000000106104    -0.000000436544
       8        0.000000204067     0.000000115960     0.000000129821
       9        0.000000089951     0.000000214151     0.000000527684
      10        0.000000544406    -0.000000709194    -0.000000480404
      11        0.000000104471     0.000000506536     0.000000087992
      12        0.000000700148     0.000000525505    -0.000000442702
      13       -0.000000245007    -0.000000167666    -0.000000109940
      14        0.000000075658     0.000000127699     0.000000040740
      15        0.000000573367     0.000000088555     0.000000340696
      16        0.000000114868     0.000000133709    -0.000000614865
      17       -0.000000937553     0.000001281111    -0.000000071188
      18       -0.000001358029    -0.000000236980    -0.000000217986
      19        0.000000031247    -0.000000071016     0.000001024874
      20        0.000000576038    -0.000001452030    -0.000000548707
      21       -0.000000265042     0.000000739701     0.000000101610
      22       -0.000000083865     0.000000000995    -0.000000341013
      23       -0.000000161509    -0.000000063406     0.000000500121
      24       -0.000000036332    -0.000000188102     0.000000210497
      25        0.000000156646    -0.000000331571     0.000000019452
      26        0.000000333804     0.000000103261     0.000000047411


			-----------------------------------------
			 OPTKING 2.0: for geometry optimizations 
			  - R.A. King,  Bethel University        
			-----------------------------------------

	Internal coordinates to be generated automatically.
	Detected frag 1 with atoms:  1 2 3 4 5 6 7 8 9 10 11 12 13 14 15 16 17 18 19 20
	 21 22 23 24 25 26
	---Fragment 1 Bond Connectivity---
	 1 : 2 3 4 9
	 2 : 1
	 3 : 1
	 4 : 1
	 5 : 6 7 8 12
	 6 : 5
	 7 : 5
	 8 : 5
	 9 : 1 10 11 15
	 10 : 9
	 11 : 9
	 12 : 5 13 14 24
	 13 : 12
	 14 : 12
	 15 : 9 16 17 18
	 16 : 15
	 17 : 15
	 18 : 15 19 20 21
	 19 : 18
	 20 : 18
	 21 : 18 22 23 24
	 22 : 21
	 23 : 21
	 24 : 12 21 25 26
	 25 : 24
	 26 : 24

	---Fragment 1 Geometry and Gradient---
	 C           6.0087851952        1.4578638204        1.4570828936
	 H           7.9657213531        2.0939406745        1.3766437544
	 H           5.9628108477       -0.2766045881        2.5643806757
	 H           4.9208773660        2.8850816902        2.4739092443
	 C          -6.0791131919        2.5051180967        0.4954666388
	 H          -7.5782578525        1.4969884579        1.4885796817
	 H          -6.9618889393        3.7814133422       -0.8582495479
	 H          -5.0708403153        3.6500027863        1.8820209391
	 C           4.9345486183        1.0583685455       -1.1872797364
	 H           5.9931091733       -0.4332746436       -2.1490114518
	 H           5.2064955717        2.7784827396       -2.2952978058
	 C          -4.2876682033        0.6577288401       -0.7950739463
	 H          -5.3126272800       -0.4280799314       -2.2230532891
	 H          -2.8183261225        1.6973118820       -1.8005227316
	 C           2.1299178410        0.3755665566       -1.1859075170
	 H           1.4473317555        0.2920608029       -3.1358848360
	 H           1.0767275030        1.8911228235       -0.2535504095
	 C           1.5693825983       -2.1391409422        0.1052302229
	 H           2.0543441954       -2.0132152858        2.1095720141
	 H           2.8038123340       -3.5868393552       -0.7079353128
	 C          -1.1764461516       -3.0097496734       -0.1106176498
	 H          -1.6531562555       -3.2954878432       -2.1033312133
	 H          -1.3337666574       -4.8583623353        0.7932501879
	 C          -3.0921458066       -1.1832100743        1.0759918234
	 H          -4.6159110361       -2.2531133832        1.9714580064
	 H          -2.1729099263       -0.1178206993        2.5947895080
	            -0.0000004306        0.0000001883       -0.0000006972
	             0.0000004802        0.0000001853       -0.0000001903
	            -0.0000000979       -0.0000007399        0.0000002102
	            -0.0000003519        0.0000004804        0.0000004227
	             0.0000002983       -0.0000007095        0.0000003031
	            -0.0000002503       -0.0000001279        0.0000001840
	            -0.0000000652        0.0000001061       -0.0000004365
	             0.0000002041        0.0000001160        0.0000001298
	             0.0000000900        0.0000002142        0.0000005277
	             0.0000005444       -0.0000007092       -0.0000004804
	             0.0000001045        0.0000005065        0.0000000880
	             0.0000007001        0.0000005255       -0.0000004427
	            -0.0000002450       -0.0000001677       -0.0000001099
	             0.0000000757        0.0000001277        0.0000000407
	             0.0000005734        0.0000000886        0.0000003407
	             0.0000001149        0.0000001337       -0.0000006149
	            -0.0000009376        0.0000012811       -0.0000000712
	            -0.0000013580       -0.0000002370       -0.0000002180
	             0.0000000312       -0.0000000710        0.0000010249
	             0.0000005760       -0.0000014520       -0.0000005487
	            -0.0000002650        0.0000007397        0.0000001016
	            -0.0000000839        0.0000000010       -0.0000003410
	            -0.0000001615       -0.0000000634        0.0000005001
	            -0.0000000363       -0.0000001881        0.0000002105
	             0.0000001566       -0.0000003316        0.0000000195
	             0.0000003338        0.0000001033        0.0000000474

	Previous optimization step data not found.  Starting new optimization.

	---Fragment 1 Intrafragment Coordinates---
	 - Coordinate -           - BOHR/RAD -       - ANG/DEG -
	 R(1,2)           =         2.059287	       1.089728
	 R(1,3)           =         2.058301	       1.089206
	 R(1,4)           =         2.062627	       1.091495
	 R(1,9)           =         2.882054	       1.525117
	 R(5,6)           =         2.061561	       1.090931
	 R(5,7)           =         2.059313	       1.089742
	 R(5,8)           =         2.061530	       1.090915
	 R(5,12)          =         2.878822	       1.523407
	 R(9,10)          =         2.066513	       1.093552
	 R(9,11)          =         2.064086	       1.092267
	 R(9,15)          =         2.886551	       1.527497
	 R(12,13)         =         2.066070	       1.093317
	 R(12,14)         =         2.061705	       1.091007
	 R(12,24)         =         2.884305	       1.526309
	 R(15,16)         =         2.067682	       1.094170
	 R(15,17)         =         2.067707	       1.094183
	 R(15,18)         =         2.881838	       1.525003
	 R(18,19)         =         2.066018	       1.093290
	 R(18,20)         =         2.069030	       1.094884
	 R(18,21)         =         2.888620	       1.528592
	 R(21,22)         =         2.068769	       1.094746
	 R(21,23)         =         2.063758	       1.092094
	 R(21,24)         =         2.900723	       1.534997
	 R(24,25)         =         2.066014	       1.093287
	 R(24,26)         =         2.070458	       1.095639
	 B(1,9,10)        =         1.913602	     109.641301
	 B(1,9,11)        =         1.904889	     109.142125
	 B(1,9,15)        =         1.976328	     113.235261
	 B(2,1,3)         =         1.878137	     107.609350
	 B(2,1,4)         =         1.882574	     107.863554
	 B(2,1,9)         =         1.940332	     111.172859
	 B(3,1,4)         =         1.881882	     107.823918
	 B(3,1,9)         =         1.948156	     111.621125
	 B(4,1,9)         =         1.930118	     110.587597
	 B(5,12,13)       =         1.915989	     109.778059
	 B(5,12,14)       =         1.916156	     109.787674
	 B(5,12,24)       =         1.957036	     112.129910
	 B(6,5,7)         =         1.883904	     107.939774
	 B(6,5,8)         =         1.878881	     107.651924
	 B(6,5,12)        =         1.933350	     110.772814
	 B(7,5,8)         =         1.883467	     107.914703
	 B(7,5,12)        =         1.949574	     111.702366
	 B(8,5,12)        =         1.932150	     110.704041
	 B(9,15,16)       =         1.906949	     109.260126
	 B(9,15,17)       =         1.898354	     108.767645
	 B(9,15,18)       =         1.977529	     113.304050
	 B(10,9,11)       =         1.858984	     106.511930
	 B(10,9,15)       =         1.904120	     109.098051
	 B(11,9,15)       =         1.902225	     108.989469
	 B(12,24,21)      =         1.993551	     114.222039
	 B(12,24,25)      =         1.881776	     107.817819
	 B(12,24,26)      =         1.908646	     109.357386
	 B(13,12,14)      =         1.856143	     106.349172
	 B(13,12,24)      =         1.894996	     108.575269
	 B(14,12,24)      =         1.920683	     110.047031
	 B(15,18,19)      =         1.913259	     109.621678
	 B(15,18,20)      =         1.894872	     108.568148
	 B(15,18,21)      =         1.998091	     114.482169
	 B(16,15,17)      =         1.861575	     106.660412
	 B(16,15,18)      =         1.899768	     108.848669
	 B(17,15,18)      =         1.916115	     109.785275
	 B(18,21,22)      =         1.909904	     109.429437
	 B(18,21,23)      =         1.885682	     108.041621
	 B(18,21,24)      =         1.990430	     114.043220
	 B(19,18,20)      =         1.858640	     106.492252
	 B(19,18,21)      =         1.890191	     108.299978
	 B(20,18,21)      =         1.903795	     109.079402
	 B(21,24,25)      =         1.915909	     109.773486
	 B(21,24,26)      =         1.908034	     109.322282
	 B(22,21,23)      =         1.855198	     106.295037
	 B(22,21,24)      =         1.905855	     109.197441
	 B(23,21,24)      =         1.911906	     109.544168
	 B(25,24,26)      =         1.850406	     106.020435
	 D(1,9,15,16)     =         3.049789	     174.740058
	 D(1,9,15,17)     =         1.023973	      58.669330
	 D(1,9,15,18)     =        -1.112076	     -63.717263
	 D(2,1,9,10)      =         1.093541	      62.655293
	 D(2,1,9,11)      =        -0.936550	     -53.660366
	 D(2,1,9,15)      =        -3.058727	    -175.252137
	 D(3,1,9,10)      =        -1.003743	     -57.510219
	 D(3,1,9,11)      =        -3.033834	    -173.825877
	 D(3,1,9,15)      =         1.127175	      64.582352
	 D(4,1,9,10)      =        -3.098835	    -177.550162
	 D(4,1,9,11)      =         1.154259	      66.134179
	 D(4,1,9,15)      =        -0.967918	     -55.457592
	 D(5,12,24,21)    =        -3.095380	    -177.352190
	 D(5,12,24,25)    =         1.053394	      60.355019
	 D(5,12,24,26)    =        -0.951036	     -54.490361
	 D(6,5,12,13)     =         1.092695	      62.606794
	 D(6,5,12,14)     =         3.127213	     179.176125
	 D(6,5,12,24)     =        -1.015233	     -58.168568
	 D(7,5,12,13)     =        -1.008101	     -57.759958
	 D(7,5,12,14)     =         1.026417	      58.809372
	 D(7,5,12,24)     =        -3.116029	    -178.535321
	 D(8,5,12,13)     =        -3.107523	    -178.047962
	 D(8,5,12,14)     =        -1.073005	     -61.478632
	 D(8,5,12,24)     =         1.067734	      61.176675
	 D(9,15,18,19)    =         1.122601	      64.320290
	 D(9,15,18,20)    =        -0.901230	     -51.636649
	 D(9,15,18,21)    =        -3.032815	    -173.767516
	 D(10,9,15,16)    =        -1.097194	     -62.864606
	 D(10,9,15,17)    =        -3.123011	    -178.935334
	 D(10,9,15,18)    =         1.024126	      58.678073
	 D(11,9,15,16)    =         0.926118	      53.062642
	 D(11,9,15,17)    =        -1.099699	     -63.008086
	 D(11,9,15,18)    =         3.047438	     174.605321
	 D(12,24,21,18)   =         1.670565	      95.716320
	 D(12,24,21,22)   =        -0.471898	     -27.037750
	 D(12,24,21,23)   =        -2.497036	    -143.069647
	 D(13,12,24,21)   =         1.067785	      61.179591
	 D(13,12,24,25)   =        -1.066627	     -61.113200
	 D(13,12,24,26)   =        -3.071057	    -175.958580
	 D(14,12,24,21)   =        -0.957207	     -54.843930
	 D(14,12,24,25)   =        -3.091619	    -177.136722
	 D(14,12,24,26)   =         1.187136	      68.017898
	 D(15,18,21,22)   =         1.080610	      61.914372
	 D(15,18,21,23)   =         3.093470	     177.242765
	 D(15,18,21,24)   =        -1.059642	     -60.713008
	 D(16,15,18,19)   =        -3.035242	    -173.906550
	 D(16,15,18,20)   =         1.224113	      70.136511
	 D(16,15,18,21)   =        -0.907473	     -51.994356
	 D(17,15,18,19)   =        -1.003547	     -57.499004
	 D(17,15,18,20)   =        -3.027377	    -173.455943
	 D(17,15,18,21)   =         1.124222	      64.413189
	 D(18,21,24,25)   =        -2.496979	    -143.066343
	 D(18,21,24,26)   =        -0.474111	     -27.164574
	 D(19,18,21,22)   =        -3.062256	    -175.454332
	 D(19,18,21,23)   =        -1.049396	     -60.125938
	 D(19,18,21,24)   =         1.080678	      61.918289
	 D(20,18,21,22)   =        -1.046107	     -59.937491
	 D(20,18,21,23)   =         0.966754	      55.390902
	 D(20,18,21,24)   =         3.096827	     177.435129
	 D(22,21,24,25)   =         1.643744	      94.179587
	 D(22,21,24,26)   =        -2.616574	    -149.918644
	 D(23,21,24,25)   =        -0.381395	     -21.852310
	 D(23,21,24,26)   =         1.641473	      94.049459
	 R(12,15)         =         6.435664	       3.405607

	Current energy   :      -314.9808615994

	Generating empirical Hessian (Schlegel '84) for each fragment.
	Taking RFO optimization step.
	Going to follow RFO solution 1.
	Using RFO vector 1.
	Norm of target step-size    0.00041
	Projected energy change by RFO approximation:         0.0000000002

	Back-transformation to cartesian coordinates...
	Successfully converged to displaced geometry.

	--- Internal Coordinate Step in ANG or DEG, aJ/ANG or AJ/DEG ---
	 ---------------------------------------------------------------------------
	   Coordinate                Previous        Force       Change         New 
	   ----------                --------       ------       ------       ------
	    1 R(1,2)          =      1.089728    -0.000004    -0.000001     1.089727
	    2 R(1,3)          =      1.089206    -0.000006    -0.000001     1.089205
	    3 R(1,4)          =      1.091495    -0.000006    -0.000001     1.091494
	    4 R(1,9)          =      1.525117     0.000003     0.000001     1.525118
	    5 R(5,6)          =      1.090931    -0.000003    -0.000001     1.090931
	    6 R(5,7)          =      1.089742    -0.000003    -0.000001     1.089741
	    7 R(5,8)          =      1.090915    -0.000002    -0.000000     1.090915
	    8 R(5,12)         =      1.523407     0.000004     0.000001     1.523408
	    9 R(9,10)         =      1.093552    -0.000008    -0.000002     1.093550
	   10 R(9,11)         =      1.092267    -0.000003    -0.000001     1.092267
	   11 R(9,15)         =      1.527497    -0.000003    -0.000001     1.527496
	   12 R(12,13)        =      1.093317    -0.000002    -0.000000     1.093317
	   13 R(12,14)        =      1.091007    -0.000001    -0.000000     1.091007
	   14 R(12,24)        =      1.526309     0.000001     0.000000     1.526309
	   15 R(15,16)        =      1.094170    -0.000004    -0.000001     1.094169
	   16 R(15,17)        =      1.094183    -0.000011    -0.000002     1.094181
	   17 R(15,18)        =      1.525003    -0.000015    -0.000003     1.525000
	   18 R(18,19)        =      1.093290    -0.000008    -0.000002     1.093288
	   19 R(18,20)        =      1.094884    -0.000013    -0.000002     1.094881
	   20 R(18,21)        =      1.528592     0.000004     0.000001     1.528593
	   21 R(21,22)        =      1.094746    -0.000003    -0.000001     1.094745
	   22 R(21,23)        =      1.092094    -0.000002    -0.000000     1.092093
	   23 R(21,24)        =      1.534997     0.000008     0.000002     1.534999
	   24 R(24,25)        =      1.093287    -0.000001    -0.000000     1.093287
	   25 R(24,26)        =      1.095639    -0.000002    -0.000000     1.095639
	   26 B(1,9,10)       =    109.641301    -0.000000    -0.000056   109.641244
	   27 B(1,9,11)       =    109.142125     0.000000     0.000143   109.142267
	   28 B(1,9,15)       =    113.235261     0.000000     0.000110   113.235372
	   29 B(2,1,3)        =    107.609350    -0.000000    -0.000053   107.609297
	   30 B(2,1,4)        =    107.863554    -0.000000    -0.000031   107.863523
	   31 B(2,1,9)        =    111.172859     0.000000     0.000090   111.172948
	   32 B(3,1,4)        =    107.823918    -0.000000    -0.000046   107.823872
	   33 B(3,1,9)        =    111.621125     0.000000     0.000119   111.621244
	   34 B(4,1,9)        =    110.587597    -0.000000    -0.000087   110.587511
	   35 B(5,12,13)      =    109.778059    -0.000000     0.000074   109.778133
	   36 B(5,12,14)      =    109.787674    -0.000000    -0.000102   109.787572
	   37 B(5,12,24)      =    112.129910     0.000000     0.000216   112.130126
	   38 B(6,5,7)        =    107.939774    -0.000000    -0.000030   107.939744
	   39 B(6,5,8)        =    107.651924    -0.000000    -0.000035   107.651890
	   40 B(6,5,12)       =    110.772814    -0.000000    -0.000057   110.772757
	   41 B(7,5,8)        =    107.914703    -0.000000    -0.000046   107.914657
	   42 B(7,5,12)       =    111.702366     0.000000     0.000139   111.702504
	   43 B(8,5,12)       =    110.704041     0.000000     0.000022   110.704063
	   44 B(9,15,16)      =    109.260126     0.000000     0.000125   109.260251
	   45 B(9,15,17)      =    108.767645     0.000000     0.000036   108.767680
	   46 B(9,15,18)      =    113.304050    -0.000000    -0.000071   113.303979
	   47 B(10,9,11)      =    106.511930    -0.000000    -0.000085   106.511845
	   48 B(10,9,15)      =    109.098051    -0.000000    -0.000111   109.097940
	   49 B(11,9,15)      =    108.989469    -0.000000    -0.000012   108.989456
	   50 B(12,24,21)     =    114.222039     0.000000     0.000081   114.222121
	   51 B(12,24,25)     =    107.817819    -0.000000    -0.000181   107.817638
	   52 B(12,24,26)     =    109.357386    -0.000000    -0.000029   109.357357
	   53 B(13,12,14)     =    106.349172     0.000000    -0.000114   106.349058
	   54 B(13,12,24)     =    108.575269    -0.000000     0.000030   108.575299
	   55 B(14,12,24)     =    110.047031    -0.000000    -0.000119   110.046912
	   56 B(15,18,19)     =    109.621678    -0.000000     0.000031   109.621710
	   57 B(15,18,20)     =    108.568148    -0.000000    -0.000308   108.567840
	   58 B(15,18,21)     =    114.482169    -0.000000    -0.000028   114.482141
	   59 B(16,15,17)     =    106.660412     0.000000     0.000214   106.660626
	   60 B(16,15,18)     =    108.848669    -0.000000    -0.000063   108.848605
	   61 B(17,15,18)     =    109.785275    -0.000000    -0.000220   109.785054
	   62 B(18,21,22)     =    109.429437    -0.000000    -0.000170   109.429267
	   63 B(18,21,23)     =    108.041621    -0.000000     0.000038   108.041659
	   64 B(18,21,24)     =    114.043220     0.000000     0.000207   114.043427
	   65 B(19,18,20)     =    106.492252    -0.000000    -0.000024   106.492228
	   66 B(19,18,21)     =    108.299978     0.000000     0.000358   108.300336
	   67 B(20,18,21)     =    109.079402     0.000000    -0.000029   109.079374
	   68 B(21,24,25)     =    109.773486     0.000000     0.000152   109.773638
	   69 B(21,24,26)     =    109.322282     0.000000     0.000060   109.322343
	   70 B(22,21,23)     =    106.295037    -0.000000    -0.000166   106.294871
	   71 B(22,21,24)     =    109.197441    -0.000000    -0.000186   109.197255
	   72 B(23,21,24)     =    109.544168     0.000000     0.000254   109.544421
	   73 B(25,24,26)     =    106.020435    -0.000000    -0.000100   106.020335
	   74 D(1,9,15,16)    =    174.740058     0.000000    -0.002081   174.737977
	   75 D(1,9,15,17)    =     58.669330    -0.000000    -0.002424    58.666906
	   76 D(1,9,15,18)    =    -63.717263     0.000000    -0.002120   -63.719383
	   77 D(2,1,9,10)     =     62.655293     0.000000    -0.000523    62.654770
	   78 D(2,1,9,11)     =    -53.660366     0.000000    -0.000470   -53.660836
	   79 D(2,1,9,15)     =   -175.252137    -0.000000    -0.000631  -175.252768
	   80 D(3,1,9,10)     =    -57.510219    -0.000000    -0.000598   -57.510816
	   81 D(3,1,9,11)     =   -173.825877    -0.000000    -0.000545  -173.826422
	   82 D(3,1,9,15)     =     64.582352    -0.000000    -0.000706    64.581646
	   83 D(4,1,9,10)     =   -177.550162    -0.000000    -0.000560  -177.550723
	   84 D(4,1,9,11)     =     66.134179     0.000000    -0.000508    66.133672
	   85 D(4,1,9,15)     =    -55.457592    -0.000000    -0.000668   -55.458260
	   86 D(5,12,24,21)   =   -177.352190     0.000000     0.001960  -177.350229
	   87 D(5,12,24,25)   =     60.355019    -0.000000     0.001844    60.356863
	   88 D(5,12,24,26)   =    -54.490361     0.000000     0.002075   -54.488287
	   89 D(6,5,12,13)    =     62.606794     0.000000    -0.000423    62.606372
	   90 D(6,5,12,14)    =    179.176125    -0.000000    -0.000577   179.175548
	   91 D(6,5,12,24)    =    -58.168568    -0.000000    -0.000653   -58.169222
	   92 D(7,5,12,13)    =    -57.759958     0.000000    -0.000439   -57.760397
	   93 D(7,5,12,14)    =     58.809372    -0.000000    -0.000593    58.808779
	   94 D(7,5,12,24)    =   -178.535321    -0.000000    -0.000670  -178.535991
	   95 D(8,5,12,13)    =   -178.047962     0.000000    -0.000488  -178.048451
	   96 D(8,5,12,14)    =    -61.478632    -0.000000    -0.000643   -61.479275
	   97 D(8,5,12,24)    =     61.176675    -0.000000    -0.000719    61.175956
	   98 D(9,15,18,19)   =     64.320290    -0.000000     0.006678    64.326968
	   99 D(9,15,18,20)   =    -51.636649     0.000000     0.006862   -51.629786
	  100 D(9,15,18,21)   =   -173.767516     0.000000     0.007150  -173.760367
	  101 D(10,9,15,16)   =    -62.864606     0.000000    -0.002159   -62.866765
	  102 D(10,9,15,17)   =   -178.935334    -0.000000    -0.002502  -178.937836
	  103 D(10,9,15,18)   =     58.678073     0.000000    -0.002198    58.675875
	  104 D(11,9,15,16)   =     53.062642    -0.000000    -0.002328    53.060314
	  105 D(11,9,15,17)   =    -63.008086    -0.000000    -0.002671   -63.010757
	  106 D(11,9,15,18)   =    174.605321    -0.000000    -0.002367   174.602955
	  107 D(12,24,21,18)  =     95.716320    -0.000000     0.000446    95.716766
	  108 D(12,24,21,22)  =    -27.037750     0.000000     0.000662   -27.037088
	  109 D(12,24,21,23)  =   -143.069647     0.000000     0.000824  -143.068823
	  110 D(13,12,24,21)  =     61.179591    -0.000000     0.001709    61.181300
	  111 D(13,12,24,25)  =    -61.113200    -0.000000     0.001593   -61.111607
	  112 D(13,12,24,26)  =   -175.958580     0.000000     0.001823  -175.956757
	  113 D(14,12,24,21)  =    -54.843930     0.000000     0.001894   -54.842036
	  114 D(14,12,24,25)  =   -177.136722    -0.000000     0.001778  -177.134943
	  115 D(14,12,24,26)  =     68.017898     0.000000     0.002009    68.019906
	  116 D(15,18,21,22)  =     61.914372    -0.000000     0.001339    61.915711
	  117 D(15,18,21,23)  =    177.242765    -0.000000     0.001074   177.243840
	  118 D(15,18,21,24)  =    -60.713008     0.000000     0.001565   -60.711443
	  119 D(16,15,18,19)  =   -173.906550     0.000000     0.006745  -173.899805
	  120 D(16,15,18,20)  =     70.136511     0.000000     0.006929    70.143440
	  121 D(16,15,18,21)  =    -51.994356     0.000000     0.007216   -51.987140
	  122 D(17,15,18,19)  =    -57.499004     0.000000     0.006842   -57.492162
	  123 D(17,15,18,20)  =   -173.455943     0.000000     0.007026  -173.448917
	  124 D(17,15,18,21)  =     64.413189     0.000000     0.007313    64.420503
	  125 D(18,21,24,25)  =   -143.066343    -0.000000     0.000381  -143.065962
	  126 D(18,21,24,26)  =    -27.164574    -0.000000     0.000380   -27.164194
	  127 D(19,18,21,22)  =   -175.454332    -0.000000     0.001630  -175.452702
	  128 D(19,18,21,23)  =    -60.125938    -0.000000     0.001365   -60.124573
	  129 D(19,18,21,24)  =     61.918289     0.000000     0.001855    61.920144
	  130 D(20,18,21,22)  =    -59.937491     0.000000     0.001781   -59.935711
	  131 D(20,18,21,23)  =     55.390902     0.000000     0.001515    55.392418
	  132 D(20,18,21,24)  =    177.435129     0.000000     0.002006   177.437135
	  133 D(22,21,24,25)  =     94.179587    -0.000000     0.000597    94.180184
	  134 D(22,21,24,26)  =   -149.918644     0.000000     0.000596  -149.918048
	  135 D(23,21,24,25)  =    -21.852310     0.000000     0.000759   -21.851551
	  136 D(23,21,24,26)  =     94.049459     0.000000     0.000758    94.050217
	  137 R(12,15)        =      3.405607     0.000002     0.000004     3.405611
	 ---------------------------------------------------------------------------

  ==> Convergence Check <==

  Measures of convergence in internal coordinates in au.
  Criteria marked as inactive (o), active & met (*), and active & unmet ( ).
  --------------------------------------------------------------------------------------------- ~
   Step     Total Energy     Delta E     MAX Force     RMS Force      MAX Disp      RMS Disp    ~
  --------------------------------------------------------------------------------------------- ~
    Convergence Criteria             o    2.00e-06 *    1.00e-06 *    6.00e-06 *    4.00e-06 *  ~
  --------------------------------------------------------------------------------------------- ~
      1    -314.98086160   -3.15e+02 o    1.80e-06 *    3.61e-07 *    1.28e-04      3.50e-05    ~
  ---------------------------------------------------------------------------------------------

	Writing optimization data to binary file.
	Structure for next step:
	Cartesian Geometry (in Angstrom)
	    C     3.1798254947   0.7714293078   0.7710123301
	    H     4.2154031352   1.1079789003   0.7283713011
	    H     3.1554997397  -0.1464165617   1.3569597700
	    H     2.6042066578   1.5266996346   1.3091470819
	    C    -3.2169701186   1.3256338754   0.2621368707
	    H    -4.0102915019   0.7921614007   0.7876630489
	    H    -3.6841036676   2.0010158498  -0.4542294960
	    H    -2.6834242870   1.9314853065   0.9958721764
	    C     2.6112445577   0.5600714054  -0.6282832828
	    H     3.1713399801  -0.2292837055  -1.1372663713
	    H     2.7551404327   1.4703193055  -1.2146189102
	    C    -2.2689712138   0.3480276677  -0.4207655400
	    H    -2.8113476524  -0.2265688416  -1.1764165973
	    H    -1.4914265274   0.8981456383  -0.9528282889
	    C     1.1270854389   0.1988022099  -0.6274483739
	    H     0.7657838027   0.1546809916  -1.6593015286
	    H     0.5698340988   1.0007889774  -0.1339705646
	    C     0.8304761624  -1.1319476048   0.0557444369
	    H     1.0870896511  -1.0653405050   1.1164008726
	    H     1.4837307502  -1.8980055027  -0.3745792506
	    C    -0.6225429969  -1.5926801453  -0.0585232824
	    H    -0.8747705662  -1.7438816026  -1.1130307483
	    H    -0.7057889154  -2.5709309202   0.4197682469
	    C    -1.6363296174  -0.6261402085   0.5693761821
	    H    -2.4426721876  -1.1923255723   1.0432147683
	    H    -1.1499279849  -0.0623484720   1.3731028256
			--------------------------
			 OPTKING Finished Execution 
			--------------------------

    Structure for next step:
    Molecular point group: c1
    Full point group: C1

    Geometry (in Angstrom), charge = 0, multiplicity = 1:

    C            3.179827863361     0.771427451028     0.771008785956
    H            4.215405503829     1.107977043570     0.728367756960
    H            3.155502108299    -0.146418418501     1.356956225902
    H            2.604209026445     1.526697777857     1.309143537783
    C           -3.216967750019     1.325632018598     0.262133326596
    H           -4.010289133222     0.792159543983     0.787659504758
    H           -3.684101298930     2.001013993061    -0.454233040108
    H           -2.683421918349     1.931483449760     0.995868632298
    C            2.611246926375     0.560069548616    -0.628286826865
    H            3.171342348719    -0.229285562257    -1.137269915356
    H            2.755142801363     1.470317448733    -1.214622454260
    C           -2.268968845163     0.348025810959    -0.420769084071
    H           -2.811345283777    -0.226570698390    -1.176420141360
    H           -1.491424158819     0.898143781582    -0.952831832992
    C            1.127087807566     0.198800353131    -0.627451917984
    H            0.765786171364     0.154679134848    -1.659305072648
    H            0.569836467399     1.000787120668    -0.133974108679
    C            0.830478531002    -1.131949461505     0.055740892829
    H            1.087092019771    -1.065342361704     1.116397328460
    H            1.483733118827    -1.898007359413    -0.374582794731
    C           -0.622540628309    -1.592682002098    -0.058526826452
    H           -0.874768197533    -1.743883459369    -1.113034292392
    H           -0.705786546732    -2.570932776941     0.419764702833
    C           -1.636327248745    -0.626142065247     0.569372638005
    H           -2.442669818949    -1.192327429067     1.043211224227
    H           -1.149925616228    -0.062350328801     1.373099281520

gradient() will perform analytic gradient computation.

*** tstart() called on wr39
*** at Wed Sep 21 05:05:03 2016


         ---------------------------------------------------------
                                   SCF
            by Justin Turney, Rob Parrish, and Andy Simmonett
                              RHF Reference
                       12 Threads,  60000 MiB Core
         ---------------------------------------------------------

  ==> Geometry <==

    Molecular point group: c1
    Full point group: C1

    Geometry (in Angstrom), charge = 0, multiplicity = 1:

       Center              X                  Y                   Z               Mass       
    ------------   -----------------  -----------------  -----------------  -----------------
           C          3.179827863361     0.771427451028     0.771008785956    12.000000000000
           H          4.215405503829     1.107977043570     0.728367756960     1.007825032070
           H          3.155502108299    -0.146418418501     1.356956225902     1.007825032070
           H          2.604209026445     1.526697777857     1.309143537783     1.007825032070
           C         -3.216967750019     1.325632018598     0.262133326596    12.000000000000
           H         -4.010289133222     0.792159543983     0.787659504758     1.007825032070
           H         -3.684101298930     2.001013993061    -0.454233040108     1.007825032070
           H         -2.683421918349     1.931483449760     0.995868632298     1.007825032070
           C          2.611246926375     0.560069548616    -0.628286826865    12.000000000000
           H          3.171342348719    -0.229285562257    -1.137269915356     1.007825032070
           H          2.755142801363     1.470317448733    -1.214622454260     1.007825032070
           C         -2.268968845163     0.348025810959    -0.420769084071    12.000000000000
           H         -2.811345283777    -0.226570698390    -1.176420141360     1.007825032070
           H         -1.491424158819     0.898143781582    -0.952831832992     1.007825032070
           C          1.127087807566     0.198800353131    -0.627451917984    12.000000000000
           H          0.765786171364     0.154679134848    -1.659305072648     1.007825032070
           H          0.569836467399     1.000787120668    -0.133974108679     1.007825032070
           C          0.830478531002    -1.131949461505     0.055740892829    12.000000000000
           H          1.087092019771    -1.065342361704     1.116397328460     1.007825032070
           H          1.483733118827    -1.898007359413    -0.374582794731     1.007825032070
           C         -0.622540628309    -1.592682002098    -0.058526826452    12.000000000000
           H         -0.874768197533    -1.743883459369    -1.113034292392     1.007825032070
           H         -0.705786546732    -2.570932776941     0.419764702833     1.007825032070
           C         -1.636327248745    -0.626142065247     0.569372638005    12.000000000000
           H         -2.442669818949    -1.192327429067     1.043211224227     1.007825032070
           H         -1.149925616228    -0.062350328801     1.373099281520     1.007825032070

  Running in c1 symmetry.

  Rotational constants: A =      0.10561  B =      0.02784  C =      0.02483 [cm^-1]
  Rotational constants: A =   3166.22228  B =    834.70356  C =    744.35966 [MHz]
  Nuclear repulsion =  395.371955745775779

  Charge       = 0
  Multiplicity = 1
  Electrons    = 66
  Nalpha       = 33
  Nbeta        = 33

  ==> Algorithm <==

  SCF Algorithm Type is DF.
  DIIS enabled.
  MOM disabled.
  Fractional occupation disabled.
  Guess Type is READ.
  Energy threshold   = 1.00e-10
  Density threshold  = 1.00e-10
  Integral threshold = 0.00e+00

  ==> Primary Basis <==

  Basis Set: AUG-CC-PVTZ
    Number of shells: 274
    Number of basis function: 782
    Number of Cartesian functions: 890
    Spherical Harmonics?: true
    Max angular momentum: 3

  ==> Pre-Iterations <==

   -------------------------------------------------------
    Irrep   Nso     Nmo     Nalpha   Nbeta   Ndocc  Nsocc
   -------------------------------------------------------
     A        782     782       0       0       0       0
   -------------------------------------------------------
    Total     782     782      33      33      33       0
   -------------------------------------------------------

  ==> Integral Setup <==

  ==> DFJK: Density-Fitted J/K Matrices <==

    J tasked:                  Yes
    K tasked:                  Yes
    wK tasked:                  No
    OpenMP threads:             12
    Integrals threads:          12
    Memory (MB):             42915
    Algorithm:                Core
    Integral Cache:           NONE
    Schwarz Cutoff:          1E-12
    Fitting Condition:       1E-12

   => Auxiliary Basis Set <=

  Basis Set: 
    Number of shells: 492
    Number of basis function: 1660
    Number of Cartesian functions: 2038
    Spherical Harmonics?: true
    Max angular momentum: 4

  Minimum eigenvalue in the overlap matrix is 1.8473631928E-06.
  Using Symmetric Orthogonalization.
  SCF Guess: Reading in previously saved MOs, projecting if necessary.

  Using orbitals from previous SCF, no projection.
  Recomputing DOCC and SOCC from number of alpha and beta electrons from previous calculation.
              A 
    DOCC [    33 ]

  ==> Iterations <==

                           Total Energy        Delta E     RMS |[F,P]|

   @DF-RHF iter   0:  -313.53907258386454   -3.13539e+02   2.55133e-07 
   @DF-RHF iter   1:  -313.53899178856926    8.07953e-05   6.36776e-08 
   @DF-RHF iter   2:  -313.53899179038405   -1.81478e-09   2.94881e-08 DIIS
   @DF-RHF iter   3:  -313.53899179069703   -3.12980e-10   8.53379e-09 DIIS
   @DF-RHF iter   4:  -313.53899179074864   -5.16138e-11   1.11100e-09 DIIS
   @DF-RHF iter   5:  -313.53899179074989   -1.25056e-12   3.84936e-10 DIIS
   @DF-RHF iter   6:  -313.53899179075012   -2.27374e-13   9.00578e-11 DIIS

  ==> Post-Iterations <==

    Orbital Energies (a.u.)
    -----------------------

    Doubly Occupied:                                                      

       1A    -11.213042     2A    -11.211101     3A    -11.210785  
       4A    -11.210477     5A    -11.210030     6A    -11.209788  
       7A    -11.206876     8A    -11.206604     9A     -1.093973  
      10A     -1.059186    11A     -1.009778    12A     -0.944689  
      13A     -0.888375    14A     -0.825148    15A     -0.786123  
      16A     -0.763486    17A     -0.645174    18A     -0.628778  
      19A     -0.606106    20A     -0.590471    21A     -0.585353  
      22A     -0.563351    23A     -0.540987    24A     -0.532213  
      25A     -0.510403    26A     -0.501941    27A     -0.490777  
      28A     -0.473755    29A     -0.467114    30A     -0.461183  
      31A     -0.449968    32A     -0.435523    33A     -0.432615  

    Virtual:                                                              

      34A      0.029169    35A      0.032993    36A      0.033551  
      37A      0.035411    38A      0.046418    39A      0.047490  
      40A      0.049358    41A      0.053246    42A      0.055462  
      43A      0.066650    44A      0.069351    45A      0.071029  
      46A      0.073913    47A      0.080909    48A      0.082053  
      49A      0.091158    50A      0.093171    51A      0.102957  
      52A      0.114026    53A      0.117121    54A      0.117320  
      55A      0.123705    56A      0.128837    57A      0.131710  
      58A      0.134025    59A      0.137404    60A      0.139842  
      61A      0.145039    62A      0.147632    63A      0.149031  
      64A      0.154130    65A      0.157016    66A      0.162561  
      67A      0.167527    68A      0.168196    69A      0.171176  
      70A      0.174680    71A      0.181277    72A      0.183598  
      73A      0.187950    74A      0.190741    75A      0.195742  
      76A      0.205420    77A      0.213653    78A      0.214322  
      79A      0.228480    80A      0.234413    81A      0.240443  
      82A      0.242880    83A      0.249471    84A      0.251689  
      85A      0.263589    86A      0.273932    87A      0.276996  
      88A      0.281625    89A      0.287325    90A      0.295716  
      91A      0.302154    92A      0.305697    93A      0.310080  
      94A      0.312385    95A      0.318031    96A      0.320282  
      97A      0.323008    98A      0.327475    99A      0.330716  
     100A      0.336431   101A      0.337485   102A      0.341753  
     103A      0.348532   104A      0.350496   105A      0.355845  
     106A      0.359240   107A      0.362161   108A      0.365663  
     109A      0.367180   110A      0.373598   111A      0.376818  
     112A      0.381346   113A      0.383976   114A      0.384893  
     115A      0.388083   116A      0.389883   117A      0.396538  
     118A      0.400496   119A      0.404581   120A      0.412160  
     121A      0.415739   122A      0.420645   123A      0.423765  
     124A      0.427671   125A      0.434283   126A      0.435810  
     127A      0.439801   128A      0.441198   129A      0.446912  
     130A      0.451730   131A      0.454796   132A      0.458552  
     133A      0.464791   134A      0.466121   135A      0.469519  
     136A      0.472876   137A      0.476234   138A      0.477383  
     139A      0.485546   140A      0.490481   141A      0.491830  
     142A      0.494317   143A      0.495831   144A      0.502875  
     145A      0.506365   146A      0.509519   147A      0.511310  
     148A      0.515308   149A      0.524737   150A      0.526569  
     151A      0.531824   152A      0.535385   153A      0.537426  
     154A      0.542401   155A      0.543154   156A      0.551184  
     157A      0.556740   158A      0.559135   159A      0.562224  
     160A      0.569812   161A      0.574623   162A      0.578681  
     163A      0.581863   164A      0.587363   165A      0.592992  
     166A      0.595996   167A      0.599802   168A      0.606189  
     169A      0.609197   170A      0.617589   171A      0.620191  
     172A      0.623695   173A      0.630048   174A      0.634136  
     175A      0.638371   176A      0.643981   177A      0.650719  
     178A      0.654925   179A      0.658691   180A      0.666992  
     181A      0.671469   182A      0.676083   183A      0.684292  
     184A      0.689832   185A      0.691970   186A      0.693049  
     187A      0.698670   188A      0.704945   189A      0.712925  
     190A      0.720065   191A      0.724385   192A      0.734034  
     193A      0.739670   194A      0.742833   195A      0.753673  
     196A      0.758686   197A      0.770487   198A      0.778058  
     199A      0.781953   200A      0.784652   201A      0.802617  
     202A      0.810462   203A      0.818277   204A      0.825628  
     205A      0.835819   206A      0.838373   207A      0.843699  
     208A      0.845392   209A      0.849206   210A      0.856207  
     211A      0.866452   212A      0.872317   213A      0.877245  
     214A      0.882141   215A      0.886203   216A      0.893436  
     217A      0.897862   218A      0.903732   219A      0.911414  
     220A      0.913222   221A      0.915533   222A      0.919645  
     223A      0.927490   224A      0.929216   225A      0.937449  
     226A      0.939301   227A      0.941791   228A      0.945367  
     229A      0.950693   230A      0.953671   231A      0.958473  
     232A      0.962704   233A      0.969993   234A      0.973078  
     235A      0.983983   236A      0.991900   237A      0.996920  
     238A      0.999766   239A      1.002190   240A      1.006367  
     241A      1.009523   242A      1.013565   243A      1.017777  
     244A      1.027670   245A      1.030657   246A      1.037882  
     247A      1.040754   248A      1.049709   249A      1.057915  
     250A      1.064331   251A      1.065845   252A      1.073308  
     253A      1.080048   254A      1.080717   255A      1.084380  
     256A      1.090918   257A      1.101148   258A      1.104240  
     259A      1.109842   260A      1.116667   261A      1.120799  
     262A      1.126268   263A      1.130753   264A      1.136267  
     265A      1.142191   266A      1.143788   267A      1.147665  
     268A      1.155937   269A      1.162319   270A      1.164352  
     271A      1.170937   272A      1.177164   273A      1.180035  
     274A      1.185727   275A      1.198833   276A      1.200671  
     277A      1.201158   278A      1.207789   279A      1.215913  
     280A      1.216947   281A      1.220861   282A      1.225147  
     283A      1.229765   284A      1.238569   285A      1.242653  
     286A      1.249582   287A      1.255201   288A      1.265166  
     289A      1.268785   290A      1.276648   291A      1.285020  
     292A      1.288093   293A      1.296784   294A      1.299858  
[...]
	 D(22,21,24,25)   =         1.643730	      94.178806
	 D(22,21,24,26)   =        -2.616588	    -149.919447
	 D(23,21,24,25)   =        -0.381405	     -21.852917
	 D(23,21,24,26)   =         1.641462	      94.048830
	 R(12,15)         =         6.435666	       3.405608

	Current energy   :      -314.9808615976

	Energy change for the previous step:
		Projected    :        -0.0000000000
		Actual       :        -0.0000000001

	Performing BFGS update.
	Previous computed or guess Hessian on step 1.
	Denominators (dg)(dq) or (dq)(dq) are very small.
	 Skipping Hessian update for step 14.
	Denominators (dg)(dq) or (dq)(dq) are very small.
	 Skipping Hessian update for step 13.
	Denominators (dg)(dq) or (dq)(dq) are very small.
	 Skipping Hessian update for step 12.
	Denominators (dg)(dq) or (dq)(dq) are very small.
	 Skipping Hessian update for step 11.
	Denominators (dg)(dq) or (dq)(dq) are very small.
	 Skipping Hessian update for step 10.
	Denominators (dg)(dq) or (dq)(dq) are very small.
	 Skipping Hessian update for step 9.
	Denominators (dg)(dq) or (dq)(dq) are very small.
	 Skipping Hessian update for step 8.
	Denominators (dg)(dq) or (dq)(dq) are very small.
	 Skipping Hessian update for step 7.
	Denominators (dg)(dq) or (dq)(dq) are very small.
	 Skipping Hessian update for step 6.
	Denominators (dg)(dq) or (dq)(dq) are very small.
	 Skipping Hessian update for step 5.
	Denominators (dg)(dq) or (dq)(dq) are very small.
	 Skipping Hessian update for step 4.
	Denominators (dg)(dq) or (dq)(dq) are very small.
	 Skipping Hessian update for step 3.
	Denominators (dg)(dq) or (dq)(dq) are very small.
	 Skipping Hessian update for step 2.
	Steps to be used in Hessian update: 1
	Taking RFO optimization step.
	Going to follow RFO solution 1.
	Using RFO vector 1.
	Norm of target step-size    0.00002
	Projected energy change by RFO approximation:        -0.0000000000

	Back-transformation to cartesian coordinates...
	Successfully converged to displaced geometry.

	--- Internal Coordinate Step in ANG or DEG, aJ/ANG or AJ/DEG ---
	 ---------------------------------------------------------------------------
	   Coordinate                Previous        Force       Change         New 
	   ----------                --------       ------       ------       ------
	    1 R(1,2)          =      1.089727    -0.000001    -0.000000     1.089727
	    2 R(1,3)          =      1.089206    -0.000000    -0.000000     1.089205
	    3 R(1,4)          =      1.091495    -0.000001    -0.000000     1.091495
	    4 R(1,9)          =      1.525118    -0.000000    -0.000000     1.525118
	    5 R(5,6)          =      1.090930     0.000000     0.000000     1.090930
	    6 R(5,7)          =      1.089741    -0.000000    -0.000000     1.089741
	    7 R(5,8)          =      1.090915    -0.000001    -0.000000     1.090914
	    8 R(5,12)         =      1.523407    -0.000000    -0.000000     1.523407
	    9 R(9,10)         =      1.093551    -0.000001    -0.000000     1.093551
	   10 R(9,11)         =      1.092267    -0.000001    -0.000000     1.092267
	   11 R(9,15)         =      1.527497    -0.000001    -0.000000     1.527496
	   12 R(12,13)        =      1.093317     0.000001     0.000000     1.093317
	   13 R(12,14)        =      1.091007     0.000000     0.000000     1.091007
	   14 R(12,24)        =      1.526308    -0.000000    -0.000000     1.526308
	   15 R(15,16)        =      1.094170    -0.000001    -0.000000     1.094170
	   16 R(15,17)        =      1.094183    -0.000001    -0.000000     1.094182
	   17 R(15,18)        =      1.525001    -0.000001    -0.000000     1.525001
	   18 R(18,19)        =      1.093289     0.000000     0.000000     1.093289
	   19 R(18,20)        =      1.094882     0.000000     0.000000     1.094882
	   20 R(18,21)        =      1.528593    -0.000001    -0.000000     1.528593
	   21 R(21,22)        =      1.094746     0.000002     0.000000     1.094746
	   22 R(21,23)        =      1.092093     0.000002     0.000000     1.092094
	   23 R(21,24)        =      1.534998     0.000000     0.000000     1.534998
	   24 R(24,25)        =      1.093287     0.000002     0.000000     1.093287
	   25 R(24,26)        =      1.095639     0.000000     0.000000     1.095639
	   26 B(1,9,10)       =    109.641260     0.000000    -0.000004   109.641256
	   27 B(1,9,11)       =    109.142222     0.000000     0.000016   109.142238
	   28 B(1,9,15)       =    113.235311    -0.000000    -0.000012   113.235298
	   29 B(2,1,3)        =    107.609303    -0.000000    -0.000004   107.609299
	   30 B(2,1,4)        =    107.863514    -0.000000    -0.000000   107.863513
	   31 B(2,1,9)        =    111.172897     0.000000     0.000014   111.172912
	   32 B(3,1,4)        =    107.823872     0.000000    -0.000002   107.823870
	   33 B(3,1,9)        =    111.621268    -0.000000    -0.000001   111.621267
	   34 B(4,1,9)        =    110.587540    -0.000000    -0.000007   110.587533
	   35 B(5,12,13)      =    109.778086    -0.000000     0.000014   109.778099
	   36 B(5,12,14)      =    109.787640    -0.000000    -0.000049   109.787591
	   37 B(5,12,24)      =    112.130032     0.000000     0.000006   112.130038
	   38 B(6,5,7)        =    107.939751     0.000000    -0.000002   107.939749
	   39 B(6,5,8)        =    107.651885     0.000000     0.000004   107.651889
	   40 B(6,5,12)       =    110.772758    -0.000000    -0.000005   110.772753
	   41 B(7,5,8)        =    107.914674    -0.000000    -0.000002   107.914672
	   42 B(7,5,12)       =    111.702496    -0.000000    -0.000003   111.702492
	   43 B(8,5,12)       =    110.704052     0.000000     0.000009   110.704061
	   44 B(9,15,16)      =    109.260301    -0.000000    -0.000023   109.260278
	   45 B(9,15,17)      =    108.767573    -0.000000    -0.000003   108.767570
	   46 B(9,15,18)      =    113.303969     0.000000     0.000007   113.303977
	   47 B(10,9,11)      =    106.511852    -0.000000    -0.000001   106.511851
	   48 B(10,9,15)      =    109.097969     0.000000    -0.000003   109.097966
	   49 B(11,9,15)      =    108.989516     0.000000     0.000005   108.989521
	   50 B(12,24,21)     =    114.222089    -0.000000    -0.000011   114.222079
	   51 B(12,24,25)     =    107.817727    -0.000000    -0.000044   107.817683
	   52 B(12,24,26)     =    109.357381     0.000000     0.000063   109.357444
	   53 B(13,12,14)     =    106.349072     0.000000     0.000013   106.349085
	   54 B(13,12,24)     =    108.575254     0.000000     0.000032   108.575287
	   55 B(14,12,24)     =    110.047020     0.000000    -0.000014   110.047006
	   56 B(15,18,19)     =    109.621659    -0.000000     0.000000   109.621659
	   57 B(15,18,20)     =    108.567903     0.000000     0.000010   108.567913
	   58 B(15,18,21)     =    114.482319    -0.000000    -0.000026   114.482293
	   59 B(16,15,17)     =    106.660542    -0.000000    -0.000013   106.660528
	   60 B(16,15,18)     =    108.848718     0.000000     0.000016   108.848734
	   61 B(17,15,18)     =    109.785087     0.000000     0.000015   109.785102
	   62 B(18,21,22)     =    109.429389    -0.000000    -0.000051   109.429338
	   63 B(18,21,23)     =    108.041558    -0.000000     0.000008   108.041566
	   64 B(18,21,24)     =    114.043453     0.000000     0.000038   114.043491
	   65 B(19,18,20)     =    106.492201    -0.000000     0.000010   106.492211
	   66 B(19,18,21)     =    108.300186     0.000000     0.000019   108.300205
	   67 B(20,18,21)     =    109.079347    -0.000000    -0.000011   109.079336
	   68 B(21,24,25)     =    109.773574     0.000000    -0.000012   109.773563
	   69 B(21,24,26)     =    109.322300    -0.000000     0.000014   109.322314
	   70 B(22,21,23)     =    106.294893     0.000000     0.000012   106.294905
	   71 B(22,21,24)     =    109.197305    -0.000000    -0.000017   109.197288
	   72 B(23,21,24)     =    109.544302    -0.000000     0.000009   109.544311
	   73 B(25,24,26)     =    106.020367    -0.000000    -0.000012   106.020355
	   74 D(1,9,15,16)    =    174.739195     0.000000     0.000210   174.739404
	   75 D(1,9,15,17)    =     58.668256     0.000000     0.000240    58.668496
	   76 D(1,9,15,18)    =    -63.717991     0.000000     0.000218   -63.717773
	   77 D(2,1,9,10)     =     62.654625     0.000000     0.000028    62.654653
	   78 D(2,1,9,11)     =    -53.660972    -0.000000     0.000023   -53.660950
	   79 D(2,1,9,15)     =   -175.252907    -0.000000     0.000013  -175.252894
	   80 D(3,1,9,10)     =    -57.510951     0.000000     0.000024   -57.510926
	   81 D(3,1,9,11)     =   -173.826548    -0.000000     0.000019  -173.826529
	   82 D(3,1,9,15)     =     64.581518    -0.000000     0.000008    64.581527
	   83 D(4,1,9,10)     =   -177.550893     0.000000     0.000032  -177.550861
	   84 D(4,1,9,11)     =     66.133510     0.000000     0.000027    66.133536
	   85 D(4,1,9,15)     =    -55.458425     0.000000     0.000017   -55.458408
	   86 D(5,12,24,21)   =   -177.352182     0.000000    -0.000261  -177.352443
	   87 D(5,12,24,25)   =     60.354948     0.000000    -0.000207    60.354741
	   88 D(5,12,24,26)   =    -54.490299     0.000000    -0.000203   -54.490502
	   89 D(6,5,12,13)    =     62.606592     0.000000    -0.000029    62.606563
	   90 D(6,5,12,14)    =    179.175797    -0.000000    -0.000034   179.175763
	   91 D(6,5,12,24)    =    -58.168851    -0.000000    -0.000083   -58.168934
	   92 D(7,5,12,13)    =    -57.760181     0.000000    -0.000020   -57.760201
	   93 D(7,5,12,14)    =     58.809024     0.000000    -0.000025    58.808999
	   94 D(7,5,12,24)    =   -178.535623    -0.000000    -0.000075  -178.535698
	   95 D(8,5,12,13)    =   -178.048242     0.000000    -0.000021  -178.048264
	   96 D(8,5,12,14)    =    -61.479037     0.000000    -0.000026   -61.479064
	   97 D(8,5,12,24)    =     61.176315    -0.000000    -0.000076    61.176239
	   98 D(9,15,18,19)   =     64.321178     0.000000     0.000253    64.321430
	   99 D(9,15,18,20)   =    -51.635552     0.000000     0.000235   -51.635318
	  100 D(9,15,18,21)   =   -173.766267     0.000000     0.000259  -173.766008
	  101 D(10,9,15,16)   =    -62.865548    -0.000000     0.000194   -62.865354
	  102 D(10,9,15,17)   =   -178.936487     0.000000     0.000224  -178.936263
	  103 D(10,9,15,18)   =     58.677266    -0.000000     0.000203    58.677469
	  104 D(11,9,15,16)   =     53.061588    -0.000000     0.000194    53.061782
	  105 D(11,9,15,17)   =    -63.009351     0.000000     0.000224   -63.009127
	  106 D(11,9,15,18)   =    174.604403    -0.000000     0.000202   174.604605
	  107 D(12,24,21,18)  =     95.715556     0.000000     0.000125    95.715681
	  108 D(12,24,21,22)  =    -27.038512     0.000000     0.000178   -27.038334
	  109 D(12,24,21,23)  =   -143.070235     0.000000     0.000168  -143.070066
	  110 D(13,12,24,21)  =     61.179498    -0.000000    -0.000305    61.179194
	  111 D(13,12,24,25)  =    -61.113372     0.000000    -0.000251   -61.113622
	  112 D(13,12,24,26)  =   -175.958619     0.000000    -0.000246  -175.958865
	  113 D(14,12,24,21)  =    -54.843889    -0.000000    -0.000331   -54.844220
	  114 D(14,12,24,25)  =   -177.136759    -0.000000    -0.000277  -177.137036
	  115 D(14,12,24,26)  =     68.017993    -0.000000    -0.000272    68.017721
	  116 D(15,18,21,22)  =     61.914051     0.000000     0.000101    61.914152
	  117 D(15,18,21,23)  =    177.242214     0.000000     0.000093   177.242308
	  118 D(15,18,21,24)  =    -60.713279     0.000000     0.000136   -60.713143
	  119 D(16,15,18,19)  =   -173.905457     0.000000     0.000239  -173.905218
	  120 D(16,15,18,20)  =     70.137813    -0.000000     0.000221    70.138034
	  121 D(16,15,18,21)  =    -51.992902     0.000000     0.000246   -51.992656
	  122 D(17,15,18,19)  =    -57.497833     0.000000     0.000241   -57.497592
	  123 D(17,15,18,20)  =   -173.454562     0.000000     0.000223  -173.454340
	  124 D(17,15,18,21)  =     64.414723     0.000000     0.000247    64.414970
	  125 D(18,21,24,25)  =   -143.067126    -0.000000     0.000053  -143.067074
	  126 D(18,21,24,26)  =    -27.165379    -0.000000     0.000040   -27.165340
	  127 D(19,18,21,22)  =   -175.454419     0.000000     0.000098  -175.454320
	  128 D(19,18,21,23)  =    -60.126256    -0.000000     0.000090   -60.126165
	  129 D(19,18,21,24)  =     61.918251     0.000000     0.000133    61.918384
	  130 D(20,18,21,22)  =    -59.937556     0.000000     0.000115   -59.937441
	  131 D(20,18,21,23)  =     55.390607     0.000000     0.000107    55.390714
	  132 D(20,18,21,24)  =    177.435114     0.000000     0.000149   177.435263
	  133 D(22,21,24,25)  =     94.178806     0.000000     0.000106    94.178911
	  134 D(22,21,24,26)  =   -149.919447    -0.000000     0.000092  -149.919355
	  135 D(23,21,24,25)  =    -21.852917    -0.000000     0.000096   -21.852822
	  136 D(23,21,24,26)  =     94.048830    -0.000000     0.000082    94.048912
	  137 R(12,15)        =      3.405608     0.000000     0.000001     3.405609
	 ---------------------------------------------------------------------------

  ==> Convergence Check <==

  Measures of convergence in internal coordinates in au.
  Criteria marked as inactive (o), active & met (*), and active & unmet ( ).
  ---------------------------------------------------------------------------------------------
   Step     Total Energy     Delta E     MAX Force     RMS Force      MAX Disp      RMS Disp   
  ---------------------------------------------------------------------------------------------
    Convergence Criteria             o    2.00e-06 *    1.00e-06 *    6.00e-06 *    4.00e-06 *
  ---------------------------------------------------------------------------------------------
     15    -314.98086160   -5.83e-11 o    2.45e-07 *    5.94e-08 *    5.77e-06 *    2.03e-06 *  ~
  ---------------------------------------------------------------------------------------------


  **** Optimization is complete! (in 15 steps) ****

  ==> Optimization Summary <==

  Measures of convergence in internal coordinates in au.
  --------------------------------------------------------------------------------------------------------------- ~
   Step         Total Energy             Delta E       MAX Force       RMS Force        MAX Disp        RMS Disp  ~
  --------------------------------------------------------------------------------------------------------------- ~
      1    -314.980861599388   -314.980861599388      0.00000180      0.00000036      0.00012764      0.00003502  ~
      2    -314.980861596288      0.000000003100      0.00000162      0.00000036      0.00009301      0.00003228  ~
      3    -314.980861597173     -0.000000000885      0.00000173      0.00000040      0.00008389      0.00002637  ~
      4    -314.980861598742     -0.000000001569      0.00000124      0.00000033      0.00015718      0.00004122  ~
      5    -314.980861594652      0.000000004090      0.00000326      0.00000077      0.00014145      0.00003642  ~
      6    -314.980861596150     -0.000000001498      0.00000034      0.00000009      0.00001844      0.00000575  ~
      7    -314.980861601276     -0.000000005126      0.00000023      0.00000007      0.00003381      0.00000938  ~
      8    -314.980861597820      0.000000003456      0.00000056      0.00000014      0.00004690      0.00001328  ~
      9    -314.980861599661     -0.000000001841      0.00000092      0.00000021      0.00003302      0.00001068  ~
     10    -314.980861597959      0.000000001702      0.00000028      0.00000006      0.00001233      0.00000372  ~
     11    -314.980861595955      0.000000002004      0.00000043      0.00000010      0.00001267      0.00000446  ~
     12    -314.980861598075     -0.000000002120      0.00000094      0.00000022      0.00002380      0.00000661  ~
     13    -314.980861599000     -0.000000000925      0.00000087      0.00000019      0.00001497      0.00000427  ~
     14    -314.980861597492      0.000000001508      0.00000021      0.00000005      0.00000640      0.00000232  ~
     15    -314.980861597550     -0.000000000058      0.00000025      0.00000006      0.00000577      0.00000203  ~
  --------------------------------------------------------------------------------------------------------------- ~

	Writing optimization data to binary file.
	Final energy is   -314.9808615975503
	Final (previous) structure:
	Cartesian Geometry (in Angstrom)
	    C     3.1797312257   0.7714695099   0.7710434439
	    H     4.2153038950   1.1080439014   0.7284654214
	    H     3.1553871095  -0.1463605421   1.3570161255
	    H     2.6040554974   1.5267415774   1.3091162111
	    C    -3.2169414929   1.3256454697   0.2621863067
	    H    -4.0102636880   0.7921584628   0.7876963198
	    H    -3.6840735282   2.0010424206  -0.4541667822
	    H    -2.6834009523   1.9314814001   0.9959382607
	    C     2.6112551941   0.5600573001  -0.6282862873
	    H     3.1714085045  -0.2292972330  -1.1372085064
	    H     2.7551682817   1.4702937310  -1.2146366847
	    C    -2.2689365038   0.3480582549  -0.4207339016
	    H    -2.8113072616  -0.2265191991  -1.1764031590
	    H    -1.4913880210   0.8981896515  -0.9527768629
	    C     1.1271053530   0.1987476679  -0.6275447780
	    H     0.7658809124   0.1545661368  -1.6594233115
	    H     0.5697960321   1.0007464970  -0.1341488080
	    C     0.8304806303  -1.1319763235   0.0556950822
	    H     1.0871093863  -1.0653389199   1.1163469814
	    H     1.4837164741  -1.8980612307  -0.3746118433
	    C    -0.6225477793  -1.5926890591  -0.0585345842
	    H    -0.8748057668  -1.7438927082  -1.1130350304
	    H    -0.7057938647  -2.5709363748   0.4197647776
	    C    -1.6363050767  -0.6261348558   0.5693885906
	    H    -2.4426532459  -1.1923091320   1.0432303089
	    H    -1.1498804469  -0.0623636105   1.3731158494
	Saving final (previous) structure.
			--------------------------
			 OPTKING Finished Execution 
			--------------------------

    Final optimized geometry and variables:
    Molecular point group: c1
    Full point group: C1

    Geometry (in Angstrom), charge = 0, multiplicity = 1:

    C            3.179731225736     0.771469509930     0.771043443915
    H            4.215303895040     1.108043901412     0.728465421357
    H            3.155387109512    -0.146360542098     1.357016125512
    H            2.604055497410     1.526741577418     1.309116211129
    C           -3.216941492902     1.325645469736     0.262186306669
    H           -4.010263688018     0.792158462777     0.787696319823
    H           -3.684073528235     2.001042420608    -0.454166782152
    H           -2.683400952322     1.931481400087     0.995938260667
    C            2.611255194087     0.560057300126    -0.628286287347
    H            3.171408504463    -0.229297233040    -1.137208506363
    H            2.755168281664     1.470293731007    -1.214636684656
    C           -2.268936503832     0.348058254891    -0.420733901575
    H           -2.811307261640    -0.226519199051    -1.176403158990
    H           -1.491388021045     0.898189651467    -0.952776862855
    C            1.127105353005     0.198747667902    -0.627544777983
    H            0.765880912375     0.154566136789    -1.659423311536
    H            0.569796032101     1.000746496987    -0.134148807985
    C            0.830480630297    -1.131976323510     0.055695082173
    H            1.087109386253    -1.065338919901     1.116346981443
    H            1.483716474086    -1.898061230697    -0.374611843348
    C           -0.622547779300    -1.592689059145    -0.058534584162
    H           -0.874805766760    -1.743892708183    -1.113035030408
    H           -0.705793864736    -2.570936374826     0.419764777636
    C           -1.636305076677    -0.626134855817     0.569388590625
    H           -2.442653245880    -1.192309131994     1.043230308912
    H           -1.149880446929    -0.062363610473     1.373115849444

	Cleaning optimization helper files.

*** Psi4 exiting successfully. Buy a developer a beer!
