    -----------------------------------------------------------------------
          Psi4: An Open-Source Ab Initio Electronic Structure Package
                              Psi4 1.0.0 Driver

                          Git: Rev {master} 6a9a71b dirty

    J. M. Turney, A. C. Simmonett, R. M. Parrish, E. G. Hohenstein,
    F. A. Evangelista, J. T. Fermann, B. J. Mintz, L. A. Burns, J. J. Wilke,
    M. L. Abrams, N. J. Russ, M. L. Leininger, C. L. Janssen, E. T. Seidl,
    W. D. Allen, H. F. Schaefer, R. A. King, E. F. Valeev, C. D. Sherrill,
    and T. D. Crawford, WIREs Comput. Mol. Sci. 2, 556-565 (2012)
    (doi: 10.1002/wcms.93)

                         Additional Contributions by
    A. E. DePrince, U. Bozkaya, A. Yu. Sokolov, D. G. A. Smith, R. Di Remigio,
    R. M. Richard, J. F. Gonthier, H. R. McAlexander, M. Saitow, and
    B. P. Pritchard
    -----------------------------------------------------------------------


    Psi4 started on: Tue Sep 27 21:33:25 2016

    Process ID:   3815
    PSI4DATADIR: /usr/local/hpc5/psi4conda/share/psi4
    Memory level set to 256.000 MB

  ==> Input File <==

--------------------------------------------------------------------------
memory 40 Gb

molecule molecule_1 {
0 1
    C            2.131378406779     1.579518637458    -0.549299091492
    H            1.992214666649     2.319338488686     0.240265362918
    H            1.199727646420     1.522510771529    -1.111457801162
    H            2.906710621238     1.948421911419    -1.221294992703
    C           -3.160837391002     1.086544246039     0.308213829835
    H           -3.250450370207     1.992249486540     0.907522059942
    H           -3.552034857303     1.301193465144    -0.687058198661
    H           -3.797678178784     0.322835075844     0.756886420125
    C            2.509385521203     0.227946550881     0.050460818055
    H            3.457168472417     0.339879277788     0.579987764883
    H            2.695208341843    -0.491767067147    -0.751490117228
    C           -1.717111655506     0.604145908418     0.228490150781
    H           -1.090074999346     1.383518031693    -0.212939250762
    H           -1.338379277691     0.432470933098     1.237732003512
    C            1.446685071881    -0.339327574938     1.008979827712
    H            1.932665793724    -0.710979806377     1.913762430873
    H            0.787514332017     0.469068030499     1.329261432333
    C            0.634516199620    -1.493772714912     0.413629989565
    H           -0.043489920534    -1.894846180232     1.174143097876
    H            1.340445154779    -2.296712018276     0.183918100232
    C           -0.172990838525    -1.169656745314    -0.849468754489
    H            0.366250795566    -0.440017983535    -1.458612331792
    H           -0.244316276503    -2.072539043472    -1.460680074616
    C           -1.596435894061    -0.675101995681    -0.592303238800
    H           -2.158042445256    -1.468106068793    -0.087038123955
    H           -2.091562949202    -0.516816276985    -1.555607523222
}

set globals {
  reference rhf
  g_convergence gau_verytight
  basis aug-cc-pvtz
  freeze_core true
  scf_type df
  mp_type df
}
optimize('mp2')
--------------------------------------------------------------------------
/usr/local/hpc5/psi4conda/lib/python2.7/site-packages/v2rdm_casscf/v2rdm_casscf.so loaded.

  Memory set to  40.000 GiB by Python script.
gradient() will perform analytic gradient computation.

*** tstart() called on wr42
*** at Tue Sep 27 21:33:25 2016


         ---------------------------------------------------------
                                   SCF
            by Justin Turney, Rob Parrish, and Andy Simmonett
                              RHF Reference
                       24 Threads,  40000 MiB Core
         ---------------------------------------------------------

  ==> Geometry <==

    Molecular point group: c1
    Full point group: C1

    Geometry (in Angstrom), charge = 0, multiplicity = 1:

       Center              X                  Y                   Z               Mass       
    ------------   -----------------  -----------------  -----------------  -----------------
           C          2.131378406779     1.579518637458    -0.549299091492    12.000000000000
           H          1.992214666649     2.319338488686     0.240265362918     1.007825032070
           H          1.199727646420     1.522510771529    -1.111457801162     1.007825032070
           H          2.906710621238     1.948421911419    -1.221294992703     1.007825032070
           C         -3.160837391002     1.086544246039     0.308213829835    12.000000000000
           H         -3.250450370207     1.992249486540     0.907522059942     1.007825032070
           H         -3.552034857303     1.301193465144    -0.687058198661     1.007825032070
           H         -3.797678178784     0.322835075844     0.756886420125     1.007825032070
           C          2.509385521203     0.227946550881     0.050460818055    12.000000000000
           H          3.457168472417     0.339879277788     0.579987764883     1.007825032070
           H          2.695208341843    -0.491767067147    -0.751490117228     1.007825032070
           C         -1.717111655506     0.604145908418     0.228490150781    12.000000000000
           H         -1.090074999346     1.383518031693    -0.212939250762     1.007825032070
           H         -1.338379277691     0.432470933098     1.237732003512     1.007825032070
           C          1.446685071881    -0.339327574938     1.008979827712    12.000000000000
           H          1.932665793724    -0.710979806377     1.913762430873     1.007825032070
           H          0.787514332017     0.469068030499     1.329261432333     1.007825032070
           C          0.634516199620    -1.493772714912     0.413629989565    12.000000000000
           H         -0.043489920534    -1.894846180232     1.174143097876     1.007825032070
           H          1.340445154779    -2.296712018276     0.183918100232     1.007825032070
           C         -0.172990838525    -1.169656745314    -0.849468754489    12.000000000000
           H          0.366250795566    -0.440017983535    -1.458612331792     1.007825032070
           H         -0.244316276503    -2.072539043472    -1.460680074616     1.007825032070
           C         -1.596435894061    -0.675101995681    -0.592303238800    12.000000000000
           H         -2.158042445256    -1.468106068793    -0.087038123955     1.007825032070
           H         -2.091562949202    -0.516816276985    -1.555607523222     1.007825032070

  Running in c1 symmetry.

  Rotational constants: A =      0.08936  B =      0.03442  C =      0.02949 [cm^-1]
  Rotational constants: A =   2678.84219  B =   1032.02837  C =    884.04038 [MHz]
  Nuclear repulsion =  403.473798594995799

  Charge       = 0
  Multiplicity = 1
  Electrons    = 66
  Nalpha       = 33
  Nbeta        = 33

  ==> Algorithm <==

  SCF Algorithm Type is DF.
  DIIS enabled.
  MOM disabled.
  Fractional occupation disabled.
  Guess Type is SAD.
  Energy threshold   = 1.00e-10
  Density threshold  = 1.00e-10
  Integral threshold = 0.00e+00

  ==> Primary Basis <==

  Basis Set: AUG-CC-PVTZ
    Number of shells: 274
    Number of basis function: 782
    Number of Cartesian functions: 890
    Spherical Harmonics?: true
    Max angular momentum: 3

  ==> Pre-Iterations <==

   -------------------------------------------------------
    Irrep   Nso     Nmo     Nalpha   Nbeta   Ndocc  Nsocc
   -------------------------------------------------------
     A        782     782       0       0       0       0
   -------------------------------------------------------
    Total     782     782      33      33      33       0
   -------------------------------------------------------

  ==> Integral Setup <==

  ==> DFJK: Density-Fitted J/K Matrices <==

    J tasked:                  Yes
    K tasked:                  Yes
    wK tasked:                  No
    OpenMP threads:             24
    Integrals threads:          24
    Memory (MB):             28610
    Algorithm:                Core
    Integral Cache:           NONE
    Schwarz Cutoff:          1E-12
    Fitting Condition:       1E-12

   => Auxiliary Basis Set <=

  Basis Set: 
    Number of shells: 492
    Number of basis function: 1660
    Number of Cartesian functions: 2038
    Spherical Harmonics?: true
    Max angular momentum: 4

  Minimum eigenvalue in the overlap matrix is 1.6644107170E-06.
  Using Symmetric Orthogonalization.
  SCF Guess: Superposition of Atomic Densities via on-the-fly atomic UHF.

  ==> Iterations <==

                           Total Energy        Delta E     RMS |[F,P]|

   @DF-RHF iter   0:  -316.93145239147128   -3.16931e+02   6.99334e-03 
   @DF-RHF iter   1:  -313.29710127050356    3.63435e+00   6.93985e-04 
   @DF-RHF iter   2:  -313.50199239767022   -2.04891e-01   2.48793e-04 DIIS
   @DF-RHF iter   3:  -313.52760824983335   -2.56159e-02   1.00748e-04 DIIS
   @DF-RHF iter   4:  -313.53254413708322   -4.93589e-03   1.66701e-05 DIIS
   @DF-RHF iter   5:  -313.53271709904033   -1.72962e-04   5.35523e-06 DIIS
   @DF-RHF iter   6:  -313.53273213932499   -1.50403e-05   1.29495e-06 DIIS
   @DF-RHF iter   7:  -313.53273321852481   -1.07920e-06   2.40027e-07 DIIS
   @DF-RHF iter   8:  -313.53273326376933   -4.52445e-08   7.22614e-08 DIIS
   @DF-RHF iter   9:  -313.53273326674656   -2.97723e-09   2.22377e-08 DIIS
   @DF-RHF iter  10:  -313.53273326709922   -3.52657e-10   5.15510e-09 DIIS
   @DF-RHF iter  11:  -313.53273326711957   -2.03499e-11   1.28359e-09 DIIS
   @DF-RHF iter  12:  -313.53273326712127   -1.70530e-12   3.64929e-10 DIIS
   @DF-RHF iter  13:  -313.53273326712025    1.02318e-12   1.11811e-10 DIIS
   @DF-RHF iter  14:  -313.53273326712116   -9.09495e-13   2.92486e-11 DIIS

  ==> Post-Iterations <==

    Orbital Energies (a.u.)
    -----------------------

    Doubly Occupied:                                                      

       1A    -11.212529     2A    -11.211964     3A    -11.211345  
       4A    -11.210798     5A    -11.209728     6A    -11.209059  
       7A    -11.207439     8A    -11.206986     9A     -1.092886  
      10A     -1.056904    11A     -1.007747    12A     -0.951379  
      13A     -0.881803    14A     -0.831737    15A     -0.785970  
      16A     -0.759856    17A     -0.646646    18A     -0.627601  
      19A     -0.607318    20A     -0.591267    21A     -0.580489  
      22A     -0.558392    23A     -0.544779    24A     -0.539706  
      25A     -0.508187    26A     -0.498925    27A     -0.492816  
      28A     -0.480620    29A     -0.464612    30A     -0.463137  
      31A     -0.439700    32A     -0.436054    33A     -0.431815  

    Virtual:                                                              

      34A      0.029107    35A      0.032306    36A      0.034088  
      37A      0.035040    38A      0.047817    39A      0.048713  
      40A      0.049506    41A      0.053041    42A      0.053883  
      43A      0.069641    44A      0.071339    45A      0.071965  
      46A      0.074549    47A      0.075290    48A      0.080987  
      49A      0.087294    50A      0.100864    51A      0.101943  
      52A      0.113869    53A      0.116657    54A      0.119015  
      55A      0.125378    56A      0.127495    57A      0.130438  
      58A      0.134001    59A      0.137656    60A      0.142071  
      61A      0.145222    62A      0.149341    63A      0.149936  
      64A      0.153461    65A      0.155998    66A      0.166211  
      67A      0.167427    68A      0.170626    69A      0.173190  
      70A      0.176224    71A      0.177969    72A      0.180904  
      73A      0.185685    74A      0.190990    75A      0.194281  
      76A      0.201608    77A      0.206713    78A      0.220681  
      79A      0.226679    80A      0.239068    81A      0.241787  
      82A      0.249619    83A      0.256132    84A      0.257515  
      85A      0.265769    86A      0.270032    87A      0.277361  
      88A      0.283310    89A      0.286468    90A      0.292107  
      91A      0.297803    92A      0.306495    93A      0.310153  
      94A      0.314737    95A      0.320935    96A      0.323364  
      97A      0.327335    98A      0.332973    99A      0.336569  
     100A      0.342375   101A      0.343549   102A      0.346001  
     103A      0.350040   104A      0.353563   105A      0.357314  
     106A      0.362306   107A      0.365115   108A      0.369270  
     109A      0.370688   110A      0.376119   111A      0.379731  
     112A      0.381388   113A      0.384327   114A      0.387437  
     115A      0.389179   116A      0.397848   117A      0.399470  
     118A      0.405119   119A      0.410080   120A      0.412524  
     121A      0.415787   122A      0.418438   123A      0.426062  
     124A      0.428333   125A      0.433108   126A      0.442271  
     127A      0.445439   128A      0.448932   129A      0.451499  
     130A      0.457106   131A      0.459672   132A      0.462317  
     133A      0.466188   134A      0.472992   135A      0.474697  
     136A      0.478493   137A      0.481598   138A      0.485534  
     139A      0.485682   140A      0.495433   141A      0.497053  
     142A      0.500314   143A      0.504509   144A      0.507006  
     145A      0.509633   146A      0.516176   147A      0.517353  
     148A      0.520170   149A      0.529016   150A      0.531575  
     151A      0.539204   152A      0.540231   153A      0.548686  
     154A      0.551535   155A      0.557987   156A      0.567158  
     157A      0.568389   158A      0.569493   159A      0.575092  
     160A      0.577544   161A      0.581507   162A      0.587111  
     163A      0.591752   164A      0.595782   165A      0.602564  
     166A      0.609067   167A      0.611513   168A      0.618339  
     169A      0.620225   170A      0.623023   171A      0.631142  
     172A      0.636549   173A      0.638069   174A      0.643200  
     175A      0.645841   176A      0.650175   177A      0.657271  
     178A      0.660640   179A      0.666613   180A      0.670545  
     181A      0.673731   182A      0.679038   183A      0.690059  
     184A      0.692178   185A      0.698690   186A      0.700349  
     187A      0.709182   188A      0.714746   189A      0.717752  
     190A      0.724342   191A      0.731506   192A      0.734059  
     193A      0.739832   194A      0.742420   195A      0.759420  
     196A      0.762350   197A      0.772541   198A      0.778168  
     199A      0.785911   200A      0.787978   201A      0.796852  
     202A      0.800176   203A      0.822623   204A      0.831967  
     205A      0.835741   206A      0.840995   207A      0.845651  
     208A      0.854887   209A      0.860733   210A      0.869048  
     211A      0.872714   212A      0.874398   213A      0.886389  
     214A      0.888785   215A      0.890185   216A      0.897202  
     217A      0.900880   218A      0.903254   219A      0.909337  
     220A      0.912081   221A      0.916018   222A      0.919138  
     223A      0.923031   224A      0.924372   225A      0.932885  
     226A      0.941287   227A      0.950995   228A      0.960958  
     229A      0.967912   230A      0.973677   231A      0.976200  
     232A      0.981132   233A      0.988958   234A      0.989648  
     235A      0.992505   236A      0.997058   237A      0.999910  
     238A      1.005200   239A      1.010040   240A      1.013380  
     241A      1.019587   242A      1.026982   243A      1.030275  
     244A      1.040558   245A      1.044303   246A      1.048227  
     247A      1.054468   248A      1.061320   249A      1.067120  
     250A      1.069929   251A      1.073773   252A      1.085798  
     253A      1.093322   254A      1.096057   255A      1.099533  
     256A      1.108321   257A      1.111623   258A      1.116157  
     259A      1.125068   260A      1.128631   261A      1.129660  
     262A      1.141242   263A      1.143580   264A      1.147150  
     265A      1.150035   266A      1.153494   267A      1.155787  
     268A      1.169155   269A      1.171396   270A      1.177095  
     271A      1.179358   272A      1.189526   273A      1.192618  
     274A      1.198241   275A      1.206849   276A      1.209704  
     277A      1.215716   278A      1.221904   279A      1.225962  
     280A      1.232124   281A      1.233907   282A      1.238841  
     283A      1.253917   284A      1.258481   285A      1.260818  
     286A      1.265995   287A      1.269503   288A      1.271703  
     289A      1.281911   290A      1.288483   291A      1.292911  
     292A      1.302282   293A      1.307766   294A      1.310822  
     295A      1.315179   296A      1.326067   297A      1.328788  
     298A      1.331175   299A      1.343014   300A      1.347886  
     301A      1.355854   302A      1.358727   303A      1.364186  
     304A      1.368559   305A      1.377309   306A      1.382169  
     307A      1.386419   308A      1.391377   309A      1.404624  
     310A      1.410302   311A      1.413905   312A      1.418875  
     313A      1.427793   314A      1.450414   315A      1.452233  
     316A      1.458845   317A      1.465993   318A      1.483137  
     319A      1.485916   320A      1.492656   321A      1.497537  
     322A      1.508321   323A      1.514398   324A      1.517075  
     325A      1.520838   326A      1.537506   327A      1.542472  
     328A      1.552472   329A      1.555777   330A      1.565189  
     331A      1.569687   332A      1.576963   333A      1.580482  
     334A      1.586729   335A      1.594218   336A      1.605483  
     337A      1.609833   338A      1.615616   339A      1.626268  
     340A      1.632563   341A      1.635999   342A      1.642628  
     343A      1.648976   344A      1.650005   345A      1.657049  
     346A      1.664023   347A      1.674242   348A      1.686331  
     349A      1.690277   350A      1.694235   351A      1.703054  
     352A      1.708465   353A      1.713184   354A      1.719782  
     355A      1.724194   356A      1.728962   357A      1.741943  
     358A      1.743453   359A      1.749398   360A      1.752913  
     361A      1.760486   362A      1.769635   363A      1.775997  
     364A      1.781002   365A      1.785685   366A      1.792531  
     367A      1.793783   368A      1.799459   369A      1.803453  
     370A      1.807770   371A      1.812953   372A      1.825875  
     373A      1.835142   374A      1.839243   375A      1.844618  
     376A      1.852288   377A      1.858610   378A      1.866950  
     379A      1.870662   380A      1.884117   381A      1.884995  
     382A      1.890702   383A      1.891721   384A      1.903205  
     385A      1.908483   386A      1.917138   387A      1.927660  
     388A      1.930261   389A      1.936074   390A      1.949392  
     391A      1.955094   392A      1.962550   393A      1.968876  
     394A      1.975777   395A      1.987273   396A      1.999277  
     397A      2.005296   398A      2.008107   399A      2.010797  
     400A      2.011635   401A      2.015818   402A      2.028137  
     403A      2.033715   404A      2.041221   405A      2.048339  
     406A      2.051073   407A      2.065704   408A      2.070680  
     409A      2.075447   410A      2.081329   411A      2.090333  
     412A      2.098980   413A      2.111279   414A      2.115425  
     415A      2.120817   416A      2.130856   417A      2.133545  
     418A      2.141263   419A      2.155971   420A      2.160521  
     421A      2.176193   422A      2.180238   423A      2.185317  
     424A      2.195366   425A      2.203651   426A      2.213752  
     427A      2.221020   428A      2.225947   429A      2.236825  
     430A      2.244144   431A      2.252178   432A      2.257956  
     433A      2.264680   434A      2.273276   435A      2.286824  
     436A      2.292946   437A      2.301622   438A      2.311221  
     439A      2.317671   440A      2.319243   441A      2.331014  
     442A      2.346817   443A      2.362906   444A      2.366232  
     445A      2.368614   446A      2.377429   447A      2.378973  
     448A      2.394617   449A      2.407759   450A      2.414761  
     451A      2.432805   452A      2.437119   453A      2.444574  
     454A      2.458313   455A      2.470223   456A      2.478621  
     457A      2.481149   458A      2.503556   459A      2.505002  
     460A      2.521427   461A      2.539691   462A      2.547187  
     463A      2.552581   464A      2.563666   465A      2.572690  
     466A      2.582467   467A      2.592444   468A      2.608506  
     469A      2.612381   470A      2.622558   471A      2.633477  
     472A      2.647654   473A      2.658598   474A      2.674755  
     475A      2.694866   476A      2.715502   477A      2.720825  
     478A      2.755115   479A      2.764341   480A      2.784693  
     481A      2.794763   482A      2.811824   483A      2.827481  
     484A      2.841460   485A      2.943400   486A      2.945541  
     487A      3.026439   488A      3.084252   489A      3.098748  
     490A      3.140400   491A      3.180639   492A      3.260382  
     493A      3.294295   494A      3.359294   495A      3.373334  
     496A      3.402208   497A      3.416539   498A      3.439456  
     499A      3.464026   500A      3.476631   501A      3.501673  
     502A      3.517313   503A      3.523544   504A      3.527423  
     505A      3.542685   506A      3.561734   507A      3.588315  
     508A      3.591140   509A      3.600708   510A      3.611876  
     511A      3.616430   512A      3.642289   513A      3.652170  
     514A      3.655167   515A      3.665933   516A      3.668268  
     517A      3.676576   518A      3.688431   519A      3.694776  
     520A      3.700381   521A      3.720092   522A      3.731750  
     523A      3.737478   524A      3.747709   525A      3.752802  
     526A      3.765685   527A      3.768271   528A      3.771525  
     529A      3.782695   530A      3.796553   531A      3.802913  
     532A      3.812452   533A      3.817576   534A      3.829328  
     535A      3.832684   536A      3.842869   537A      3.851349  
     538A      3.860608   539A      3.864451   540A      3.873257  
     541A      3.892138   542A      3.896809   543A      3.907732  
     544A      3.909949   545A      3.918497   546A      3.926386  
     547A      3.934425   548A      3.942577   549A      3.958952  
     550A      3.962295   551A      3.966164   552A      3.973235  
     553A      3.984091   554A      3.997085   555A      4.000007  
     556A      4.004930   557A      4.009799   558A      4.024791  
     559A      4.026911   560A      4.030579   561A      4.037770  
     562A      4.047065   563A      4.057708   564A      4.061089  
     565A      4.067324   566A      4.079983   567A      4.095579  
     568A      4.099900   569A      4.105552   570A      4.115379  
     571A      4.125416   572A      4.127250   573A      4.137563  
     574A      4.147754   575A      4.155948   576A      4.158500  
     577A      4.172010   578A      4.179103   579A      4.182863  
     580A      4.200798   581A      4.216402   582A      4.222406  
     583A      4.223281   584A      4.238056   585A      4.251114  
     586A      4.252776   587A      4.263223   588A      4.270176  
     589A      4.286180   590A      4.297080   591A      4.303786  
     592A      4.314322   593A      4.316327   594A      4.331225  
     595A      4.339912   596A      4.349443   597A      4.359223  
     598A      4.372360   599A      4.376660   600A      4.383521  
     601A      4.402147   602A      4.402838   603A      4.419514  
     604A      4.421706   605A      4.433101   606A      4.438466  
     607A      4.457772   608A      4.476977   609A      4.491519  
     610A      4.499738   611A      4.512167   612A      4.517249  
     613A      4.545078   614A      4.551728   615A      4.560921  
     616A      4.563371   617A      4.581292   618A      4.606528  
     619A      4.610507   620A      4.625709   621A      4.642826  
     622A      4.651021   623A      4.662803   624A      4.668004  
     625A      4.678626   626A      4.689844   627A      4.710914  
     628A      4.727057   629A      4.735506   630A      4.750556  
     631A      4.760126   632A      4.767186   633A      4.776512  
     634A      4.783116   635A      4.792897   636A      4.800650  
     637A      4.816854   638A      4.824965   639A      4.835147  
     640A      4.849128   641A      4.852035   642A      4.861106  
     643A      4.873209   644A      4.878875   645A      4.891478  
     646A      4.896226   647A      4.925264   648A      4.929176  
     649A      4.948739   650A      4.956931   651A      4.963233  
     652A      4.974898   653A      4.986855   654A      4.990252  
     655A      5.008660   656A      5.025849   657A      5.030706  
     658A      5.045035   659A      5.063902   660A      5.074262  
     661A      5.099353   662A      5.104199   663A      5.111324  
     664A      5.121910   665A      5.128393   666A      5.141493  
     667A      5.166610   668A      5.170664   669A      5.180230  
     670A      5.195742   671A      5.202856   672A      5.224762  
     673A      5.226901   674A      5.238175   675A      5.252632  
     676A      5.262990   677A      5.272505   678A      5.285320  
     679A      5.296151   680A      5.310361   681A      5.315829  
     682A      5.322569   683A      5.333917   684A      5.351180  
     685A      5.356146   686A      5.372930   687A      5.387873  
     688A      5.390667   689A      5.396006   690A      5.407588  
     691A      5.417935   692A      5.436143   693A      5.441165  
     694A      5.451200   695A      5.452258   696A      5.470558  
     697A      5.484291   698A      5.491150   699A      5.496455  
     700A      5.499109   701A      5.510076   702A      5.534468  
     703A      5.551516   704A      5.562384   705A      5.575145  
     706A      5.586809   707A      5.609378   708A      5.632743  
     709A      5.635815   710A      5.654133   711A      5.665664  
     712A      5.671919   713A      5.687020   714A      5.689358  
     715A      5.698634   716A      5.708097   717A      5.721257  
     718A      5.728724   719A      5.743536   720A      5.763927  
     721A      5.778443   722A      5.786069   723A      5.796536  
     724A      5.807035   725A      5.816754   726A      5.841433  
     727A      5.859145   728A      5.871461   729A      5.883039  
     730A      5.915649   731A      5.966236   732A      5.970995  
     733A      5.997843   734A      6.010698   735A      6.028654  
     736A      6.046529   737A      6.070015   738A      6.093887  
     739A      6.112781   740A      6.128428   741A      6.148296  
     742A      6.178212   743A      6.192467   744A      6.219679  
     745A      6.228534   746A      6.249783   747A      6.259940  
     748A      6.272343   749A      6.292032   750A      6.312073  
     751A      6.328133   752A      6.329583   753A      6.347938  
     754A      6.382222   755A      6.406304   756A      6.448716  
     757A      6.458554   758A      6.500415   759A      6.614589  
     760A      6.660339   761A      6.670695   762A      6.699580  
     763A      6.735491   764A      6.799306   765A      6.833098  
     766A      6.854614   767A      6.887259   768A      6.911790  
     769A      6.959116   770A      7.018315   771A      7.055983  
     772A      7.079910   773A      7.122375   774A      7.154627  
     775A     18.031130   776A     18.283804   777A     18.477430  
     778A     18.551842   779A     18.851045   780A     19.227152  
     781A     19.726446   782A     19.983318  

    Final Occupation by Irrep:
              A 
    DOCC [    33 ]

  Energy converged.

  @DF-RHF Final Energy:  -313.53273326712116

   => Energetics <=

    Nuclear Repulsion Energy =            403.4737985949957988
    One-Electron Energy =               -1222.0926739722506227
    Two-Electron Energy =                 505.0861421101338351
    DFT Exchange-Correlation Energy =       0.0000000000000000
    Empirical Dispersion Energy =           0.0000000000000000
    PCM Polarization Energy =               0.0000000000000000
    EFP Energy =                            0.0000000000000000
    Total Energy =                       -313.5327332671210456


  Saving occupied orbitals to File 180.

*** tstop() called on wr42 at Tue Sep 27 21:34:14 2016
Module time:
	user time   =    1005.80 seconds =      16.76 minutes
	system time =      13.64 seconds =       0.23 minutes
	total time  =         49 seconds =       0.82 minutes
Total time:
	user time   =    1005.80 seconds =      16.76 minutes
	system time =      13.64 seconds =       0.23 minutes
	total time  =         49 seconds =       0.82 minutes


Properties will be evaluated at   0.000000,   0.000000,   0.000000 Bohr

Properties computed using the SCF density matrix

  Nuclear Dipole Moment: (a.u.)
     X:    -0.8326      Y:     2.0059      Z:    -0.2088

  Electronic Dipole Moment: (a.u.)
     X:     0.8749      Y:    -2.0290      Z:     0.2249

  Dipole Moment: (a.u.)
     X:     0.0423      Y:    -0.0230      Z:     0.0161     Total:     0.0508

  Dipole Moment: (Debye)
     X:     0.1075      Y:    -0.0586      Z:     0.0409     Total:     0.1290


  //>>>>>>>>>>>>>>>>>>>>>>>>>>>>>>>>>>>//
  //               DFMP2               //
  //<<<<<<<<<<<<<<<<<<<<<<<<<<<<<<<<<<<//


*** tstart() called on wr42
*** at Tue Sep 27 21:34:14 2016


*** tstop() called on wr42 at Tue Sep 27 21:34:15 2016
Module time:
	user time   =       6.08 seconds =       0.10 minutes
	system time =       0.24 seconds =       0.00 minutes
	total time  =          1 seconds =       0.02 minutes
Total time:
	user time   =    1015.02 seconds =      16.92 minutes
	system time =      13.88 seconds =       0.23 minutes
	total time  =         50 seconds =       0.83 minutes
	 --------------------------------------------------------
	                          DF-MP2                         
	      2nd-Order Density-Fitted Moller-Plesset Theory     
	              RMP2 Wavefunction,  24 Threads             
	                                                         
	        Rob Parrish, Justin Turney, Andy Simmonett,      
	           Ed Hohenstein, and C. David Sherrill          
	 --------------------------------------------------------

   => Auxiliary Basis Set <=

  Basis Set: 
    Number of shells: 476
    Number of basis function: 1676
    Number of Cartesian functions: 2078
    Spherical Harmonics?: true
    Max angular momentum: 4

	 --------------------------------------------------------
	                 NBF =   782, NAUX =  1676
	 --------------------------------------------------------
	   CLASS    FOCC     OCC    AOCC    AVIR     VIR    FVIR
	   PAIRS       8      33      25     749     749       0
	 --------------------------------------------------------

DGAS Warning! /src/lib/libfock/apps.cc:80 is not currently checking restricted

         ------------------------------------------------------------
                                     CPHF                           
                                  Rob Parrish                       
         ------------------------------------------------------------

  ==> Geometry <==

    Molecular point group: c1
    Full point group: C1

    Geometry (in Angstrom), charge = 0, multiplicity = 1:

       Center              X                  Y                   Z               Mass       
    ------------   -----------------  -----------------  -----------------  -----------------
           C          2.131378406779     1.579518637458    -0.549299091492    12.000000000000
           H          1.992214666649     2.319338488686     0.240265362918     1.007825032070
           H          1.199727646420     1.522510771529    -1.111457801162     1.007825032070
           H          2.906710621238     1.948421911419    -1.221294992703     1.007825032070
           C         -3.160837391002     1.086544246039     0.308213829835    12.000000000000
           H         -3.250450370207     1.992249486540     0.907522059942     1.007825032070
           H         -3.552034857303     1.301193465144    -0.687058198661     1.007825032070
           H         -3.797678178784     0.322835075844     0.756886420125     1.007825032070
           C          2.509385521203     0.227946550881     0.050460818055    12.000000000000
           H          3.457168472417     0.339879277788     0.579987764883     1.007825032070
           H          2.695208341843    -0.491767067147    -0.751490117228     1.007825032070
           C         -1.717111655506     0.604145908418     0.228490150781    12.000000000000
           H         -1.090074999346     1.383518031693    -0.212939250762     1.007825032070
           H         -1.338379277691     0.432470933098     1.237732003512     1.007825032070
           C          1.446685071881    -0.339327574938     1.008979827712    12.000000000000
           H          1.932665793724    -0.710979806377     1.913762430873     1.007825032070
           H          0.787514332017     0.469068030499     1.329261432333     1.007825032070
           C          0.634516199620    -1.493772714912     0.413629989565    12.000000000000
           H         -0.043489920534    -1.894846180232     1.174143097876     1.007825032070
           H          1.340445154779    -2.296712018276     0.183918100232     1.007825032070
           C         -0.172990838525    -1.169656745314    -0.849468754489    12.000000000000
           H          0.366250795566    -0.440017983535    -1.458612331792     1.007825032070
           H         -0.244316276503    -2.072539043472    -1.460680074616     1.007825032070
           C         -1.596435894061    -0.675101995681    -0.592303238800    12.000000000000
           H         -2.158042445256    -1.468106068793    -0.087038123955     1.007825032070
           H         -2.091562949202    -0.516816276985    -1.555607523222     1.007825032070

  Nuclear repulsion =  403.473798594995799
  Reference energy  = -313.532733267121159

  ==> Basis Set <==

  Basis Set: AUG-CC-PVTZ
    Number of shells: 274
    Number of basis function: 782
    Number of Cartesian functions: 890
    Spherical Harmonics?: true
    Max angular momentum: 3

  ==> CGRSolver (by Rob Parrish) <==

   Number of roots    =         1
   Preconditioning    =    JACOBI
   Convergence cutoff =     1E-06
   Maximum iterations =       100

  ==> CPHFRHamiltonian (by Rob Parrish) <== 

  ==> DFJK: Density-Fitted J/K Matrices <==

    J tasked:                  Yes
    K tasked:                  Yes
    wK tasked:                  No
    OpenMP threads:             24
    Integrals threads:          24
    Memory (MB):             28610
    Algorithm:                Core
    Integral Cache:           NONE
    Schwarz Cutoff:          1E-12
    Fitting Condition:       1E-12

   => Auxiliary Basis Set <=

  Basis Set: 
    Number of shells: 492
    Number of basis function: 1660
    Number of Cartesian functions: 2038
    Spherical Harmonics?: true
    Max angular momentum: 4

  ==> CPHF Iterations <==

  => Iterations <=

             Iter  Converged  Remaining    Residual
  CGR           1          0          1   9.247E-02
  CGR           2          0          1   1.372E-02
  CGR           3          0          1   4.217E-03
  CGR           4          0          1   8.981E-04
  CGR           5          0          1   2.192E-04
  CGR           6          0          1   4.747E-05
  CGR           7          0          1   1.382E-05
  CGR           8          0          1   3.416E-06
  CGR           9          1          0   8.279E-07

    CGRSolver converged.

  ==> DFCorrGrad: Density-Fitted Correlated Gradients <==

    OpenMP threads:             24
    Integrals threads:          24
    Memory (MB):             28610
    Schwarz Cutoff:          0E+00
    Fitting Condition:       1E-12

   => Auxiliary Basis Set <=

  Basis Set: 
    Number of shells: 492
    Number of basis function: 1660
    Number of Cartesian functions: 2038
    Spherical Harmonics?: true
    Max angular momentum: 4

	-----------------------------------------------------------
	 ==================> DF-MP2 Energies <==================== 
	-----------------------------------------------------------
	 Reference Energy          =    -313.5327332671211593 [Eh]
	 Singles Energy            =      -0.0000000000000001 [Eh]
	 Same-Spin Energy          =      -0.3170101580392983 [Eh]
	 Opposite-Spin Energy      =      -1.1269436158258170 [Eh]
	 Correlation Energy        =      -1.4439537738651154 [Eh]
	 Total Energy              =    -314.9766870409862918 [Eh]
	-----------------------------------------------------------
	 ================> DF-SCS-MP2 Energies <================== 
	-----------------------------------------------------------
	 SCS Same-Spin Scale       =       0.3333333333333333 [-]
	 SCS Opposite-Spin Scale   =       1.2000000000000000 [-]
	 SCS Same-Spin Energy      =      -0.1056700526797661 [Eh]
	 SCS Opposite-Spin Energy  =      -1.3523323389909805 [Eh]
	 SCS Correlation Energy    =      -1.4580023916707465 [Eh]
	 SCS Total Energy          =    -314.9907356587918912 [Eh]
	-----------------------------------------------------------


  -Total Gradient:
     Atom            X                  Y                   Z
    ------   -----------------  -----------------  -----------------
       1        0.000000194168    -0.000001088816     0.000000568731
       2       -0.000000143142     0.000000718937     0.000000603895
       3       -0.000001126358     0.000000084779    -0.000000633540
       4        0.000000665495     0.000000184909    -0.000000434831
       5        0.000000555484    -0.000000350527    -0.000000365404
       6       -0.000000041670     0.000000285840     0.000000090364
       7       -0.000000354176     0.000000103996    -0.000000303326
       8       -0.000000100451    -0.000000149621     0.000000127611
       9       -0.000000454155     0.000001356343     0.000000281050
      10        0.000000644283     0.000000233012     0.000000406765
      11        0.000000141185    -0.000000904731    -0.000000787128
      12       -0.000000326083    -0.000000923993    -0.000000083129
      13        0.000000362863     0.000000571764    -0.000000190744
      14        0.000000077114    -0.000000210598     0.000000472000
      15        0.000000627826    -0.000000684520    -0.000001219857
      16        0.000000327140    -0.000000485865     0.000000454224
      17       -0.000000604803     0.000001146338     0.000000495650
      18       -0.000000525282     0.000000214849    -0.000000307037
      19       -0.000000512544    -0.000000311280     0.000000574583
      20        0.000000518278    -0.000000483091    -0.000000249080
      21       -0.000000169862     0.000000165777     0.000000873076
      22        0.000000421608     0.000000359247    -0.000000701886
      23       -0.000000014746    -0.000000234220    -0.000000078501
      24        0.000000459255     0.000000538071     0.000000293049
      25       -0.000000353985    -0.000000033921     0.000000414501
      26       -0.000000267441    -0.000000102680    -0.000000301034


			-----------------------------------------
			 OPTKING 2.0: for geometry optimizations 
			  - R.A. King,  Bethel University        
			-----------------------------------------

	Internal coordinates to be generated automatically.
	Detected frag 1 with atoms:  1 2 3 4 5 6 7 8 9 10 11 12 13 14 15 16 17 18 19 20
	 21 22 23 24 25 26
	---Fragment 1 Bond Connectivity---
	 1 : 2 3 4 9
	 2 : 1
	 3 : 1
	 4 : 1
	 5 : 6 7 8 12
	 6 : 5
	 7 : 5
	 8 : 5
	 9 : 1 10 11 15
	 10 : 9
	 11 : 9
	 12 : 5 13 14 24
	 13 : 12
	 14 : 12
	 15 : 9 16 17 18
	 16 : 15
	 17 : 15
	 18 : 15 19 20 21
	 19 : 18
	 20 : 18
	 21 : 18 22 23 24
	 22 : 21
	 23 : 21
	 24 : 12 21 25 26
	 25 : 24
	 26 : 24

	---Fragment 1 Geometry and Gradient---
	 C           4.0277214744        2.9848576466       -1.0380248480
	 H           3.7647401179        4.3829145531        0.4540357351
	 H           2.2671566858        2.8771283926       -2.1003508525
	 H           5.4928870217        3.6819838039       -2.3079130637
	 C          -5.9731170196        2.0532710563        0.5824397288
	 H          -6.1424610082        3.7648059179        1.7149681528
	 H          -6.7123730948        2.4588992950       -1.2983518328
	 H          -7.1765716987        0.6100698794        1.4303080477
	 C           4.7420513969        0.4307565541        0.0953571266
	 H           6.5331016081        0.6422787533        1.0960180361
	 H           5.0932056372       -0.9293050781       -1.4201105131
	 C          -3.2448707685        1.1416703112        0.4317838090
	 H          -2.0599432131        2.6144701798       -0.4023968669
	 H          -2.5291702968        0.8172516240        2.3389745125
	 C           2.7338385864       -0.6412361860        1.9066955480
	 H           3.6522090565       -1.3435571201        3.6164868778
	 H           1.4881864132        0.8864101153        2.5119400661
	 C           1.1990618442       -2.8228213360        0.7816474006
	 H          -0.0821840394       -3.5807403446        2.2188088958
	 H           2.5330742387       -4.3401567206        0.3475548403
	 C          -0.3269053083       -2.2103309181       -1.6052633044
	 H           0.6921136996       -0.8315134824       -2.7563778411
	 H          -0.4616908524       -3.9165311919       -2.7602853088
	 C          -3.0168266285       -1.2757578836       -1.1192909090
	 H          -4.0781092047       -2.7743184040       -0.1644782174
	 H          -3.9524811637       -0.9766412245       -2.9396721891
	             0.0000001942       -0.0000010888        0.0000005687
	            -0.0000001431        0.0000007189        0.0000006039
	            -0.0000011264        0.0000000848       -0.0000006335
	             0.0000006655        0.0000001849       -0.0000004348
	             0.0000005555       -0.0000003505       -0.0000003654
	            -0.0000000417        0.0000002858        0.0000000904
	            -0.0000003542        0.0000001040       -0.0000003033
	            -0.0000001005       -0.0000001496        0.0000001276
	            -0.0000004542        0.0000013563        0.0000002811
	             0.0000006443        0.0000002330        0.0000004068
	             0.0000001412       -0.0000009047       -0.0000007871
	            -0.0000003261       -0.0000009240       -0.0000000831
	             0.0000003629        0.0000005718       -0.0000001907
	             0.0000000771       -0.0000002106        0.0000004720
	             0.0000006278       -0.0000006845       -0.0000012199
	             0.0000003271       -0.0000004859        0.0000004542
	            -0.0000006048        0.0000011463        0.0000004956
	            -0.0000005253        0.0000002148       -0.0000003070
	            -0.0000005125       -0.0000003113        0.0000005746
	             0.0000005183       -0.0000004831       -0.0000002491
	            -0.0000001699        0.0000001658        0.0000008731
	             0.0000004216        0.0000003592       -0.0000007019
	            -0.0000000147       -0.0000002342       -0.0000000785
	             0.0000004593        0.0000005381        0.0000002930
	            -0.0000003540       -0.0000000339        0.0000004145
	            -0.0000002674       -0.0000001027       -0.0000003010

	Previous optimization step data not found.  Starting new optimization.

	---Fragment 1 Intrafragment Coordinates---
	 - Coordinate -           - BOHR/RAD -       - ANG/DEG -
	 R(1,2)           =         2.061545	       1.090923
	 R(1,3)           =         2.059061	       1.089608
	 R(1,4)           =         2.060415	       1.090325
	 R(1,9)           =         2.884138	       1.526220
	 R(5,6)           =         2.059284	       1.089726
	 R(5,7)           =         2.061167	       1.090723
	 R(5,8)           =         2.061556	       1.090928
	 R(5,12)          =         2.880458	       1.524273
	 R(9,10)          =         2.062504	       1.091430
	 R(9,11)          =         2.066330	       1.093455
	 R(9,15)          =         2.909129	       1.539445
	 R(12,13)         =         2.066168	       1.093369
	 R(12,14)         =         2.062729	       1.091549
	 R(12,24)         =         2.881284	       1.524710
	 R(15,16)         =         2.063988	       1.092215
	 R(15,17)         =         2.061959	       1.091142
	 R(15,18)         =         2.894924	       1.531928
	 R(18,19)         =         2.069170	       1.094958
	 R(18,20)         =         2.066478	       1.093533
	 R(18,21)         =         2.898459	       1.533798
	 R(21,22)         =         2.065091	       1.092799
	 R(21,23)         =         2.064791	       1.092640
	 R(21,24)         =         2.888819	       1.528697
	 R(24,25)         =         2.069703	       1.095240
	 R(24,26)         =         2.068504	       1.094605
	 B(1,9,10)        =         1.891163	     108.355638
	 B(1,9,11)        =         1.914274	     109.679829
	 B(1,9,15)        =         1.982347	     113.580093
	 B(2,1,3)         =         1.875296	     107.446524
	 B(2,1,4)         =         1.883185	     107.898576
	 B(2,1,9)         =         1.925951	     110.348876
	 B(3,1,4)         =         1.883611	     107.922963
	 B(3,1,9)         =         1.947850	     111.603565
	 B(4,1,9)         =         1.945182	     111.450740
	 B(5,12,13)       =         1.916343	     109.798368
	 B(5,12,14)       =         1.907151	     109.271719
	 B(5,12,24)       =         1.948351	     111.632295
	 B(6,5,7)         =         1.884704	     107.985567
	 B(6,5,8)         =         1.883514	     107.917394
	 B(6,5,12)        =         1.949469	     111.696369
	 B(7,5,8)         =         1.879350	     107.678836
	 B(7,5,12)        =         1.932921	     110.748220
	 B(8,5,12)        =         1.931435	     110.663080
	 B(9,15,16)       =         1.911365	     109.513139
	 B(9,15,17)       =         1.903694	     109.073655
	 B(9,15,18)       =         1.984163	     113.684186
	 B(10,9,11)       =         1.850172	     106.007025
	 B(10,9,15)       =         1.912577	     109.582609
	 B(11,9,15)       =         1.908605	     109.355008
	 B(12,24,21)      =         2.021600	     115.829171
	 B(12,24,25)      =         1.894998	     108.575415
	 B(12,24,26)      =         1.892968	     108.459101
	 B(13,12,14)      =         1.861281	     106.643551
	 B(13,12,24)      =         1.912752	     109.592643
	 B(14,12,24)      =         1.915925	     109.774402
	 B(15,18,19)      =         1.911752	     109.535334
	 B(15,18,20)      =         1.867870	     107.021088
	 B(15,18,21)      =         2.026295	     116.098164
	 B(16,15,17)      =         1.852238	     106.125430
	 B(16,15,18)      =         1.876962	     107.541978
	 B(17,15,18)      =         1.930621	     110.616444
	 B(18,21,22)      =         1.918074	     109.897566
	 B(18,21,23)      =         1.896962	     108.687923
	 B(18,21,24)      =         2.004303	     114.838093
	 B(19,18,20)      =         1.851131	     106.061975
	 B(19,18,21)      =         1.900098	     108.867603
	 B(20,18,21)      =         1.898676	     108.786148
	 B(21,24,25)      =         1.897406	     108.713363
	 B(21,24,26)      =         1.896448	     108.658452
	 B(22,21,23)      =         1.846394	     105.790602
	 B(22,21,24)      =         1.914784	     109.709027
	 B(23,21,24)      =         1.876170	     107.496606
	 B(25,24,26)      =         1.853287	     106.185507
	 D(1,9,15,16)     =        -2.344169	    -134.310973
	 D(1,9,15,17)     =        -0.324096	     -18.569340
	 D(1,9,15,18)     =         1.839273	     105.382590
	 D(2,1,9,10)      =        -1.080006	     -61.879784
	 D(2,1,9,11)      =        -3.092229	    -177.171646
	 D(2,1,9,15)      =         1.049540	      60.134193
	 D(3,1,9,10)      =         3.119375	     178.727000
	 D(3,1,9,11)      =         1.107152	      63.435138
	 D(3,1,9,15)      =        -1.034265	     -59.259023
	 D(4,1,9,10)      =         1.011978	      57.982056
	 D(4,1,9,11)      =        -1.000245	     -57.309806
	 D(4,1,9,15)      =         3.141523	     179.996033
	 D(5,12,24,21)    =         3.041469	     174.263335
	 D(5,12,24,25)    =        -1.102025	     -63.141363
	 D(5,12,24,26)    =         0.904637	      51.831902
	 D(6,5,12,13)     =        -1.032145	     -59.137573
	 D(6,5,12,14)     =         1.003567	      57.500175
	 D(6,5,12,24)     =         3.126159	     179.115703
	 D(7,5,12,13)     =         1.069301	      61.266455
	 D(7,5,12,14)     =         3.105014	     177.904203
	 D(7,5,12,24)     =        -1.055580	     -60.480269
	 D(8,5,12,13)     =        -3.131070	    -179.397073
	 D(8,5,12,14)     =        -1.095357	     -62.759325
	 D(8,5,12,24)     =         1.027235	      58.856203
	 D(9,15,18,19)    =         3.065518	     175.641257
	 D(9,15,18,20)    =         1.066070	      61.081307
	 D(9,15,18,21)    =        -1.057426	     -60.586072
	 D(10,9,15,16)    =        -0.226554	     -12.980613
	 D(10,9,15,17)    =         1.793518	     102.761020
	 D(10,9,15,18)    =        -2.326298	    -133.287050
	 D(11,9,15,16)    =         1.794479	     102.816096
	 D(11,9,15,17)    =        -2.468633	    -141.442271
	 D(11,9,15,18)    =        -0.305264	     -17.490341
	 D(12,24,21,18)   =         1.048683	      60.085114
	 D(12,24,21,22)   =        -1.121556	     -64.260418
	 D(12,24,21,23)   =        -3.121399	    -178.842982
	 D(13,12,24,21)   =         0.914515	      52.397866
	 D(13,12,24,25)   =         3.054207	     174.993169
	 D(13,12,24,26)   =        -1.222316	     -70.033566
	 D(14,12,24,21)   =        -1.124207	     -64.412338
	 D(14,12,24,25)   =         1.015484	      58.182965
	 D(14,12,24,26)   =         3.022146	     173.156230
	 D(15,18,21,22)   =         0.598075	      34.267176
	 D(15,18,21,23)   =         2.611076	     149.603626
	 D(15,18,21,24)   =        -1.570427	     -89.978817
	 D(16,15,18,19)   =         0.946478	      54.229186
	 D(16,15,18,20)   =        -1.052970	     -60.330763
	 D(16,15,18,21)   =         3.106718	     178.001858
	 D(17,15,18,19)   =        -1.068963	     -61.247082
	 D(17,15,18,20)   =        -3.068412	    -175.807032
	 D(17,15,18,21)   =         1.091277	      62.525590
	 D(18,21,24,25)   =        -1.089736	     -62.437295
	 D(18,21,24,26)   =        -3.099513	    -177.589004
	 D(19,18,21,22)   =         2.764345	     158.385327
	 D(19,18,21,23)   =        -1.505839	     -86.278224
	 D(19,18,21,24)   =         0.595844	      34.139334
	 D(20,18,21,22)   =        -1.508985	     -86.458472
	 D(20,18,21,23)   =         0.504016	      28.877978
	 D(20,18,21,24)   =         2.605699	     149.295535
	 D(22,21,24,25)   =         3.023210	     173.217172
	 D(22,21,24,26)   =         1.013434	      58.065463
	 D(23,21,24,25)   =         1.023367	      58.634609
	 D(23,21,24,26)   =        -0.986409	     -56.517100
	 R(1,21)          =         6.802538	       3.599748
	 R(12,15)         =         6.410857	       3.392479

	Current energy   :      -314.9766870410

	Generating empirical Hessian (Schlegel '84) for each fragment.
	Taking RFO optimization step.
	Going to follow RFO solution 1.
	Using RFO vector 1.
	Norm of target step-size    0.00066
	Projected energy change by RFO approximation:         0.0000000006

	Back-transformation to cartesian coordinates...
	Successfully converged to displaced geometry.

	--- Internal Coordinate Step in ANG or DEG, aJ/ANG or AJ/DEG ---
	 ---------------------------------------------------------------------------
	   Coordinate                Previous        Force       Change         New 
	   ----------                --------       ------       ------       ------
	    1 R(1,2)          =      1.090923    -0.000008    -0.000001     1.090921
	    2 R(1,3)          =      1.089608    -0.000010    -0.000002     1.089606
	    3 R(1,4)          =      1.090325    -0.000007    -0.000001     1.090324
	    4 R(1,9)          =      1.526220     0.000001    -0.000000     1.526220
	    5 R(5,6)          =      1.089726    -0.000002    -0.000000     1.089726
	    6 R(5,7)          =      1.090723    -0.000004    -0.000001     1.090722
	    7 R(5,8)          =      1.090928    -0.000002    -0.000000     1.090928
	    8 R(5,12)         =      1.524273     0.000001     0.000000     1.524273
	    9 R(9,10)         =      1.091430    -0.000006    -0.000001     1.091429
	   10 R(9,11)         =      1.093455    -0.000010    -0.000002     1.093453
	   11 R(9,15)         =      1.539445    -0.000000    -0.000001     1.539444
	   12 R(12,13)        =      1.093369    -0.000006    -0.000001     1.093368
	   13 R(12,14)        =      1.091549    -0.000004    -0.000001     1.091548
	   14 R(12,24)        =      1.524710     0.000006     0.000001     1.524711
	   15 R(15,16)        =      1.092215    -0.000006    -0.000001     1.092214
	   16 R(15,17)        =      1.091142    -0.000011    -0.000002     1.091139
	   17 R(15,18)        =      1.531928    -0.000003    -0.000002     1.531926
	   18 R(18,19)        =      1.094958    -0.000007    -0.000001     1.094956
	   19 R(18,20)        =      1.093533    -0.000006    -0.000001     1.093532
	   20 R(18,21)        =      1.533798     0.000002    -0.000000     1.533798
	   21 R(21,22)        =      1.092799    -0.000007    -0.000001     1.092798
	   22 R(21,23)        =      1.092640    -0.000002    -0.000000     1.092640
	   23 R(21,24)        =      1.528697     0.000001    -0.000001     1.528696
	   24 R(24,25)        =      1.095240    -0.000003    -0.000001     1.095239
	   25 R(24,26)        =      1.094605    -0.000003    -0.000001     1.094605
	   26 B(1,9,10)       =    108.355638    -0.000000     0.000120   108.355758
	   27 B(1,9,11)       =    109.679829    -0.000000    -0.000149   109.679680
	   28 B(1,9,15)       =    113.580093     0.000000    -0.000002   113.580091
	   29 B(2,1,3)        =    107.446524     0.000000     0.000028   107.446551
	   30 B(2,1,4)        =    107.898576    -0.000000     0.000030   107.898606
	   31 B(2,1,9)        =    110.348876    -0.000000    -0.000033   110.348844
	   32 B(3,1,4)        =    107.922963    -0.000000    -0.000035   107.922929
	   33 B(3,1,9)        =    111.603565    -0.000000    -0.000104   111.603462
	   34 B(4,1,9)        =    111.450740     0.000000     0.000114   111.450854
	   35 B(5,12,13)      =    109.798368     0.000000     0.000100   109.798468
	   36 B(5,12,14)      =    109.271719    -0.000000    -0.000117   109.271602
	   37 B(5,12,24)      =    111.632295     0.000000     0.000148   111.632443
	   38 B(6,5,7)        =    107.985567     0.000000     0.000052   107.985619
	   39 B(6,5,8)        =    107.917394    -0.000000     0.000007   107.917401
	   40 B(6,5,12)       =    111.696369     0.000000     0.000014   111.696383
	   41 B(7,5,8)        =    107.678836     0.000000     0.000024   107.678859
	   42 B(7,5,12)       =    110.748220    -0.000000    -0.000112   110.748108
	   43 B(8,5,12)       =    110.663080     0.000000     0.000020   110.663100
	   44 B(9,15,16)      =    109.513139    -0.000000     0.000034   109.513173
	   45 B(9,15,17)      =    109.073655     0.000000     0.000185   109.073840
	   46 B(9,15,18)      =    113.684186    -0.000000    -0.000411   113.683775
	   47 B(10,9,11)      =    106.007025     0.000000    -0.000043   106.006982
	   48 B(10,9,15)      =    109.582609    -0.000000     0.000052   109.582661
	   49 B(11,9,15)      =    109.355008    -0.000000     0.000019   109.355027
	   50 B(12,24,21)     =    115.829171     0.000000    -0.000246   115.828925
	   51 B(12,24,25)     =    108.575415     0.000000     0.000090   108.575505
	   52 B(12,24,26)     =    108.459101    -0.000000     0.000147   108.459248
	   53 B(13,12,14)     =    106.643551     0.000000    -0.000057   106.643495
	   54 B(13,12,24)     =    109.592643    -0.000000    -0.000039   109.592604
	   55 B(14,12,24)     =    109.774402    -0.000000    -0.000045   109.774357
	   56 B(15,18,19)     =    109.535334     0.000000    -0.000009   109.535325
	   57 B(15,18,20)     =    107.021088    -0.000000     0.000154   107.021243
	   58 B(15,18,21)     =    116.098164     0.000000    -0.000346   116.097819
	   59 B(16,15,17)     =    106.125430    -0.000000     0.000049   106.125479
	   60 B(16,15,18)     =    107.541978     0.000000     0.000266   107.542244
	   61 B(17,15,18)     =    110.616444    -0.000000    -0.000092   110.616352
	   62 B(18,21,22)     =    109.897566    -0.000000    -0.000148   109.897418
	   63 B(18,21,23)     =    108.687923     0.000000     0.000314   108.688237
	   64 B(18,21,24)     =    114.838093    -0.000000    -0.000424   114.837670
	   65 B(19,18,20)     =    106.061975     0.000000     0.000040   106.062015
	   66 B(19,18,21)     =    108.867603    -0.000000    -0.000082   108.867521
	   67 B(20,18,21)     =    108.786148     0.000000     0.000281   108.786429
	   68 B(21,24,25)     =    108.713363    -0.000000    -0.000224   108.713139
	   69 B(21,24,26)     =    108.658452     0.000000     0.000188   108.658640
	   70 B(22,21,23)     =    105.790602     0.000000     0.000168   105.790770
	   71 B(22,21,24)     =    109.709027     0.000000    -0.000064   109.708963
	   72 B(23,21,24)     =    107.496606     0.000000     0.000217   107.496823
	   73 B(25,24,26)     =    106.185507     0.000000     0.000071   106.185577
	   74 D(1,9,15,16)    =   -134.310973     0.000000    -0.000984  -134.311957
	   75 D(1,9,15,17)    =    -18.569340     0.000000    -0.000803   -18.570143
	   76 D(1,9,15,18)    =    105.382590     0.000000    -0.001075   105.381515
	   77 D(2,1,9,10)     =    -61.879784    -0.000000    -0.000237   -61.880021
	   78 D(2,1,9,11)     =   -177.171646     0.000000    -0.000172  -177.171818
	   79 D(2,1,9,15)     =     60.134193    -0.000000    -0.000084    60.134108
	   80 D(3,1,9,10)     =    178.727000    -0.000000    -0.000182   178.726817
	   81 D(3,1,9,11)     =     63.435138     0.000000    -0.000118    63.435020
	   82 D(3,1,9,15)     =    -59.259023    -0.000000    -0.000030   -59.259053
	   83 D(4,1,9,10)     =     57.982056    -0.000000    -0.000145    57.981910
	   84 D(4,1,9,11)     =    -57.309806     0.000000    -0.000081   -57.309887
	   85 D(4,1,9,15)     =    179.996033    -0.000000     0.000007   179.996040
	   86 D(5,12,24,21)   =    174.263335     0.000000     0.004053   174.267388
	   87 D(5,12,24,25)   =    -63.141363     0.000000     0.003655   -63.137708
	   88 D(5,12,24,26)   =     51.831902     0.000000     0.003863    51.835765
	   89 D(6,5,12,13)    =    -59.137573     0.000000    -0.000888   -59.138461
	   90 D(6,5,12,14)    =     57.500175    -0.000000    -0.000967    57.499207
	   91 D(6,5,12,24)    =    179.115703    -0.000000    -0.001006   179.114696
	   92 D(7,5,12,13)    =     61.266455     0.000000    -0.000890    61.265565
	   93 D(7,5,12,14)    =    177.904203    -0.000000    -0.000969   177.903234
	   94 D(7,5,12,24)    =    -60.480269    -0.000000    -0.001008   -60.481277
	   95 D(8,5,12,13)    =   -179.397073    -0.000000    -0.000920  -179.397993
	   96 D(8,5,12,14)    =    -62.759325    -0.000000    -0.000999   -62.760324
	   97 D(8,5,12,24)    =     58.856203    -0.000000    -0.001038    58.855165
	   98 D(9,15,18,19)   =    175.641257    -0.000000    -0.009621   175.631636
	   99 D(9,15,18,20)   =     61.081307    -0.000000    -0.009746    61.071561
	  100 D(9,15,18,21)   =    -60.586072    -0.000000    -0.010000   -60.596072
	  101 D(10,9,15,16)   =    -12.980613     0.000000    -0.000793   -12.981405
	  102 D(10,9,15,17)   =    102.761020     0.000000    -0.000612   102.760408
	  103 D(10,9,15,18)   =   -133.287050     0.000000    -0.000884  -133.287933
	  104 D(11,9,15,16)   =    102.816096    -0.000000    -0.000804   102.815292
	  105 D(11,9,15,17)   =   -141.442271     0.000000    -0.000623  -141.442894
	  106 D(11,9,15,18)   =    -17.490341     0.000000    -0.000895   -17.491236
	  107 D(12,24,21,18)  =     60.085114    -0.000000    -0.004771    60.080343
	  108 D(12,24,21,22)  =    -64.260418     0.000000    -0.004204   -64.264622
	  109 D(12,24,21,23)  =   -178.842982    -0.000000    -0.004486  -178.847467
	  110 D(13,12,24,21)  =     52.397866     0.000000     0.003855    52.401721
	  111 D(13,12,24,25)  =    174.993169    -0.000000     0.003456   174.996625
	  112 D(13,12,24,26)  =    -70.033566    -0.000000     0.003664   -70.029902
	  113 D(14,12,24,21)  =    -64.412338     0.000000     0.003972   -64.408365
	  114 D(14,12,24,25)  =     58.182965     0.000000     0.003574    58.186539
	  115 D(14,12,24,26)  =    173.156230     0.000000     0.003782   173.160012
	  116 D(15,18,21,22)  =     34.267176    -0.000000    -0.005393    34.261783
	  117 D(15,18,21,23)  =    149.603626    -0.000000    -0.005098   149.598528
	  118 D(15,18,21,24)  =    -89.978817    -0.000000    -0.004869   -89.983686
	  119 D(16,15,18,19)  =     54.229186    -0.000000    -0.009590    54.219596
	  120 D(16,15,18,20)  =    -60.330763     0.000000    -0.009715   -60.340478
	  121 D(16,15,18,21)  =    178.001858    -0.000000    -0.009969   177.991889
	  122 D(17,15,18,19)  =    -61.247082    -0.000000    -0.009751   -61.256832
	  123 D(17,15,18,20)  =   -175.807032    -0.000000    -0.009875  -175.816907
	  124 D(17,15,18,21)  =     62.525590    -0.000000    -0.010129    62.515460
	  125 D(18,21,24,25)  =    -62.437295    -0.000000    -0.004538   -62.441833
	  126 D(18,21,24,26)  =   -177.589004    -0.000000    -0.004603  -177.593607
	  127 D(19,18,21,22)  =    158.385327    -0.000000    -0.005731   158.379596
	  128 D(19,18,21,23)  =    -86.278224    -0.000000    -0.005435   -86.283659
	  129 D(19,18,21,24)  =     34.139334    -0.000000    -0.005207    34.134127
	  130 D(20,18,21,22)  =    -86.458472    -0.000000    -0.005575   -86.464047
	  131 D(20,18,21,23)  =     28.877978    -0.000000    -0.005280    28.872698
	  132 D(20,18,21,24)  =    149.295535    -0.000000    -0.005051   149.290484
	  133 D(22,21,24,25)  =    173.217172    -0.000000    -0.003971   173.213201
	  134 D(22,21,24,26)  =     58.065463     0.000000    -0.004036    58.061428
	  135 D(23,21,24,25)  =     58.634609    -0.000000    -0.004253    58.630356
	  136 D(23,21,24,26)  =    -56.517100    -0.000000    -0.004317   -56.521417
	  137 R(1,21)         =      3.599748    -0.000001     0.000023     3.599771
	  138 R(12,15)        =      3.392479    -0.000001     0.000019     3.392498
	 ---------------------------------------------------------------------------

  ==> Convergence Check <==

  Measures of convergence in internal coordinates in au.
  Criteria marked as inactive (o), active & met (*), and active & unmet ( ).
  --------------------------------------------------------------------------------------------- ~
   Step     Total Energy     Delta E     MAX Force     RMS Force      MAX Disp      RMS Disp    ~
  --------------------------------------------------------------------------------------------- ~
    Convergence Criteria             o    2.00e-06 *    1.00e-06 *    6.00e-06 *    4.00e-06 *  ~
  --------------------------------------------------------------------------------------------- ~
      1    -314.97668704   -3.15e+02 o    1.36e-06 *    3.33e-07 *    1.77e-04      5.65e-05    ~
  ---------------------------------------------------------------------------------------------

	Writing optimization data to binary file.
	Structure for next step:
	Cartesian Geometry (in Angstrom)
	    C     2.1316324488   1.5794698816  -0.5495670819
	    H     1.9924391932   2.3193739512   0.2399112495
	    H     1.2000269752   1.5224499775  -1.1117958960
	    H     2.9070362543   1.9482686874  -1.2215357537
	    C    -3.1610198481   1.0863084737   0.3085968812
	    H    -3.2506759356   1.9919144194   0.9080478770
	    H    -3.5523042269   1.3010709149  -0.6866158215
	    H    -3.7977585342   0.3224723599   0.7571975589
	    C     2.5095230285   0.2279392635   0.0503593232
	    H     3.4572681351   0.3398750439   0.5799508770
	    H     2.6953738345  -0.4918611114  -0.7515047510
	    C    -1.7172544827   0.6040567663   0.2287001990
	    H    -1.0903230056   1.3835461733  -0.2126688229
	    H    -1.3384327951   0.4322818401   1.2378907181
	    C     1.4467158430  -0.3391858448   1.0088471419
	    H     1.9326042232  -0.7107872795   1.9136989179
	    H     0.7875669531   0.4692734051   1.3290059911
	    C     0.6345278041  -1.4936310175   0.4135280074
	    H    -0.0434396178  -1.8947132952   1.1740691022
	    H     1.3404486756  -2.2965641942   0.1837752740
	    C    -0.1730436947  -1.1695009816  -0.8495254409
	    H     0.3661205242  -0.4397789926  -1.4586355219
	    H    -0.2443199796  -2.0723479106  -1.4607940853
	    C    -1.5965157653  -0.6750703172  -0.5922741823
	    H    -2.1580623287  -1.4681801730  -0.0871097217
	    H    -2.0916677084  -0.5166827007  -1.5555482497
			--------------------------
			 OPTKING Finished Execution 
			--------------------------

    Structure for next step:
    Molecular point group: c1
    Full point group: C1

    Geometry (in Angstrom), charge = 0, multiplicity = 1:

    C            2.131634768466     1.579461222775    -0.549563356519
    H            1.992441512808     2.319365292379     0.239914974834
    H            1.200029294832     1.522441318661    -1.111792170694
    H            2.907038573986     1.948260028495    -1.221532028297
    C           -3.161017528443     1.086299814881     0.308600606573
    H           -3.250673615909     1.991905760510     0.908051602322
    H           -3.552301907272     1.301062256040    -0.686612096107
    H           -3.797756214522     0.322463701071     0.757201284260
    C            2.509525348167     0.227930604648     0.050363048592
    H            3.457270454726     0.339866385014     0.579954602356
    H            2.695376154166    -0.491869770290    -0.751501025661
    C           -1.717252163078     0.604048107435     0.228703924371
    H           -1.090320685957     1.383537514473    -0.212665097509
    H           -1.338430475432     0.432273181266     1.237894443485
    C            1.446718162624    -0.339194503640     1.008850867259
    H            1.932606542876    -0.710795938370     1.913702643281
    H            0.787569272788     0.469264746254     1.329009716444
    C            0.634530123751    -1.493639676367     0.413531732758
    H           -0.043437298148    -1.894721954102     1.174072827555
    H            1.340450995198    -2.296572853066     0.183778999382
    C           -0.173041375044    -1.169509640485    -0.849521715558
    H            0.366122843875    -0.439787651486    -1.458631796592
    H           -0.244317659960    -2.072356569493    -1.460790359908
    C           -1.596513445696    -0.675078976076    -0.592270456908
    H           -2.158060009023    -1.468188831870    -0.087105996366
    H           -2.091665388734    -0.516691359521    -1.555544524396

gradient() will perform analytic gradient computation.

*** tstart() called on wr42
*** at Tue Sep 27 21:37:05 2016


         ---------------------------------------------------------
                                   SCF
            by Justin Turney, Rob Parrish, and Andy Simmonett
                              RHF Reference
                       24 Threads,  40000 MiB Core
         ---------------------------------------------------------

  ==> Geometry <==

    Molecular point group: c1
    Full point group: C1

    Geometry (in Angstrom), charge = 0, multiplicity = 1:

       Center              X                  Y                   Z               Mass       
    ------------   -----------------  -----------------  -----------------  -----------------
           C          2.131634768466     1.579461222775    -0.549563356519    12.000000000000
           H          1.992441512808     2.319365292379     0.239914974834     1.007825032070
           H          1.200029294832     1.522441318661    -1.111792170694     1.007825032070
           H          2.907038573986     1.948260028495    -1.221532028297     1.007825032070
           C         -3.161017528443     1.086299814881     0.308600606573    12.000000000000
           H         -3.250673615909     1.991905760510     0.908051602322     1.007825032070
           H         -3.552301907272     1.301062256040    -0.686612096107     1.007825032070
           H         -3.797756214522     0.322463701071     0.757201284260     1.007825032070
           C          2.509525348167     0.227930604648     0.050363048592    12.000000000000
           H          3.457270454726     0.339866385014     0.579954602356     1.007825032070
           H          2.695376154166    -0.491869770290    -0.751501025661     1.007825032070
           C         -1.717252163078     0.604048107435     0.228703924371    12.000000000000
           H         -1.090320685957     1.383537514473    -0.212665097509     1.007825032070
           H         -1.338430475432     0.432273181266     1.237894443485     1.007825032070
           C          1.446718162624    -0.339194503640     1.008850867259    12.000000000000
           H          1.932606542876    -0.710795938370     1.913702643281     1.007825032070
           H          0.787569272788     0.469264746254     1.329009716444     1.007825032070
           C          0.634530123751    -1.493639676367     0.413531732758    12.000000000000
           H         -0.043437298148    -1.894721954102     1.174072827555     1.007825032070
           H          1.340450995198    -2.296572853066     0.183778999382     1.007825032070
           C         -0.173041375044    -1.169509640485    -0.849521715558    12.000000000000
           H          0.366122843875    -0.439787651486    -1.458631796592     1.007825032070
           H         -0.244317659960    -2.072356569493    -1.460790359908     1.007825032070
           C         -1.596513445696    -0.675078976076    -0.592270456908    12.000000000000
           H         -2.158060009023    -1.468188831870    -0.087105996366     1.007825032070
           H         -2.091665388734    -0.516691359521    -1.555544524396     1.007825032070

  Running in c1 symmetry.

  Rotational constants: A =      0.08936  B =      0.03442  C =      0.02949 [cm^-1]
  Rotational constants: A =   2679.09452  B =   1031.90289  C =    883.99448 [MHz]
  Nuclear repulsion =  403.470449493612136

  Charge       = 0
  Multiplicity = 1
  Electrons    = 66
  Nalpha       = 33
  Nbeta        = 33

  ==> Algorithm <==

  SCF Algorithm Type is DF.
  DIIS enabled.
  MOM disabled.
  Fractional occupation disabled.
  Guess Type is READ.
  Energy threshold   = 1.00e-10
  Density threshold  = 1.00e-10
  Integral threshold = 0.00e+00

  ==> Primary Basis <==

  Basis Set: AUG-CC-PVTZ
    Number of shells: 274
    Number of basis function: 782
    Number of Cartesian functions: 890
    Spherical Harmonics?: true
    Max angular momentum: 3

  ==> Pre-Iterations <==

   -------------------------------------------------------
    Irrep   Nso     Nmo     Nalpha   Nbeta   Ndocc  Nsocc
   -------------------------------------------------------
     A        782     782       0       0       0       0
   -------------------------------------------------------
    Total     782     782      33      33      33       0
   -------------------------------------------------------

  ==> Integral Setup <==

  ==> DFJK: Density-Fitted J/K Matrices <==

    J tasked:                  Yes
    K tasked:                  Yes
    wK tasked:                  No
    OpenMP threads:             24
    Integrals threads:          24
    Memory (MB):             28610
    Algorithm:                Core
    Integral Cache:           NONE
    Schwarz Cutoff:          1E-12
    Fitting Condition:       1E-12

   => Auxiliary Basis Set <=

  Basis Set: 
    Number of shells: 492
    Number of basis function: 1660
    Number of Cartesian functions: 2038
    Spherical Harmonics?: true
    Max angular momentum: 4

  Minimum eigenvalue in the overlap matrix is 1.6643871332E-06.
  Using Symmetric Orthogonalization.
  SCF Guess: Reading in previously saved MOs, projecting if necessary.

  Using orbitals from previous SCF, no projection.
  Recomputing DOCC and SOCC from number of alpha and beta electrons from previous calculation.
              A 
    DOCC [    33 ]

  ==> Iterations <==

                           Total Energy        Delta E     RMS |[F,P]|

   @DF-RHF iter   0:  -313.53278335161826   -3.13533e+02   5.92525e-07 
   @DF-RHF iter   1:  -313.53273468924579    4.86624e-05   1.05213e-07 
   @DF-RHF iter   2:  -313.53273469553335   -6.28756e-09   3.85392e-08 DIIS
   @DF-RHF iter   3:  -313.53273469634325   -8.09905e-10   1.69266e-08 DIIS
   @DF-RHF iter   4:  -313.53273469648036   -1.37106e-10   1.91325e-09 DIIS
   @DF-RHF iter   5:  -313.53273469648423   -3.86535e-12   5.77596e-10 DIIS
   @DF-RHF iter   6:  -313.53273469648320    1.02318e-12   1.56624e-10 DIIS
   @DF-RHF iter   7:  -313.53273469648298    2.27374e-13   4.12599e-11 DIIS

  ==> Post-Iterations <==

    Orbital Energies (a.u.)
    -----------------------

    Doubly Occupied:                                                      

       1A    -11.212529     2A    -11.211965     3A    -11.211343  
       4A    -11.210798     5A    -11.209727     6A    -11.209058  
       7A    -11.207439     8A    -11.206986     9A     -1.092886  
      10A     -1.056904    11A     -1.007747    12A     -0.951380  
      13A     -0.881803    14A     -0.831736    15A     -0.785970  
      16A     -0.759859    17A     -0.646645    18A     -0.627600  
      19A     -0.607320    20A     -0.591269    21A     -0.580488  
      22A     -0.558391    23A     -0.544777    24A     -0.539707  
      25A     -0.508192    26A     -0.498925    27A     -0.492814  
      28A     -0.480621    29A     -0.464612    30A     -0.463138  
      31A     -0.439699    32A     -0.436055    33A     -0.431816  

    Virtual:                                                              

      34A      0.029107    35A      0.032306    36A      0.034088  
      37A      0.035040    38A      0.047816    39A      0.048713  
      40A      0.049506    41A      0.053042    42A      0.053883  
      43A      0.069640    44A      0.071338    45A      0.071965  
      46A      0.074547    47A      0.075290    48A      0.080989  
      49A      0.087291    50A      0.100865    51A      0.101937  
      52A      0.113869    53A      0.116656    54A      0.119015  
      55A      0.125381    56A      0.127496    57A      0.130438  
      58A      0.134003    59A      0.137654    60A      0.142069  
      61A      0.145224    62A      0.149342    63A      0.149936  
      64A      0.153461    65A      0.155993    66A      0.166209  
      67A      0.167429    68A      0.170626    69A      0.173187  
      70A      0.176224    71A      0.177968    72A      0.180908  
      73A      0.185683    74A      0.190990    75A      0.194281  
      76A      0.201608    77A      0.206708    78A      0.220686  
      79A      0.226678    80A      0.239069    81A      0.241786  
      82A      0.249622    83A      0.256131    84A      0.257511  
      85A      0.265759    86A      0.270033    87A      0.277358  
      88A      0.283311    89A      0.286467    90A      0.292103  
      91A      0.297798    92A      0.306493    93A      0.310153  
      94A      0.314736    95A      0.320933    96A      0.323365  
      97A      0.327332    98A      0.332971    99A      0.336570  
     100A      0.342375   101A      0.343550   102A      0.345999  
     103A      0.350038   104A      0.353557   105A      0.357318  
     106A      0.362304   107A      0.365110   108A      0.369272  
     109A      0.370687   110A      0.376116   111A      0.379735  
     112A      0.381385   113A      0.384333   114A      0.387433  
     115A      0.389178   116A      0.397848   117A      0.399469  
     118A      0.405118   119A      0.410077   120A      0.412527  
     121A      0.415782   122A      0.418434   123A      0.426062  
     124A      0.428337   125A      0.433108   126A      0.442272  
     127A      0.445443   128A      0.448930   129A      0.451489  
     130A      0.457102   131A      0.459673   132A      0.462317  
     133A      0.466182   134A      0.472997   135A      0.474690  
     136A      0.478490   137A      0.481601   138A      0.485531  
     139A      0.485682   140A      0.495435   141A      0.497044  
     142A      0.500312   143A      0.504500   144A      0.507010  
     145A      0.509630   146A      0.516175   147A      0.517351  
     148A      0.520161   149A      0.529003   150A      0.531567  
     151A      0.539203   152A      0.540229   153A      0.548678  
     154A      0.551536   155A      0.557975   156A      0.567161  
     157A      0.568387   158A      0.569487   159A      0.575084  
     160A      0.577533   161A      0.581506   162A      0.587116  
     163A      0.591749   164A      0.595779   165A      0.602566  
     166A      0.609064   167A      0.611521   168A      0.618340  
     169A      0.620224   170A      0.623017   171A      0.631141  
     172A      0.636529   173A      0.638067   174A      0.643200  
     175A      0.645840   176A      0.650173   177A      0.657263  
     178A      0.660645   179A      0.666597   180A      0.670546  
     181A      0.673726   182A      0.679034   183A      0.690053  
     184A      0.692179   185A      0.698684   186A      0.700333  
     187A      0.709174   188A      0.714732   189A      0.717743  
     190A      0.724348   191A      0.731510   192A      0.734050  
     193A      0.739817   194A      0.742438   195A      0.759417  
     196A      0.762342   197A      0.772524   198A      0.778170  
     199A      0.785909   200A      0.787969   201A      0.796853  
     202A      0.800176   203A      0.822632   204A      0.831967  
     205A      0.835740   206A      0.841005   207A      0.845642  
     208A      0.854888   209A      0.860727   210A      0.869048  
     211A      0.872705   212A      0.874378   213A      0.886382  
     214A      0.888787   215A      0.890181   216A      0.897208  
     217A      0.900886   218A      0.903254   219A      0.909343  
     220A      0.912071   221A      0.916017   222A      0.919134  
     223A      0.923011   224A      0.924367   225A      0.932883  
     226A      0.941286   227A      0.950994   228A      0.960968  
     229A      0.967900   230A      0.973665   231A      0.976202  
     232A      0.981138   233A      0.988945   234A      0.989639  
     235A      0.992491   236A      0.997067   237A      0.999910  
     238A      1.005202   239A      1.010031   240A      1.013389  
     241A      1.019583   242A      1.026984   243A      1.030271  
     244A      1.040546   245A      1.044289   246A      1.048224  
     247A      1.054464   248A      1.061308   249A      1.067117  
     250A      1.069930   251A      1.073770   252A      1.085798  
     253A      1.093318   254A      1.096064   255A      1.099527  
     256A      1.108324   257A      1.111617   258A      1.116146  
     259A      1.125060   260A      1.128628   261A      1.129643  
     262A      1.141236   263A      1.143562   264A      1.147150  
     265A      1.150029   266A      1.153488   267A      1.155782  
     268A      1.169138   269A      1.171400   270A      1.177091  
     271A      1.179342   272A      1.189531   273A      1.192616  
     274A      1.198225   275A      1.206843   276A      1.209697  
     277A      1.215708   278A      1.221857   279A      1.225960  
     280A      1.232140   281A      1.233910   282A      1.238822  
[...]
	    1 R(1,2)          =      1.090922     0.000005    -0.000000     1.090922
	    2 R(1,3)          =      1.089608     0.000007    -0.000000     1.089608
	    3 R(1,4)          =      1.090325     0.000004    -0.000000     1.090325
	    4 R(1,9)          =      1.526220    -0.000002    -0.000000     1.526220
	    5 R(5,6)          =      1.089726     0.000005    -0.000000     1.089726
	    6 R(5,7)          =      1.090723     0.000006    -0.000000     1.090722
	    7 R(5,8)          =      1.090928     0.000006    -0.000000     1.090928
	    8 R(5,12)         =      1.524273     0.000000    -0.000000     1.524273
	    9 R(9,10)         =      1.091430     0.000004    -0.000000     1.091430
	   10 R(9,11)         =      1.093454     0.000007    -0.000000     1.093454
	   11 R(9,15)         =      1.539445     0.000001    -0.000000     1.539445
	   12 R(12,13)        =      1.093369     0.000010    -0.000000     1.093369
	   13 R(12,14)        =      1.091549     0.000010    -0.000000     1.091549
	   14 R(12,24)        =      1.524711     0.000005     0.000000     1.524711
	   15 R(15,16)        =      1.092215     0.000007     0.000000     1.092215
	   16 R(15,17)        =      1.091142     0.000013     0.000000     1.091142
	   17 R(15,18)        =      1.531928    -0.000001     0.000000     1.531928
	   18 R(18,19)        =      1.094958     0.000011     0.000000     1.094958
	   19 R(18,20)        =      1.093533     0.000008     0.000000     1.093533
	   20 R(18,21)        =      1.533799     0.000001     0.000000     1.533799
	   21 R(21,22)        =      1.092799     0.000014     0.000000     1.092799
	   22 R(21,23)        =      1.092640     0.000006    -0.000000     1.092640
	   23 R(21,24)        =      1.528697    -0.000001     0.000000     1.528697
	   24 R(24,25)        =      1.095240     0.000010    -0.000000     1.095240
	   25 R(24,26)        =      1.094605     0.000008    -0.000000     1.094605
	   26 B(1,9,10)       =    108.355608     0.000000     0.000049   108.355657
	   27 B(1,9,11)       =    109.679822     0.000000    -0.000015   109.679807
	   28 B(1,9,15)       =    113.580051    -0.000000    -0.000019   113.580032
	   29 B(2,1,3)        =    107.446558    -0.000000    -0.000002   107.446556
	   30 B(2,1,4)        =    107.898611     0.000000     0.000008   107.898619
	   31 B(2,1,9)        =    110.348870     0.000000    -0.000008   110.348862
	   32 B(3,1,4)        =    107.922977     0.000000    -0.000006   107.922971
	   33 B(3,1,9)        =    111.603482     0.000000    -0.000011   111.603472
	   34 B(4,1,9)        =    111.450751    -0.000000     0.000019   111.450770
	   35 B(5,12,13)      =    109.798403    -0.000000    -0.000028   109.798375
	   36 B(5,12,14)      =    109.271652     0.000000    -0.000010   109.271641
	   37 B(5,12,24)      =    111.632319    -0.000000     0.000001   111.632320
	   38 B(6,5,7)        =    107.985601    -0.000000     0.000005   107.985606
	   39 B(6,5,8)        =    107.917410    -0.000000     0.000005   107.917415
	   40 B(6,5,12)       =    111.696381     0.000000    -0.000004   111.696377
	   41 B(7,5,8)        =    107.678847    -0.000000     0.000007   107.678854
	   42 B(7,5,12)       =    110.748142     0.000000    -0.000015   110.748127
	   43 B(8,5,12)       =    110.663088     0.000000     0.000002   110.663090
	   44 B(9,15,16)      =    109.513140     0.000000    -0.000011   109.513129
	   45 B(9,15,17)      =    109.073715    -0.000000     0.000006   109.073721
	   46 B(9,15,18)      =    113.684122     0.000000     0.000001   113.684123
	   47 B(10,9,11)      =    106.007038    -0.000000     0.000009   106.007047
	   48 B(10,9,15)      =    109.582615     0.000000    -0.000003   109.582613
	   49 B(11,9,15)      =    109.355069     0.000000    -0.000019   109.355051
	   50 B(12,24,21)     =    115.829176     0.000000     0.000032   115.829208
	   51 B(12,24,25)     =    108.575532     0.000000     0.000029   108.575561
	   52 B(12,24,26)     =    108.459064    -0.000000    -0.000025   108.459039
	   53 B(13,12,14)     =    106.643532    -0.000000     0.000009   106.643541
	   54 B(13,12,24)     =    109.592649     0.000000    -0.000012   109.592637
	   55 B(14,12,24)     =    109.774420     0.000000     0.000041   109.774462
	   56 B(15,18,19)     =    109.535310    -0.000000    -0.000037   109.535273
	   57 B(15,18,20)     =    107.021043     0.000000    -0.000018   107.021025
	   58 B(15,18,21)     =    116.098109     0.000000     0.000070   116.098179
	   59 B(16,15,17)     =    106.125467     0.000000     0.000004   106.125472
	   60 B(16,15,18)     =    107.542074    -0.000000    -0.000018   107.542056
	   61 B(17,15,18)     =    110.616322    -0.000000     0.000017   110.616339
	   62 B(18,21,22)     =    109.897569     0.000000     0.000006   109.897575
	   63 B(18,21,23)     =    108.687989    -0.000000    -0.000012   108.687977
	   64 B(18,21,24)     =    114.838032     0.000000     0.000023   114.838054
	   65 B(19,18,20)     =    106.061986     0.000000     0.000006   106.061992
	   66 B(19,18,21)     =    108.867619     0.000000    -0.000030   108.867589
	   67 B(20,18,21)     =    108.786253    -0.000000     0.000004   108.786257
	   68 B(21,24,25)     =    108.713239    -0.000000     0.000000   108.713239
	   69 B(21,24,26)     =    108.658477    -0.000000    -0.000028   108.658450
	   70 B(22,21,23)     =    105.790641     0.000000    -0.000004   105.790637
	   71 B(22,21,24)     =    109.708967    -0.000000    -0.000023   109.708944
	   72 B(23,21,24)     =    107.496630     0.000000     0.000009   107.496638
	   73 B(25,24,26)     =    106.185523    -0.000000    -0.000011   106.185511
	   74 D(1,9,15,16)    =   -134.310340    -0.000000    -0.000217  -134.310557
	   75 D(1,9,15,17)    =    -18.568629    -0.000000    -0.000215   -18.568844
	   76 D(1,9,15,18)    =    105.383142    -0.000000    -0.000187   105.382955
	   77 D(2,1,9,10)     =    -61.880260     0.000000     0.000031   -61.880229
	   78 D(2,1,9,11)     =   -177.172117    -0.000000     0.000001  -177.172116
	   79 D(2,1,9,15)     =     60.133676     0.000000     0.000050    60.133726
	   80 D(3,1,9,10)     =    178.726539     0.000000     0.000045   178.726585
	   81 D(3,1,9,11)     =     63.434682    -0.000000     0.000016    63.434698
	   82 D(3,1,9,15)     =    -59.259525    -0.000000     0.000065   -59.259460
	   83 D(4,1,9,10)     =     57.981628     0.000000     0.000047    57.981675
	   84 D(4,1,9,11)     =    -57.310229    -0.000000     0.000018   -57.310212
	   85 D(4,1,9,15)     =    179.995564    -0.000000     0.000067   179.995630
	   86 D(5,12,24,21)   =    174.264887    -0.000000    -0.000071   174.264816
	   87 D(5,12,24,25)   =    -63.139879     0.000000    -0.000025   -63.139904
	   88 D(5,12,24,26)   =     51.833446    -0.000000    -0.000037    51.833410
	   89 D(6,5,12,13)    =    -59.137990     0.000000    -0.000039   -59.138029
	   90 D(6,5,12,14)    =     57.499716    -0.000000    -0.000050    57.499666
	   91 D(6,5,12,24)    =    179.115238    -0.000000    -0.000005   179.115233
	   92 D(7,5,12,13)    =     61.266036     0.000000    -0.000045    61.265992
	   93 D(7,5,12,14)    =    177.903742    -0.000000    -0.000056   177.903686
	   94 D(7,5,12,24)    =    -60.480736    -0.000000    -0.000011   -60.480747
	   95 D(8,5,12,13)    =   -179.397522     0.000000    -0.000044  -179.397566
	   96 D(8,5,12,14)    =    -62.759817    -0.000000    -0.000055   -62.759872
	   97 D(8,5,12,24)    =     58.855705    -0.000000    -0.000010    58.855695
	   98 D(9,15,18,19)   =    175.641428     0.000000    -0.000074   175.641354
	   99 D(9,15,18,20)   =     61.081502     0.000000    -0.000053    61.081449
	  100 D(9,15,18,21)   =    -60.585942     0.000000    -0.000091   -60.586033
	  101 D(10,9,15,16)   =    -12.980042    -0.000000    -0.000169   -12.980211
	  102 D(10,9,15,17)   =    102.761669    -0.000000    -0.000166   102.761503
	  103 D(10,9,15,18)   =   -133.286560    -0.000000    -0.000139  -133.286699
	  104 D(11,9,15,16)   =    102.816720    -0.000000    -0.000170   102.816550
	  105 D(11,9,15,17)   =   -141.441568    -0.000000    -0.000168  -141.441736
	  106 D(11,9,15,18)   =    -17.489797    -0.000000    -0.000140   -17.489938
	  107 D(12,24,21,18)  =     60.083992     0.000000     0.000008    60.084000
	  108 D(12,24,21,22)  =    -64.261450    -0.000000     0.000001   -64.261448
	  109 D(12,24,21,23)  =   -178.844042     0.000000     0.000013  -178.844028
	  110 D(13,12,24,21)  =     52.399353     0.000000    -0.000028    52.399326
	  111 D(13,12,24,25)  =    174.994588     0.000000     0.000018   174.994606
	  112 D(13,12,24,26)  =    -70.032087     0.000000     0.000007   -70.032081
	  113 D(14,12,24,21)  =    -64.410841    -0.000000    -0.000055   -64.410897
	  114 D(14,12,24,25)  =     58.184393    -0.000000    -0.000010    58.184383
	  115 D(14,12,24,26)  =    173.157718    -0.000000    -0.000021   173.157697
	  116 D(15,18,21,22)  =     34.266569     0.000000     0.000228    34.266798
	  117 D(15,18,21,23)  =    149.603105     0.000000     0.000220   149.603325
	  118 D(15,18,21,24)  =    -89.979300     0.000000     0.000237   -89.979062
	  119 D(16,15,18,19)  =     54.229329     0.000000    -0.000048    54.229281
	  120 D(16,15,18,20)  =    -60.330597     0.000000    -0.000027   -60.330624
	  121 D(16,15,18,21)  =    178.001960     0.000000    -0.000065   178.001894
	  122 D(17,15,18,19)  =    -61.246973     0.000000    -0.000052   -61.247025
	  123 D(17,15,18,20)  =   -175.806899     0.000000    -0.000031  -175.806930
	  124 D(17,15,18,21)  =     62.525657     0.000000    -0.000069    62.525588
	  125 D(18,21,24,25)  =    -62.438476    -0.000000    -0.000054   -62.438530
	  126 D(18,21,24,26)  =   -177.590151     0.000000    -0.000026  -177.590177
	  127 D(19,18,21,22)  =    158.384658     0.000000     0.000207   158.384865
	  128 D(19,18,21,23)  =    -86.278806     0.000000     0.000199   -86.278607
	  129 D(19,18,21,24)  =     34.138789     0.000000     0.000216    34.139005
	  130 D(20,18,21,22)  =    -86.459062     0.000000     0.000200   -86.458862
	  131 D(20,18,21,23)  =     28.877474     0.000000     0.000192    28.877665
	  132 D(20,18,21,24)  =    149.295069     0.000000     0.000209   149.295278
	  133 D(22,21,24,25)  =    173.216082    -0.000000    -0.000060   173.216022
	  134 D(22,21,24,26)  =     58.064407    -0.000000    -0.000032    58.064375
	  135 D(23,21,24,25)  =     58.633490    -0.000000    -0.000048    58.633442
	  136 D(23,21,24,26)  =    -56.518185    -0.000000    -0.000020   -56.518205
	  137 R(1,21)         =      3.599754    -0.000000    -0.000001     3.599753
	  138 R(12,15)        =      3.392477     0.000002    -0.000001     3.392476
	 ---------------------------------------------------------------------------

  ==> Convergence Check <==

  Measures of convergence in internal coordinates in au.
  Criteria marked as inactive (o), active & met (*), and active & unmet ( ).
  ---------------------------------------------------------------------------------------------
   Step     Total Energy     Delta E     MAX Force     RMS Force      MAX Disp      RMS Disp   
  ---------------------------------------------------------------------------------------------
    Convergence Criteria             o    2.00e-06 *    1.00e-06 *    6.00e-06 *    4.00e-06 *
  ---------------------------------------------------------------------------------------------
     34    -314.97668705   -3.54e-09 o    1.73e-06 *    4.01e-07 *    4.14e-06 *    1.35e-06 *  ~
  ---------------------------------------------------------------------------------------------


  **** Optimization is complete! (in 34 steps) ****

  ==> Optimization Summary <==

  Measures of convergence in internal coordinates in au.
  --------------------------------------------------------------------------------------------------------------- ~
   Step         Total Energy             Delta E       MAX Force       RMS Force        MAX Disp        RMS Disp  ~
  --------------------------------------------------------------------------------------------------------------- ~
      1    -314.976687040986   -314.976687040986      0.00000136      0.00000033      0.00017679      0.00005651  ~
      2    -314.976687046857     -0.000000005870      0.00000274      0.00000083      0.00017306      0.00005028  ~
      3    -314.976687043072      0.000000003785      0.00000120      0.00000028      0.00005331      0.00001649  ~
      4    -314.976687040475      0.000000002597      0.00000103      0.00000024      0.00004487      0.00001895  ~
      5    -314.976687045480     -0.000000005005      0.00000249      0.00000061      0.00004865      0.00001666  ~
      6    -314.976687044743      0.000000000737      0.00000133      0.00000027      0.00002653      0.00000998  ~
      7    -314.976687048164     -0.000000003421      0.00000065      0.00000015      0.00000777      0.00000366  ~
      8    -314.976687046783      0.000000001381      0.00000058      0.00000014      0.00000620      0.00000214  ~
      9    -314.976687043132      0.000000003651      0.00000031      0.00000008      0.00001184      0.00000381  ~
     10    -314.976687044817     -0.000000001685      0.00000145      0.00000032      0.00001068      0.00000395  ~
     11    -314.976687046155     -0.000000001338      0.00000050      0.00000012      0.00000905      0.00000325  ~
     12    -314.976687045176      0.000000000979      0.00000028      0.00000006      0.00001128      0.00000283  ~
     13    -314.976687046988     -0.000000001812      0.00000282      0.00000060      0.00001667      0.00000555  ~
     14    -314.976687047646     -0.000000000658      0.00000046      0.00000009      0.00000702      0.00000268  ~
     15    -314.976687045858      0.000000001788      0.00000303      0.00000071      0.00005014      0.00002071  ~
     16    -314.976687045636      0.000000000222      0.00000121      0.00000026      0.00004285      0.00001712  ~
     17    -314.976687044907      0.000000000729      0.00000185      0.00000038      0.00001827      0.00000688  ~
     18    -314.976687047649     -0.000000002742      0.00000087      0.00000016      0.00001623      0.00000585  ~
     19    -314.976687047567      0.000000000082      0.00000314      0.00000066      0.00001902      0.00000620  ~
     20    -314.976687041164      0.000000006403      0.00000080      0.00000019      0.00000659      0.00000272  ~
     21    -314.976687046142     -0.000000004978      0.00000087      0.00000023      0.00000893      0.00000433  ~
     22    -314.976687045593      0.000000000549      0.00000183      0.00000041      0.00001491      0.00000606  ~
     23    -314.976687046075     -0.000000000482      0.00000194      0.00000045      0.00000911      0.00000331  ~
     24    -314.976687045481      0.000000000594      0.00000056      0.00000011      0.00001529      0.00000548  ~
     25    -314.976687044280      0.000000001201      0.00000074      0.00000018      0.00000772      0.00000342  ~
     26    -314.976687047567     -0.000000003287      0.00000070      0.00000013      0.00000612      0.00000216  ~
     27    -314.976687047034      0.000000000533      0.00000133      0.00000030      0.00000975      0.00000350  ~
     28    -314.976687046884      0.000000000150      0.00000059      0.00000015      0.00001418      0.00000421  ~
     29    -314.976687045263      0.000000001621      0.00000092      0.00000015      0.00000765      0.00000243  ~
     30    -314.976687045316     -0.000000000054      0.00000081      0.00000016      0.00000679      0.00000289  ~
     31    -314.976687043916      0.000000001400      0.00000037      0.00000009      0.00000755      0.00000291  ~
     32    -314.976687045372     -0.000000001456      0.00000074      0.00000015      0.00000655      0.00000219  ~
     33    -314.976687042811      0.000000002561      0.00000261      0.00000064      0.00000480      0.00000206  ~
     34    -314.976687046353     -0.000000003542      0.00000173      0.00000040      0.00000414      0.00000135  ~
  --------------------------------------------------------------------------------------------------------------- ~

	Writing optimization data to binary file.
	Final energy is   -314.9766870463528
	Final (previous) structure:
	Cartesian Geometry (in Angstrom)
	    C     2.1313316946   1.5795604372  -0.5494369966
	    H     1.9922028250   2.3193774144   0.2401360505
	    H     1.1996504225   1.5225407047  -1.1115436227
	    H     2.9066217403   1.9484735463  -1.2214758602
	    C    -3.1608502076   1.0864600676   0.3084352323
	    H    -3.2504489579   1.9921499561   0.9077686894
	    H    -3.5521224408   1.3011179387  -0.6868053822
	    H    -3.7976366620   0.3227220249   0.7571357742
	    C     2.5093881010   0.2279920560   0.0503002985
	    H     3.4572032840   0.3399339623   0.5797676655
	    H     2.6951669441  -0.4917203230  -0.7516616380
	    C    -1.7171153045   0.6041071828   0.2286004330
	    H    -1.0901339909   1.3835043558  -0.2128631742
	    H    -1.3383056429   0.4324306818   1.2378129838
	    C     1.4467521123  -0.3392893258   1.0088871809
	    H     1.9327915949  -0.7109264057   1.9136445784
	    H     0.7875867928   0.4690985740   1.3291999812
	    C     0.6345647146  -1.4937503280   0.4135932531
	    H    -0.0433931239  -1.8948256817   1.1741484589
	    H     1.3404918112  -2.2966821094   0.1838492680
	    C    -0.1730185068  -1.1696541438  -0.8494628385
	    H     0.3661741820  -0.4400050697  -1.4586372735
	    H    -0.2443597863  -2.0725388720  -1.4606684839
	    C    -1.5964589794  -0.6751267899  -0.5922191006
	    H    -2.1580258258  -1.4681497263  -0.0869393237
	    H    -2.0916366710  -0.5168338092  -1.5554961702
	Saving final (previous) structure.
			--------------------------
			 OPTKING Finished Execution 
			--------------------------

    Final optimized geometry and variables:
    Molecular point group: c1
    Full point group: C1

    Geometry (in Angstrom), charge = 0, multiplicity = 1:

    C            2.131331694582     1.579560437189    -0.549436996650
    H            1.992202825017     2.319377414418     0.240136050496
    H            1.199650422455     1.522540704738    -1.111543622748
    H            2.906621740261     1.948473546260    -1.221475860172
    C           -3.160850207580     1.086460067567     0.308435232340
    H           -3.250448957888     1.992149956132     0.907768689440
    H           -3.552122440774     1.301117938714    -0.686805382217
    H           -3.797636662035     0.322722024900     0.757135774224
    C            2.509388101029     0.227992056011     0.050300298524
    H            3.457203284011     0.339933962273     0.579767665501
    H            2.695166944127    -0.491720322963    -0.751661637994
    C           -1.717115304535     0.604107182807     0.228600432957
    H           -1.090133990948     1.383504355750    -0.212863174188
    H           -1.338305642928     0.432430681802     1.237812983763
    C            1.446752112295    -0.339289325757     1.008887180935
    H            1.932791594940    -0.710926405696     1.913644578394
    H            0.787586792817     0.469098574004     1.329199981234
    C            0.634564714650    -1.493750327980     0.413593253130
    H           -0.043393123934    -1.894825681697     1.174148458900
    H            1.340491811178    -2.296682109393     0.183849268006
    C           -0.173018506783    -1.169654143832    -0.849462838528
    H            0.366174181951    -0.440005069743    -1.458637273522
    H           -0.244359786255    -2.072538871995    -1.460668483861
    C           -1.596458979410    -0.675126789852    -0.592219100560
    H           -2.158025825825    -1.468149726290    -0.086939323680
    H           -2.091636670985    -0.516833809218    -1.555496170202

	Cleaning optimization helper files.

*** Psi4 exiting successfully. Buy a developer a beer!
