    -----------------------------------------------------------------------
          Psi4: An Open-Source Ab Initio Electronic Structure Package
                              Psi4 1.0.0 Driver

                          Git: Rev {master} 6a9a71b dirty

    J. M. Turney, A. C. Simmonett, R. M. Parrish, E. G. Hohenstein,
    F. A. Evangelista, J. T. Fermann, B. J. Mintz, L. A. Burns, J. J. Wilke,
    M. L. Abrams, N. J. Russ, M. L. Leininger, C. L. Janssen, E. T. Seidl,
    W. D. Allen, H. F. Schaefer, R. A. King, E. F. Valeev, C. D. Sherrill,
    and T. D. Crawford, WIREs Comput. Mol. Sci. 2, 556-565 (2012)
    (doi: 10.1002/wcms.93)

                         Additional Contributions by
    A. E. DePrince, U. Bozkaya, A. Yu. Sokolov, D. G. A. Smith, R. Di Remigio,
    R. M. Richard, J. F. Gonthier, H. R. McAlexander, M. Saitow, and
    B. P. Pritchard
    -----------------------------------------------------------------------


    Psi4 started on: Tue Sep 20 16:43:06 2016

    Process ID:  38080
    PSI4DATADIR: /usr/local/hpc5/psi4conda/share/psi4
    Memory level set to 256.000 MB

  ==> Input File <==

--------------------------------------------------------------------------
memory 30 Gb

molecule molecule_47_psi {
0 1
symmetry c1
    C            4.019579773035     0.332561573380     0.266912708825
    H            3.922695688236     0.872932292254     1.206838012163
    H            4.813710389326     0.801333791298    -0.309632298372
    H            4.329061172784    -0.684665950625     0.500078852170
    C           -2.492318941507     1.579271374656     0.110316316800
    H           -1.573227998503     1.656747746783     0.686694526622
    H           -3.178177451944     2.338132457153     0.481026923908
    H           -2.258229196743     1.816246645897    -0.926379488886
    C            2.703546507722     0.331604226661    -0.487979254627
    H            2.823394914526    -0.191488344119    -1.437990548489
    H            2.416742878270     1.355785745782    -0.731698300141
    C           -3.101180622263     0.193165044434     0.224558690127
    H           -3.307810317997    -0.022863203530     1.274308192319
    H           -4.062572159062     0.179251644148    -0.289818268039
    C            1.582110861616    -0.321367180453     0.296944355943
    H            1.464454219665     0.194838842821     1.253220229721
    H            1.859687943393    -1.351618816888     0.534096047944
    C            0.256875254816    -0.316818362083    -0.438415420615
    H            0.376911041024    -0.814145344612    -1.403970036760
    H           -0.030163113285     0.711983062134    -0.657663285654
    C           -0.851464310870    -1.013914462929     0.332719854247
    H           -0.571434757909    -2.060779161785     0.457024760297
    H           -0.908021596002    -0.593825547468     1.340449858836
    C           -2.224027097075    -0.917439144721    -0.334106117902
    H           -2.088707456458    -0.762609842691    -1.407262435368
    H           -2.755729322478    -1.862398752725    -0.223442857030
}

set globals {
  reference rhf
  g_convergence gau_verytight
  basis aug-cc-pvtz
  freeze_core true
  scf_type df
  mp_type df
}
optimize('mp2')
--------------------------------------------------------------------------
/usr/local/hpc5/psi4conda/lib/python2.7/site-packages/v2rdm_casscf/v2rdm_casscf.so loaded.

  Memory set to  30.000 GiB by Python script.
gradient() will perform analytic gradient computation.

*** tstart() called on wr28
*** at Tue Sep 20 16:43:06 2016


         ---------------------------------------------------------
                                   SCF
            by Justin Turney, Rob Parrish, and Andy Simmonett
                              RHF Reference
                       12 Threads,  30000 MiB Core
         ---------------------------------------------------------

  ==> Geometry <==

    Molecular point group: c1
    Full point group: C1

    Geometry (in Angstrom), charge = 0, multiplicity = 1:

       Center              X                  Y                   Z               Mass       
    ------------   -----------------  -----------------  -----------------  -----------------
           C          4.019579773035     0.332561573380     0.266912708825    12.000000000000
           H          3.922695688236     0.872932292254     1.206838012163     1.007825032070
           H          4.813710389326     0.801333791298    -0.309632298372     1.007825032070
           H          4.329061172784    -0.684665950625     0.500078852170     1.007825032070
           C         -2.492318941507     1.579271374656     0.110316316800    12.000000000000
           H         -1.573227998503     1.656747746783     0.686694526622     1.007825032070
           H         -3.178177451944     2.338132457153     0.481026923908     1.007825032070
           H         -2.258229196743     1.816246645897    -0.926379488886     1.007825032070
           C          2.703546507722     0.331604226661    -0.487979254627    12.000000000000
           H          2.823394914526    -0.191488344119    -1.437990548489     1.007825032070
           H          2.416742878270     1.355785745782    -0.731698300141     1.007825032070
           C         -3.101180622263     0.193165044434     0.224558690127    12.000000000000
           H         -3.307810317997    -0.022863203530     1.274308192319     1.007825032070
           H         -4.062572159062     0.179251644148    -0.289818268039     1.007825032070
           C          1.582110861616    -0.321367180453     0.296944355943    12.000000000000
           H          1.464454219665     0.194838842821     1.253220229721     1.007825032070
           H          1.859687943393    -1.351618816888     0.534096047944     1.007825032070
           C          0.256875254816    -0.316818362083    -0.438415420615    12.000000000000
           H          0.376911041024    -0.814145344612    -1.403970036760     1.007825032070
           H         -0.030163113285     0.711983062134    -0.657663285654     1.007825032070
           C         -0.851464310870    -1.013914462929     0.332719854247    12.000000000000
           H         -0.571434757909    -2.060779161785     0.457024760297     1.007825032070
           H         -0.908021596002    -0.593825547468     1.340449858836     1.007825032070
           C         -2.224027097075    -0.917439144721    -0.334106117902    12.000000000000
           H         -2.088707456458    -0.762609842691    -1.407262435368     1.007825032070
           H         -2.755729322478    -1.862398752725    -0.223442857030     1.007825032070

  Running in c1 symmetry.

  Rotational constants: A =      0.15099  B =      0.02300  C =      0.02129 [cm^-1]
  Rotational constants: A =   4526.53585  B =    689.37847  C =    638.29632 [MHz]
  Nuclear repulsion =  390.474674156470769

  Charge       = 0
  Multiplicity = 1
  Electrons    = 66
  Nalpha       = 33
  Nbeta        = 33

  ==> Algorithm <==

  SCF Algorithm Type is DF.
  DIIS enabled.
  MOM disabled.
  Fractional occupation disabled.
  Guess Type is SAD.
  Energy threshold   = 1.00e-10
  Density threshold  = 1.00e-10
  Integral threshold = 0.00e+00

  ==> Primary Basis <==

  Basis Set: AUG-CC-PVTZ
    Number of shells: 274
    Number of basis function: 782
    Number of Cartesian functions: 890
    Spherical Harmonics?: true
    Max angular momentum: 3

  ==> Pre-Iterations <==

   -------------------------------------------------------
    Irrep   Nso     Nmo     Nalpha   Nbeta   Ndocc  Nsocc
   -------------------------------------------------------
     A        782     782       0       0       0       0
   -------------------------------------------------------
    Total     782     782      33      33      33       0
   -------------------------------------------------------

  ==> Integral Setup <==

  ==> DFJK: Density-Fitted J/K Matrices <==

    J tasked:                  Yes
    K tasked:                  Yes
    wK tasked:                  No
    OpenMP threads:             12
    Integrals threads:          12
    Memory (MB):             21457
    Algorithm:                Core
    Integral Cache:           NONE
    Schwarz Cutoff:          1E-12
    Fitting Condition:       1E-12

   => Auxiliary Basis Set <=

  Basis Set: 
    Number of shells: 492
    Number of basis function: 1660
    Number of Cartesian functions: 2038
    Spherical Harmonics?: true
    Max angular momentum: 4

  Minimum eigenvalue in the overlap matrix is 2.0389163318E-06.
  Using Symmetric Orthogonalization.
  SCF Guess: Superposition of Atomic Densities via on-the-fly atomic UHF.

  ==> Iterations <==

                           Total Energy        Delta E     RMS |[F,P]|

   @DF-RHF iter   0:  -316.78061474502613   -3.16781e+02   6.93228e-03 
   @DF-RHF iter   1:  -313.24936398447244    3.53125e+00   8.21715e-04 
   @DF-RHF iter   2:  -313.49718812150161   -2.47824e-01   3.23793e-04 DIIS
   @DF-RHF iter   3:  -313.53496630538132   -3.77782e-02   1.01504e-04 DIIS
   @DF-RHF iter   4:  -313.54055587828520   -5.58957e-03   1.57220e-05 DIIS
   @DF-RHF iter   5:  -313.54072462460192   -1.68746e-04   4.83176e-06 DIIS
   @DF-RHF iter   6:  -313.54073726335002   -1.26387e-05   1.40776e-06 DIIS
   @DF-RHF iter   7:  -313.54073851817384   -1.25482e-06   2.74095e-07 DIIS
   @DF-RHF iter   8:  -313.54073857146125   -5.32874e-08   8.20175e-08 DIIS
   @DF-RHF iter   9:  -313.54073857535298   -3.89173e-09   2.08194e-08 DIIS
   @DF-RHF iter  10:  -313.54073857565277   -2.99792e-10   5.59603e-09 DIIS
   @DF-RHF iter  11:  -313.54073857567425   -2.14868e-11   1.29160e-09 DIIS
   @DF-RHF iter  12:  -313.54073857567460   -3.41061e-13   4.08296e-10 DIIS
   @DF-RHF iter  13:  -313.54073857567528   -6.82121e-13   1.22942e-10 DIIS
   @DF-RHF iter  14:  -313.54073857567448    7.95808e-13   2.93024e-11 DIIS

  ==> Post-Iterations <==

    Orbital Energies (a.u.)
    -----------------------

    Doubly Occupied:                                                      

       1A    -11.211402     2A    -11.210388     3A    -11.208627  
       4A    -11.208005     5A    -11.207767     6A    -11.206624  
       7A    -11.205726     8A    -11.205444     9A     -1.096287  
      10A     -1.064369    11A     -1.011168    12A     -0.950587  
      13A     -0.886283    14A     -0.818853    15A     -0.785740  
      16A     -0.770361    17A     -0.656660    18A     -0.623533  
      19A     -0.616271    20A     -0.593767    21A     -0.574193  
      22A     -0.564185    23A     -0.540425    24A     -0.525536  
      25A     -0.524715    26A     -0.494247    27A     -0.487438  
      28A     -0.482258    29A     -0.463587    30A     -0.460567  
      31A     -0.454404    32A     -0.442147    33A     -0.428878  

    Virtual:                                                              

      34A      0.030041    35A      0.031817    36A      0.034863  
      37A      0.035026    38A      0.045232    39A      0.046972  
      40A      0.048628    41A      0.054216    42A      0.058348  
      43A      0.065562    44A      0.067310    45A      0.069602  
      46A      0.073246    47A      0.084249    48A      0.091572  
      49A      0.093193    50A      0.096268    51A      0.101953  
      52A      0.112498    53A      0.114418    54A      0.118148  
      55A      0.122031    56A      0.124472    57A      0.126117  
      58A      0.130772    59A      0.135167    60A      0.141093  
      61A      0.143591    62A      0.151653    63A      0.154144  
      64A      0.158662    65A      0.160795    66A      0.161323  
      67A      0.162992    68A      0.168978    69A      0.170332  
      70A      0.175057    71A      0.178363    72A      0.186324  
      73A      0.187537    74A      0.194987    75A      0.206108  
      76A      0.212091    77A      0.217822    78A      0.226412  
      79A      0.228614    80A      0.235182    81A      0.243013  
      82A      0.252460    83A      0.254391    84A      0.255415  
      85A      0.260774    86A      0.269310    87A      0.272206  
      88A      0.276164    89A      0.281707    90A      0.284594  
      91A      0.293845    92A      0.301139    93A      0.302022  
      94A      0.313368    95A      0.314675    96A      0.319155  
      97A      0.323723    98A      0.327752    99A      0.330101  
     100A      0.335382   101A      0.339267   102A      0.344035  
     103A      0.345079   104A      0.348719   105A      0.351183  
     106A      0.359777   107A      0.365122   108A      0.367468  
     109A      0.371753   110A      0.376535   111A      0.377093  
     112A      0.382284   113A      0.386234   114A      0.388132  
     115A      0.389736   116A      0.398567   117A      0.399554  
     118A      0.404394   119A      0.406013   120A      0.411513  
     121A      0.412773   122A      0.420166   123A      0.422571  
     124A      0.426802   125A      0.429776   126A      0.432774  
     127A      0.435660   128A      0.438825   129A      0.445069  
     130A      0.448210   131A      0.449444   132A      0.457560  
     133A      0.462923   134A      0.464897   135A      0.469251  
     136A      0.473457   137A      0.474658   138A      0.478116  
     139A      0.481934   140A      0.485166   141A      0.487318  
     142A      0.491565   143A      0.495092   144A      0.497230  
     145A      0.505608   146A      0.508351   147A      0.510357  
     148A      0.519353   149A      0.524574   150A      0.527362  
     151A      0.531518   152A      0.534936   153A      0.536407  
     154A      0.540138   155A      0.542798   156A      0.545986  
     157A      0.550661   158A      0.558134   159A      0.560067  
     160A      0.561130   161A      0.566547   162A      0.573582  
     163A      0.578813   164A      0.581926   165A      0.586532  
     166A      0.589516   167A      0.594801   168A      0.603351  
     169A      0.609116   170A      0.611285   171A      0.619255  
     172A      0.620203   173A      0.622669   174A      0.630802  
     175A      0.635739   176A      0.639725   177A      0.646349  
     178A      0.655801   179A      0.657479   180A      0.659475  
     181A      0.670275   182A      0.674109   183A      0.677726  
     184A      0.683666   185A      0.688976   186A      0.694031  
     187A      0.697311   188A      0.705145   189A      0.707479  
     190A      0.716671   191A      0.725338   192A      0.731474  
     193A      0.738241   194A      0.740191   195A      0.750035  
     196A      0.758040   197A      0.764996   198A      0.778548  
     199A      0.787734   200A      0.797878   201A      0.803453  
     202A      0.809835   203A      0.821174   204A      0.824926  
     205A      0.829761   206A      0.841328   207A      0.842263  
     208A      0.849293   209A      0.854835   210A      0.860535  
     211A      0.865882   212A      0.869191   213A      0.875088  
     214A      0.880717   215A      0.885251   216A      0.893038  
     217A      0.898951   218A      0.899938   219A      0.904425  
     220A      0.910864   221A      0.914557   222A      0.922020  
     223A      0.924375   224A      0.927815   225A      0.930269  
     226A      0.934605   227A      0.938560   228A      0.943417  
     229A      0.945933   230A      0.954963   231A      0.956567  
     232A      0.962815   233A      0.969469   234A      0.971920  
     235A      0.974270   236A      0.985597   237A      0.987216  
     238A      0.992778   239A      1.000324   240A      1.003367  
     241A      1.015369   242A      1.021821   243A      1.023763  
     244A      1.028943   245A      1.034236   246A      1.038211  
     247A      1.043169   248A      1.045510   249A      1.048587  
     250A      1.050998   251A      1.058370   252A      1.065106  
     253A      1.067864   254A      1.073821   255A      1.085480  
     256A      1.093958   257A      1.098472   258A      1.101693  
     259A      1.108376   260A      1.119382   261A      1.124334  
     262A      1.125460   263A      1.130340   264A      1.137106  
     265A      1.139802   266A      1.144781   267A      1.151281  
     268A      1.156768   269A      1.159399   270A      1.166261  
     271A      1.171249   272A      1.179655   273A      1.186912  
     274A      1.188806   275A      1.190144   276A      1.194549  
     277A      1.195271   278A      1.200719   279A      1.212244  
     280A      1.219291   281A      1.223069   282A      1.228354  
     283A      1.230194   284A      1.237895   285A      1.240706  
     286A      1.242054   287A      1.246883   288A      1.254067  
     289A      1.259504   290A      1.265860   291A      1.271321  
     292A      1.280420   293A      1.281699   294A      1.284757  
     295A      1.291070   296A      1.305147   297A      1.310515  
     298A      1.317136   299A      1.321750   300A      1.325860  
     301A      1.336606   302A      1.339509   303A      1.345588  
     304A      1.347433   305A      1.356980   306A      1.363214  
     307A      1.373483   308A      1.377742   309A      1.382830  
     310A      1.385542   311A      1.388853   312A      1.400509  
     313A      1.411588   314A      1.417313   315A      1.426643  
     316A      1.434907   317A      1.438471   318A      1.442604  
     319A      1.448334   320A      1.457458   321A      1.472231  
     322A      1.487874   323A      1.498952   324A      1.504422  
     325A      1.512387   326A      1.519586   327A      1.529069  
     328A      1.531664   329A      1.541612   330A      1.548528  
     331A      1.554729   332A      1.560992   333A      1.563769  
     334A      1.569357   335A      1.586741   336A      1.592296  
     337A      1.595875   338A      1.601412   339A      1.612452  
     340A      1.614701   341A      1.621062   342A      1.626288  
     343A      1.631257   344A      1.639858   345A      1.642434  
     346A      1.650286   347A      1.661242   348A      1.664849  
     349A      1.675961   350A      1.683727   351A      1.687807  
     352A      1.691086   353A      1.696257   354A      1.701959  
     355A      1.705625   356A      1.716423   357A      1.719340  
     358A      1.728828   359A      1.737517   360A      1.739661  
     361A      1.748507   362A      1.750821   363A      1.756910  
     364A      1.760383   365A      1.766872   366A      1.771145  
     367A      1.779696   368A      1.786686   369A      1.790052  
     370A      1.792745   371A      1.802467   372A      1.804173  
     373A      1.808930   374A      1.815309   375A      1.819027  
     376A      1.821481   377A      1.825227   378A      1.835215  
     379A      1.841431   380A      1.848356   381A      1.856566  
     382A      1.863082   383A      1.866191   384A      1.873200  
     385A      1.880846   386A      1.884932   387A      1.891804  
     388A      1.900239   389A      1.912753   390A      1.920172  
     391A      1.930801   392A      1.938262   393A      1.947952  
     394A      1.950668   395A      1.955172   396A      1.963426  
     397A      1.970301   398A      1.970748   399A      1.980986  
     400A      1.991620   401A      1.994468   402A      1.997810  
     403A      2.012181   404A      2.015004   405A      2.019413  
     406A      2.026152   407A      2.029600   408A      2.039717  
     409A      2.047882   410A      2.053438   411A      2.064703  
     412A      2.068640   413A      2.077474   414A      2.081354  
     415A      2.086903   416A      2.092273   417A      2.100773  
     418A      2.110152   419A      2.119811   420A      2.128994  
     421A      2.134085   422A      2.143775   423A      2.154724  
     424A      2.170032   425A      2.175392   426A      2.191563  
     427A      2.206538   428A      2.212452   429A      2.221498  
     430A      2.228400   431A      2.233907   432A      2.240634  
     433A      2.248004   434A      2.251420   435A      2.270991  
     436A      2.278871   437A      2.285080   438A      2.290162  
     439A      2.303092   440A      2.307461   441A      2.318086  
     442A      2.324918   443A      2.331519   444A      2.337404  
     445A      2.342773   446A      2.352351   447A      2.360118  
     448A      2.374384   449A      2.375946   450A      2.380879  
     451A      2.400881   452A      2.405760   453A      2.415400  
     454A      2.419525   455A      2.429230   456A      2.438638  
     457A      2.453625   458A      2.465026   459A      2.467057  
     460A      2.485302   461A      2.498736   462A      2.515210  
     463A      2.521281   464A      2.525873   465A      2.533057  
     466A      2.550494   467A      2.554967   468A      2.558028  
     469A      2.572705   470A      2.600572   471A      2.605788  
     472A      2.610910   473A      2.625929   474A      2.670065  
     475A      2.675502   476A      2.683438   477A      2.704300  
     478A      2.729135   479A      2.770447   480A      2.773806  
     481A      2.814656   482A      2.840195   483A      2.860689  
     484A      2.929936   485A      2.939036   486A      2.964958  
     487A      3.013170   488A      3.017772   489A      3.048166  
     490A      3.120030   491A      3.199264   492A      3.215382  
     493A      3.272589   494A      3.298806   495A      3.365491  
     496A      3.403097   497A      3.431819   498A      3.444424  
     499A      3.451760   500A      3.475887   501A      3.491258  
     502A      3.498197   503A      3.516636   504A      3.525188  
     505A      3.537183   506A      3.538358   507A      3.545261  
     508A      3.570192   509A      3.576347   510A      3.583013  
     511A      3.592325   512A      3.605382   513A      3.613757  
     514A      3.619875   515A      3.638516   516A      3.646534  
     517A      3.654051   518A      3.674445   519A      3.682873  
     520A      3.692468   521A      3.700313   522A      3.714779  
     523A      3.720438   524A      3.726679   525A      3.739521  
     526A      3.742261   527A      3.746687   528A      3.761210  
     529A      3.774983   530A      3.781768   531A      3.788363  
     532A      3.797000   533A      3.808064   534A      3.810968  
     535A      3.814044   536A      3.823490   537A      3.830733  
     538A      3.846087   539A      3.853196   540A      3.866648  
     541A      3.873616   542A      3.881322   543A      3.883163  
     544A      3.894415   545A      3.897817   546A      3.910149  
     547A      3.917573   548A      3.923819   549A      3.933945  
     550A      3.944918   551A      3.947466   552A      3.949791  
     553A      3.959020   554A      3.966166   555A      3.969925  
     556A      3.973739   557A      3.985338   558A      3.994990  
     559A      4.004692   560A      4.006678   561A      4.021270  
     562A      4.035283   563A      4.038626   564A      4.050484  
     565A      4.051287   566A      4.062770   567A      4.067567  
     568A      4.069419   569A      4.078885   570A      4.083379  
     571A      4.088087   572A      4.102379   573A      4.104763  
     574A      4.112244   575A      4.121902   576A      4.127354  
     577A      4.137901   578A      4.160526   579A      4.171781  
     580A      4.185048   581A      4.191704   582A      4.197085  
     583A      4.210945   584A      4.222728   585A      4.226610  
     586A      4.234191   587A      4.249389   588A      4.257308  
     589A      4.267621   590A      4.273901   591A      4.287886  
     592A      4.298522   593A      4.312272   594A      4.314329  
     595A      4.322236   596A      4.332611   597A      4.340636  
     598A      4.355630   599A      4.371387   600A      4.379521  
     601A      4.384671   602A      4.395152   603A      4.401390  
     604A      4.414860   605A      4.439374   606A      4.449000  
     607A      4.455356   608A      4.474961   609A      4.481542  
     610A      4.496983   611A      4.516678   612A      4.527769  
     613A      4.545006   614A      4.551932   615A      4.555023  
     616A      4.571185   617A      4.576190   618A      4.592632  
     619A      4.604570   620A      4.613621   621A      4.632385  
     622A      4.652110   623A      4.662752   624A      4.673116  
     625A      4.675836   626A      4.687558   627A      4.701943  
     628A      4.721644   629A      4.733791   630A      4.744715  
     631A      4.752740   632A      4.760405   633A      4.765289  
     634A      4.775293   635A      4.784046   636A      4.787279  
     637A      4.808767   638A      4.814817   639A      4.826951  
     640A      4.840969   641A      4.846673   642A      4.856927  
     643A      4.874485   644A      4.885011   645A      4.889887  
     646A      4.891503   647A      4.912224   648A      4.936685  
     649A      4.946379   650A      4.956849   651A      4.959336  
     652A      4.964554   653A      4.979302   654A      4.983053  
     655A      4.991384   656A      5.008122   657A      5.012712  
     658A      5.023137   659A      5.041560   660A      5.065508  
     661A      5.078421   662A      5.092046   663A      5.099628  
     664A      5.125195   665A      5.139143   666A      5.143693  
     667A      5.152568   668A      5.167909   669A      5.176442  
     670A      5.184015   671A      5.206529   672A      5.210647  
     673A      5.226956   674A      5.235722   675A      5.253440  
     676A      5.259330   677A      5.267930   678A      5.280895  
     679A      5.286047   680A      5.303234   681A      5.304879  
     682A      5.312426   683A      5.331060   684A      5.338998  
     685A      5.351294   686A      5.353331   687A      5.357550  
     688A      5.374018   689A      5.391226   690A      5.401539  
     691A      5.416665   692A      5.427201   693A      5.430354  
     694A      5.436873   695A      5.451830   696A      5.461652  
     697A      5.477014   698A      5.481214   699A      5.491616  
     700A      5.512043   701A      5.526201   702A      5.532001  
     703A      5.543636   704A      5.563793   705A      5.564824  
     706A      5.582880   707A      5.596247   708A      5.608520  
     709A      5.628193   710A      5.646703   711A      5.652891  
     712A      5.655883   713A      5.658741   714A      5.669730  
     715A      5.687968   716A      5.702592   717A      5.717899  
     718A      5.734295   719A      5.743662   720A      5.759305  
     721A      5.765195   722A      5.795534   723A      5.804994  
     724A      5.807094   725A      5.832543   726A      5.837254  
     727A      5.864776   728A      5.887073   729A      5.904545  
     730A      5.918200   731A      5.939567   732A      5.956291  
     733A      5.983235   734A      6.010567   735A      6.026009  
     736A      6.056911   737A      6.068122   738A      6.081530  
     739A      6.111908   740A      6.123596   741A      6.161257  
     742A      6.176331   743A      6.184220   744A      6.220791  
     745A      6.226525   746A      6.234846   747A      6.251460  
     748A      6.276560   749A      6.279070   750A      6.300372  
     751A      6.314949   752A      6.337630   753A      6.358993  
     754A      6.361379   755A      6.381847   756A      6.407199  
     757A      6.425919   758A      6.478288   759A      6.540139  
     760A      6.601801   761A      6.647367   762A      6.697956  
     763A      6.729045   764A      6.760116   765A      6.776702  
     766A      6.810929   767A      6.864746   768A      6.877624  
     769A      6.952660   770A      6.968149   771A      6.972036  
     772A      7.043180   773A      7.058501   774A      7.155897  
     775A     18.066439   776A     18.137962   777A     18.463361  
     778A     18.655136   779A     18.744991   780A     19.168876  
     781A     19.725313   782A     19.885189  

    Final Occupation by Irrep:
              A 
    DOCC [    33 ]

  Energy converged.

  @DF-RHF Final Energy:  -313.54073857567448

   => Energetics <=

    Nuclear Repulsion Energy =            390.4746741564707690
    One-Electron Energy =               -1196.0699415425012830
    Two-Electron Energy =                 492.0545288103557482
    DFT Exchange-Correlation Energy =       0.0000000000000000
    Empirical Dispersion Energy =           0.0000000000000000
    PCM Polarization Energy =               0.0000000000000000
    EFP Energy =                            0.0000000000000000
    Total Energy =                       -313.5407385756747658


  Saving occupied orbitals to File 180.

*** tstop() called on wr28 at Tue Sep 20 16:44:29 2016
Module time:
	user time   =     904.91 seconds =      15.08 minutes
	system time =      11.21 seconds =       0.19 minutes
	total time  =         83 seconds =       1.38 minutes
Total time:
	user time   =     904.91 seconds =      15.08 minutes
	system time =      11.21 seconds =       0.19 minutes
	total time  =         83 seconds =       1.38 minutes


Properties will be evaluated at   0.000000,   0.000000,   0.000000 Bohr

Properties computed using the SCF density matrix

  Nuclear Dipole Moment: (a.u.)
     X:     1.1930      Y:     1.4839      Z:     0.3243

  Electronic Dipole Moment: (a.u.)
     X:    -1.2329      Y:    -1.5028      Z:    -0.3411

  Dipole Moment: (a.u.)
     X:    -0.0399      Y:    -0.0189      Z:    -0.0168     Total:     0.0472

  Dipole Moment: (Debye)
     X:    -0.1013      Y:    -0.0480      Z:    -0.0427     Total:     0.1200


  //>>>>>>>>>>>>>>>>>>>>>>>>>>>>>>>>>>>//
  //               DFMP2               //
  //<<<<<<<<<<<<<<<<<<<<<<<<<<<<<<<<<<<//


*** tstart() called on wr28
*** at Tue Sep 20 16:44:29 2016


*** tstop() called on wr28 at Tue Sep 20 16:44:30 2016
Module time:
	user time   =       4.78 seconds =       0.08 minutes
	system time =       0.25 seconds =       0.00 minutes
	total time  =          1 seconds =       0.02 minutes
Total time:
	user time   =     910.70 seconds =      15.18 minutes
	system time =      11.52 seconds =       0.19 minutes
	total time  =         84 seconds =       1.40 minutes
	 --------------------------------------------------------
	                          DF-MP2                         
	      2nd-Order Density-Fitted Moller-Plesset Theory     
	              RMP2 Wavefunction,  12 Threads             
	                                                         
	        Rob Parrish, Justin Turney, Andy Simmonett,      
	           Ed Hohenstein, and C. David Sherrill          
	 --------------------------------------------------------

   => Auxiliary Basis Set <=

  Basis Set: 
    Number of shells: 476
    Number of basis function: 1676
    Number of Cartesian functions: 2078
    Spherical Harmonics?: true
    Max angular momentum: 4

	 --------------------------------------------------------
	                 NBF =   782, NAUX =  1676
	 --------------------------------------------------------
	   CLASS    FOCC     OCC    AOCC    AVIR     VIR    FVIR
	   PAIRS       8      33      25     749     749       0
	 --------------------------------------------------------

DGAS Warning! /src/lib/libfock/apps.cc:80 is not currently checking restricted

         ------------------------------------------------------------
                                     CPHF                           
                                  Rob Parrish                       
         ------------------------------------------------------------

  ==> Geometry <==

    Molecular point group: c1
    Full point group: C1

    Geometry (in Angstrom), charge = 0, multiplicity = 1:

       Center              X                  Y                   Z               Mass       
    ------------   -----------------  -----------------  -----------------  -----------------
           C          4.019579773035     0.332561573380     0.266912708825    12.000000000000
           H          3.922695688236     0.872932292254     1.206838012163     1.007825032070
           H          4.813710389326     0.801333791298    -0.309632298372     1.007825032070
           H          4.329061172784    -0.684665950625     0.500078852170     1.007825032070
           C         -2.492318941507     1.579271374656     0.110316316800    12.000000000000
           H         -1.573227998503     1.656747746783     0.686694526622     1.007825032070
           H         -3.178177451944     2.338132457153     0.481026923908     1.007825032070
           H         -2.258229196743     1.816246645897    -0.926379488886     1.007825032070
           C          2.703546507722     0.331604226661    -0.487979254627    12.000000000000
           H          2.823394914526    -0.191488344119    -1.437990548489     1.007825032070
           H          2.416742878270     1.355785745782    -0.731698300141     1.007825032070
           C         -3.101180622263     0.193165044434     0.224558690127    12.000000000000
           H         -3.307810317997    -0.022863203530     1.274308192319     1.007825032070
           H         -4.062572159062     0.179251644148    -0.289818268039     1.007825032070
           C          1.582110861616    -0.321367180453     0.296944355943    12.000000000000
           H          1.464454219665     0.194838842821     1.253220229721     1.007825032070
           H          1.859687943393    -1.351618816888     0.534096047944     1.007825032070
           C          0.256875254816    -0.316818362083    -0.438415420615    12.000000000000
           H          0.376911041024    -0.814145344612    -1.403970036760     1.007825032070
           H         -0.030163113285     0.711983062134    -0.657663285654     1.007825032070
           C         -0.851464310870    -1.013914462929     0.332719854247    12.000000000000
           H         -0.571434757909    -2.060779161785     0.457024760297     1.007825032070
           H         -0.908021596002    -0.593825547468     1.340449858836     1.007825032070
           C         -2.224027097075    -0.917439144721    -0.334106117902    12.000000000000
           H         -2.088707456458    -0.762609842691    -1.407262435368     1.007825032070
           H         -2.755729322478    -1.862398752725    -0.223442857030     1.007825032070

  Nuclear repulsion =  390.474674156470769
  Reference energy  = -313.540738575674482

  ==> Basis Set <==

  Basis Set: AUG-CC-PVTZ
    Number of shells: 274
    Number of basis function: 782
    Number of Cartesian functions: 890
    Spherical Harmonics?: true
    Max angular momentum: 3

  ==> CGRSolver (by Rob Parrish) <==

   Number of roots    =         1
   Preconditioning    =    JACOBI
   Convergence cutoff =     1E-06
   Maximum iterations =       100

  ==> CPHFRHamiltonian (by Rob Parrish) <== 

  ==> DFJK: Density-Fitted J/K Matrices <==

    J tasked:                  Yes
    K tasked:                  Yes
    wK tasked:                  No
    OpenMP threads:             12
    Integrals threads:          12
    Memory (MB):             21457
    Algorithm:                Core
    Integral Cache:           NONE
    Schwarz Cutoff:          1E-12
    Fitting Condition:       1E-12

   => Auxiliary Basis Set <=

  Basis Set: 
    Number of shells: 492
    Number of basis function: 1660
    Number of Cartesian functions: 2038
    Spherical Harmonics?: true
    Max angular momentum: 4

  ==> CPHF Iterations <==

  => Iterations <=

             Iter  Converged  Remaining    Residual
  CGR           1          0          1   9.009E-02
  CGR           2          0          1   1.279E-02
  CGR           3          0          1   3.446E-03
  CGR           4          0          1   8.233E-04
  CGR           5          0          1   2.028E-04
  CGR           6          0          1   4.641E-05
  CGR           7          0          1   1.302E-05
  CGR           8          0          1   3.238E-06
  CGR           9          1          0   8.986E-07

    CGRSolver converged.

  ==> DFCorrGrad: Density-Fitted Correlated Gradients <==

    OpenMP threads:             12
    Integrals threads:          12
    Memory (MB):             21457
    Schwarz Cutoff:          0E+00
    Fitting Condition:       1E-12

   => Auxiliary Basis Set <=

  Basis Set: 
    Number of shells: 492
    Number of basis function: 1660
    Number of Cartesian functions: 2038
    Spherical Harmonics?: true
    Max angular momentum: 4

	-----------------------------------------------------------
	 ==================> DF-MP2 Energies <==================== 
	-----------------------------------------------------------
	 Reference Energy          =    -313.5407385756744816 [Eh]
	 Singles Energy            =      -0.0000000000000000 [Eh]
	 Same-Spin Energy          =      -0.3160650854496801 [Eh]
	 Opposite-Spin Energy      =      -1.1243353287170772 [Eh]
	 Correlation Energy        =      -1.4404004141667572 [Eh]
	 Total Energy              =    -314.9811389898412131 [Eh]
	-----------------------------------------------------------
	 ================> DF-SCS-MP2 Energies <================== 
	-----------------------------------------------------------
	 SCS Same-Spin Scale       =       0.3333333333333333 [-]
	 SCS Opposite-Spin Scale   =       1.2000000000000000 [-]
	 SCS Same-Spin Energy      =      -0.1053550284832267 [Eh]
	 SCS Opposite-Spin Energy  =      -1.3492023944604925 [Eh]
	 SCS Correlation Energy    =      -1.4545574229437193 [Eh]
	 SCS Total Energy          =    -314.9952959986181895 [Eh]
	-----------------------------------------------------------


  -Total Gradient:
     Atom            X                  Y                   Z
    ------   -----------------  -----------------  -----------------
       1       -0.001354324371     0.000023975180    -0.000788877952
       2       -0.000155202865    -0.000721101528    -0.001344889817
       3       -0.001181292326    -0.000584202092     0.000585223565
       4       -0.000692061196     0.001297153031    -0.000422393128
       5       -0.000198528971    -0.001655896594     0.000131752330
       6       -0.001374035631    -0.000414807760    -0.000817852639
       7        0.000733631859    -0.001027427859    -0.000439994741
       8       -0.000354403998    -0.000547830113     0.001402126138
       9        0.000199970482    -0.000835611246     0.002024662869
      10       -0.000192946933     0.000416169956     0.001462010429
      11        0.000247849626    -0.001399697229     0.000625449952
      12        0.001939498811     0.000203690932    -0.000933512111
      13        0.000571199293     0.000194634693    -0.001365487643
      14        0.001380995972     0.000070377837     0.000447990862
      15       -0.000285669358     0.001033279788    -0.001983819034
      16        0.000085056645    -0.000427968138    -0.001405029571
      17       -0.000479442452     0.001250352104    -0.000635788352
      18        0.000264735979    -0.000592850424     0.001956802891
      19       -0.000154445140     0.000385543749     0.001413826813
      20        0.000321502774    -0.001401837541     0.000501407824
      21       -0.000076441537     0.000953339762    -0.001686621387
      22       -0.000547774889     0.001283653525    -0.000351613791
      23        0.000164952204    -0.000183045227    -0.001544217868
      24        0.000315341433     0.001302662239     0.001553192575
      25        0.000026402414     0.000291306099     0.001525228089
      26        0.000795432178     0.001086136856     0.000090423697


			-----------------------------------------
			 OPTKING 2.0: for geometry optimizations 
			  - R.A. King,  Bethel University        
			-----------------------------------------

	Internal coordinates to be generated automatically.
	Detected frag 1 with atoms:  1 2 3 4 5 6 7 8 9 10 11 12 13 14 15 16 17 18 19 20
	 21 22 23 24 25 26
	---Fragment 1 Bond Connectivity---
	 1 : 2 3 4 9
	 2 : 1
	 3 : 1
	 4 : 1
	 5 : 6 7 8 12
	 6 : 5
	 7 : 5
	 8 : 5
	 9 : 1 10 11 15
	 10 : 9
	 11 : 9
	 12 : 5 13 14 24
	 13 : 12
	 14 : 12
	 15 : 9 16 17 18
	 16 : 15
	 17 : 15
	 18 : 15 19 20 21
	 19 : 18
	 20 : 18
	 21 : 18 22 23 24
	 22 : 21
	 23 : 21
	 24 : 12 21 25 26
	 25 : 24
	 26 : 24

	---Fragment 1 Geometry and Gradient---
	 C           7.5959049403        0.6284502960        0.5043919211
	 H           7.4128205534        1.6496029649        2.2805933297
	 H           9.0965943189        1.5143014066       -0.5851202458
	 H           8.1807400291       -1.2938311392        0.9450120754
	 C          -4.7098002353        2.9843903876        0.2084676267
	 H          -2.9729700618        3.1307995127        1.2976645923
	 H          -6.0058849859        4.4184300064        0.9090091487
	 H          -4.2674347271        3.4322087505       -1.7506035291
	 C           5.1089624871        0.6266411729       -0.9221471498
	 H           5.3354431534       -0.3618605280       -2.7174083183
	 H           4.5669821735        2.5620637544       -1.3827093992
	 C          -5.8603820647        0.3650290324        0.4243544251
	 H          -6.2508556005       -0.0432051932        2.4080934924
	 H          -7.6771487757        0.3387365163       -0.5476771549
	 C           2.9897562403       -0.6072959592        0.5611435094
	 H           2.7674174093        0.3681920530        2.3682430184
	 H           3.5143009056       -2.5541894000        1.0092952593
	 C           0.4854238819       -0.5986999382       -0.8284850774
	 H           0.7122586440       -1.5385117337       -2.6531188683
	 H          -0.0570000234        1.3454529987       -1.2428034975
	 C          -1.6090343595       -1.9160206571        0.6287494035
	 H          -1.0798551953       -3.8943082361        0.8636516329
	 H          -1.7159121392       -1.1221676554        2.5330831281
	 C          -4.2028021256       -1.7337087271       -0.6313690622
	 H          -3.9470850644       -1.4411237489       -2.6593405999
	 H          -5.2075737158       -3.5194235929       -0.4222458061
	            -0.0013543244        0.0000239752       -0.0007888780
	            -0.0001552029       -0.0007211015       -0.0013448898
	            -0.0011812923       -0.0005842021        0.0005852236
	            -0.0006920612        0.0012971530       -0.0004223931
	            -0.0001985290       -0.0016558966        0.0001317523
	            -0.0013740356       -0.0004148078       -0.0008178526
	             0.0007336319       -0.0010274279       -0.0004399947
	            -0.0003544040       -0.0005478301        0.0014021261
	             0.0001999705       -0.0008356112        0.0020246629
	            -0.0001929469        0.0004161700        0.0014620104
	             0.0002478496       -0.0013996972        0.0006254500
	             0.0019394988        0.0002036909       -0.0009335121
	             0.0005711993        0.0001946347       -0.0013654876
	             0.0013809960        0.0000703778        0.0004479909
	            -0.0002856694        0.0010332798       -0.0019838190
	             0.0000850566       -0.0004279681       -0.0014050296
	            -0.0004794425        0.0012503521       -0.0006357884
	             0.0002647360       -0.0005928504        0.0019568029
	            -0.0001544451        0.0003855437        0.0014138268
	             0.0003215028       -0.0014018375        0.0005014078
	            -0.0000764415        0.0009533398       -0.0016866214
	            -0.0005477749        0.0012836535       -0.0003516138
	             0.0001649522       -0.0001830452       -0.0015442179
	             0.0003153414        0.0013026622        0.0015531926
	             0.0000264024        0.0002913061        0.0015252281
	             0.0007954322        0.0010861369        0.0000904237

	Previous optimization step data not found.  Starting new optimization.

	---Fragment 1 Intrafragment Coordinates---
	 - Coordinate -           - BOHR/RAD -       - ANG/DEG -
	 R(1,2)           =         2.056979	       1.088507
	 R(1,3)           =         2.055198	       1.087564
	 R(1,4)           =         2.057023	       1.088530
	 R(1,9)           =         2.867037	       1.517171
	 R(5,6)           =         2.055326	       1.087632
	 R(5,7)           =         2.055982	       1.087979
	 R(5,8)           =         2.057714	       1.088896
	 R(5,12)          =         2.869059	       1.518241
	 R(9,10)          =         2.061890	       1.091105
	 R(9,11)          =         2.061970	       1.091148
	 R(9,15)          =         2.865971	       1.516606
	 R(12,13)         =         2.062606	       1.091484
	 R(12,14)         =         2.060626	       1.090436
	 R(12,24)         =         2.875208	       1.521495
	 R(15,16)         =         2.065580	       1.093058
	 R(15,17)         =         2.065522	       1.093027
	 R(15,18)         =         2.864057	       1.515594
	 R(18,19)         =         2.064943	       1.092721
	 R(18,20)         =         2.060489	       1.090364
	 R(18,21)         =         2.871519	       1.519542
	 R(21,22)         =         2.061269	       1.090777
	 R(21,23)         =         2.065941	       1.093249
	 R(21,24)         =         2.889423	       1.529017
	 R(24,25)         =         2.064865	       1.092679
	 R(24,26)         =         2.059630	       1.089909
	 B(1,9,10)        =         1.915850	     109.770126
	 B(1,9,11)        =         1.916165	     109.788160
	 B(1,9,15)        =         1.965097	     112.591767
	 B(2,1,3)         =         1.884704	     107.985572
	 B(2,1,4)         =         1.879954	     107.713443
	 B(2,1,9)         =         1.931310	     110.655895
	 B(3,1,4)         =         1.884673	     107.983805
	 B(3,1,9)         =         1.949684	     111.708688
	 B(4,1,9)         =         1.931154	     110.647001
	 B(5,12,13)       =         1.906025	     109.207183
	 B(5,12,14)       =         1.906810	     109.252154
	 B(5,12,24)       =         1.990608	     114.053429
	 B(6,5,7)         =         1.878065	     107.605210
	 B(6,5,8)         =         1.883220	     107.900579
	 B(6,5,12)        =         1.943404	     111.348834
	 B(7,5,8)         =         1.884019	     107.946319
	 B(7,5,12)        =         1.937290	     110.998556
	 B(8,5,12)        =         1.935359	     110.887928
	 B(9,15,16)       =         1.906095	     109.211172
	 B(9,15,17)       =         1.907450	     109.288829
	 B(9,15,18)       =         1.975948	     113.213460
	 B(10,9,11)       =         1.859163	     106.522206
	 B(10,9,15)       =         1.902269	     108.991991
	 B(11,9,15)       =         1.902196	     108.987793
	 B(12,24,21)      =         1.986071	     113.793478
	 B(12,24,25)      =         1.905603	     109.182994
	 B(12,24,26)      =         1.890558	     108.320999
	 B(13,12,14)      =         1.859017	     106.513852
	 B(13,12,24)      =         1.894215	     108.530499
	 B(14,12,24)      =         1.902615	     109.011819
	 B(15,18,19)      =         1.908490	     109.348409
	 B(15,18,20)      =         1.907714	     109.303981
	 B(15,18,21)      =         1.971619	     112.965436
	 B(16,15,17)      =         1.857356	     106.418662
	 B(16,15,18)      =         1.905980	     109.204581
	 B(17,15,18)      =         1.907266	     109.278310
	 B(18,21,22)      =         1.886900	     108.111380
	 B(18,21,23)      =         1.906290	     109.222377
	 B(18,21,24)      =         1.987220	     113.859320
	 B(19,18,20)      =         1.855290	     106.300291
	 B(19,18,21)      =         1.896265	     108.647978
	 B(20,18,21)      =         1.920781	     110.052627
	 B(21,24,25)      =         1.902964	     109.031779
	 B(21,24,26)      =         1.916584	     109.812168
	 B(22,21,23)      =         1.851492	     106.082652
	 B(22,21,24)      =         1.918470	     109.920240
	 B(23,21,24)      =         1.908493	     109.348574
	 B(25,24,26)      =         1.857704	     106.438606
	 D(1,9,15,16)     =         1.003300	      57.484876
	 D(1,9,15,17)     =        -1.022065	     -58.560019
	 D(1,9,15,18)     =         3.130895	     179.387042
	 D(2,1,9,10)      =         3.116912	     178.585895
	 D(2,1,9,11)      =         1.078808	      61.811158
	 D(2,1,9,15)      =        -1.043798	     -59.805192
	 D(3,1,9,10)      =         1.016421	      58.236634
	 D(3,1,9,11)      =        -1.021683	     -58.538103
	 D(3,1,9,15)      =         3.138897	     179.845546
	 D(4,1,9,10)      =        -1.083925	     -62.104322
	 D(4,1,9,11)      =        -3.122029	    -178.879059
	 D(4,1,9,15)      =         1.038551	      59.504590
	 D(5,12,24,21)    =         1.024609	      58.705782
	 D(5,12,24,25)    =        -1.105651	     -63.349125
	 D(5,12,24,26)    =        -3.121852	    -178.868949
	 D(6,5,12,13)     =         1.026594	      58.819496
	 D(6,5,12,14)     =         3.053553	     174.955675
	 D(6,5,12,24)     =        -1.095793	     -62.784306
	 D(7,5,12,13)     =        -1.065341	     -61.039558
	 D(7,5,12,14)     =         0.961617	      55.096621
	 D(7,5,12,24)     =         3.095457	     177.356639
	 D(8,5,12,13)     =         3.123749	     178.977618
	 D(8,5,12,14)     =        -1.132478	     -64.886203
	 D(8,5,12,24)     =         1.001362	      57.373815
	 D(9,15,18,19)    =         0.993588	      56.928408
	 D(9,15,18,20)    =        -1.030792	     -59.060009
	 D(9,15,18,21)    =         3.107572	     178.050776
	 D(10,9,15,16)    =         3.133473	     179.534778
	 D(10,9,15,17)    =         1.108108	      63.489883
	 D(10,9,15,18)    =        -1.022118	     -58.563056
	 D(11,9,15,16)    =        -1.127221	     -64.584996
	 D(11,9,15,17)    =         3.130599	     179.370109
	 D(11,9,15,18)    =         1.000373	      57.317169
	 D(12,24,21,18)   =        -1.701162	     -97.469426
	 D(12,24,21,22)   =         2.462233	     141.075538
	 D(12,24,21,23)   =         0.436344	      25.000660
	 D(13,12,24,21)   =        -1.104290	     -63.271164
	 D(13,12,24,25)   =         3.048635	     174.673930
	 D(13,12,24,26)   =         1.032434	      59.154106
	 D(14,12,24,21)   =        -3.122437	    -178.902448
	 D(14,12,24,25)   =         1.030489	      59.042646
	 D(14,12,24,26)   =        -0.985713	     -56.477178
	 D(15,18,21,22)   =        -1.091011	     -62.510352
	 D(15,18,21,23)   =         0.916224	      52.495766
	 D(15,18,21,24)   =         3.054940	     175.035153
	 D(16,15,18,19)   =         3.121247	     178.834262
	 D(16,15,18,20)   =         1.096867	      62.845846
	 D(16,15,18,21)   =        -1.047954	     -60.043369
	 D(17,15,18,19)   =        -1.136740	     -65.130409
	 D(17,15,18,20)   =         3.122065	     178.881175
	 D(17,15,18,21)   =         0.977244	      55.991960
	 D(18,21,24,25)   =         0.430555	      24.669001
	 D(18,21,24,26)   =         2.459688	     140.929715
	 D(19,18,21,22)   =         1.029890	      59.008328
	 D(19,18,21,23)   =         3.037125	     174.014446
	 D(19,18,21,24)   =        -1.107345	     -63.446168
	 D(20,18,21,22)   =         3.054637	     175.017789
	 D(20,18,21,23)   =        -1.221313	     -69.976094
	 D(20,18,21,24)   =         0.917403	      52.563293
	 D(22,21,24,25)   =        -1.689235	     -96.786035
	 D(22,21,24,26)   =         0.339897	      19.474679
	 D(23,21,24,25)   =         2.568062	     147.139086
	 D(23,21,24,26)   =        -1.685992	     -96.600199
	 R(5,18)          =         6.395636	       3.384425

	Current energy   :      -314.9811389898

	Generating empirical Hessian (Schlegel '84) for each fragment.
	Taking RFO optimization step.
	Going to follow RFO solution 1.
	Using RFO vector 1.
	Norm of target step-size    0.13691
	Projected energy change by RFO approximation:        -0.0009979972

	Back-transformation to cartesian coordinates...
	Could not converge backtransformation.
	Using first guess instead.

	--- Internal Coordinate Step in ANG or DEG, aJ/ANG or AJ/DEG ---
	 ---------------------------------------------------------------------------
	   Coordinate                Previous        Force       Change         New 
	   ----------                --------       ------       ------       ------
	    1 R(1,2)          =      1.088507     0.012403     0.003052     1.091558
	    2 R(1,3)          =      1.087564     0.011737     0.002369     1.089933
	    3 R(1,4)          =      1.088530     0.012353     0.002992     1.091522
	    4 R(1,9)          =      1.517171     0.032255     0.007098     1.524268
	    5 R(5,6)          =      1.087632     0.013380     0.002998     1.090630
	    6 R(5,7)          =      1.087979     0.010949     0.002016     1.089995
	    7 R(5,8)          =      1.088896     0.012608     0.002838     1.091733
	    8 R(5,12)         =      1.518241     0.030152     0.007346     1.525587
	    9 R(9,10)         =      1.091105     0.012306     0.003063     1.094168
	   10 R(9,11)         =      1.091148     0.012512     0.002978     1.094125
	   11 R(9,15)         =      1.516606     0.034582     0.007490     1.524096
	   12 R(12,13)        =      1.091484     0.012028     0.002725     1.094209
	   13 R(12,14)        =      1.090436     0.011780     0.002589     1.093025
	   14 R(12,24)        =      1.521495     0.029206     0.007547     1.529042
	   15 R(15,16)        =      1.093058     0.011868     0.002889     1.095946
	   16 R(15,17)        =      1.093027     0.011849     0.002761     1.095788
	   17 R(15,18)        =      1.515594     0.034964     0.007551     1.523145
	   18 R(18,19)        =      1.092721     0.011878     0.002765     1.095486
	   19 R(18,20)        =      1.090364     0.012425     0.002757     1.093121
	   20 R(18,21)        =      1.519542     0.031150     0.007305     1.526847
	   21 R(21,22)        =      1.090777     0.011639     0.002337     1.093114
	   22 R(21,23)        =      1.093249     0.012377     0.002537     1.095786
	   23 R(21,24)        =      1.529017     0.028811     0.007259     1.536276
	   24 R(24,25)        =      1.092679     0.011974     0.002423     1.095102
	   25 R(24,26)        =      1.089909     0.010880     0.002125     1.092034
	   26 B(1,9,10)       =    109.770126     0.000000     0.006105   109.776231
	   27 B(1,9,11)       =    109.788160    -0.000001    -0.012501   109.775659
	   28 B(1,9,15)       =    112.591767    -0.000008    -0.020548   112.571219
	   29 B(2,1,3)        =    107.985572    -0.000021    -0.100575   107.884997
	   30 B(2,1,4)        =    107.713443    -0.000022    -0.078911   107.634532
	   31 B(2,1,9)        =    110.655895     0.000023     0.123445   110.779340
	   32 B(3,1,4)        =    107.983805    -0.000021    -0.097726   107.886079
	   33 B(3,1,9)        =    111.708688     0.000013     0.010642   111.719330
	   34 B(4,1,9)        =    110.647001     0.000025     0.129253   110.776255
	   35 B(5,12,13)      =    109.207183     0.000019     0.030185   109.237368
	   36 B(5,12,14)      =    109.252154     0.000028    -0.059330   109.192824
	   37 B(5,12,24)      =    114.053429    -0.000080     0.155310   114.208738
	   38 B(6,5,7)        =    107.605210    -0.000019    -0.118556   107.486653
	   39 B(6,5,8)        =    107.900579    -0.000018    -0.039928   107.860651
	   40 B(6,5,12)       =    111.348834     0.000027     0.150876   111.499710
	   41 B(7,5,8)        =    107.946319    -0.000014    -0.095409   107.850910
	   42 B(7,5,12)       =    110.998556     0.000005     0.000908   110.999464
	   43 B(8,5,12)       =    110.887928     0.000017     0.087677   110.975605
	   44 B(9,15,16)      =    109.211172     0.000000     0.015507   109.226680
	   45 B(9,15,17)      =    109.288829    -0.000005     0.000994   109.289823
	   46 B(9,15,18)      =    113.213460     0.000007     0.039351   113.252811
	   47 B(10,9,11)      =    106.522206    -0.000014    -0.179461   106.342746
	   48 B(10,9,15)      =    108.991991     0.000011     0.104364   109.096355
	   49 B(11,9,15)      =    108.987793     0.000011     0.094102   109.081895
	   50 B(12,24,21)     =    113.793478    -0.000074     0.183937   113.977414
	   51 B(12,24,25)     =    109.182994     0.000016     0.124547   109.307541
	   52 B(12,24,26)     =    108.320999     0.000031    -0.145796   108.175203
	   53 B(13,12,14)     =    106.513852    -0.000023    -0.177724   106.336128
	   54 B(13,12,24)     =    108.530499     0.000033     0.092201   108.622700
	   55 B(14,12,24)     =    109.011819     0.000026    -0.063772   108.948048
	   56 B(15,18,19)     =    109.348409    -0.000006    -0.016443   109.331966
	   57 B(15,18,20)     =    109.303981     0.000000     0.016211   109.320192
	   58 B(15,18,21)     =    112.965436     0.000007     0.034338   112.999774
	   59 B(16,15,17)     =    106.418662    -0.000012    -0.195603   106.223059
	   60 B(16,15,18)     =    109.204581    -0.000000     0.025621   109.230203
	   61 B(17,15,18)     =    109.278310     0.000008     0.098561   109.376871
	   62 B(18,21,22)     =    108.111380     0.000018    -0.106589   108.004791
	   63 B(18,21,23)     =    109.222377     0.000008     0.121684   109.344061
	   64 B(18,21,24)     =    113.859320    -0.000033     0.165031   114.024351
	   65 B(19,18,20)     =    106.300291    -0.000009    -0.154440   106.145852
	   66 B(19,18,21)     =    108.647978     0.000007     0.076442   108.724420
	   67 B(20,18,21)     =    110.052627     0.000000     0.031767   110.084394
	   68 B(21,24,25)     =    109.031779     0.000026     0.134960   109.166739
	   69 B(21,24,26)     =    109.812168     0.000030    -0.070824   109.741344
	   70 B(22,21,23)     =    106.082652    -0.000017    -0.204580   105.878072
	   71 B(22,21,24)     =    109.920240     0.000017    -0.012907   109.907333
	   72 B(23,21,24)     =    109.348574     0.000008     0.009806   109.358381
	   73 B(25,24,26)     =    106.438606    -0.000027    -0.259389   106.179217
	   74 D(1,9,15,16)    =     57.484876    -0.000002     0.068500    57.553375
	   75 D(1,9,15,17)    =    -58.560019     0.000002     0.293488   -58.266531
	   76 D(1,9,15,18)    =    179.387042    -0.000000     0.139266   179.526307
	   77 D(2,1,9,10)     =    178.585895    -0.000002    -0.088940   178.496955
	   78 D(2,1,9,11)     =     61.811158     0.000002     0.132306    61.943464
	   79 D(2,1,9,15)     =    -59.805192    -0.000000     0.034850   -59.770343
	   80 D(3,1,9,10)     =     58.236634    -0.000002    -0.052776    58.183858
	   81 D(3,1,9,11)     =    -58.538103     0.000002     0.168471   -58.369633
	   82 D(3,1,9,15)     =    179.845546     0.000000     0.071014   179.916560
	   83 D(4,1,9,10)     =    -62.104322    -0.000001    -0.024183   -62.128505
	   84 D(4,1,9,11)     =   -178.879059     0.000002     0.197063  -178.681996
	   85 D(4,1,9,15)     =     59.504590     0.000001     0.099607    59.604197
	   86 D(5,12,24,21)   =     58.705782    -0.000002     1.365131    60.070913
	   87 D(5,12,24,25)   =    -63.349125    -0.000001     0.970462   -62.378663
	   88 D(5,12,24,26)   =   -178.868949     0.000001     1.290781  -177.578168
	   89 D(6,5,12,13)    =     58.819496    -0.000000     0.182218    59.001715
	   90 D(6,5,12,14)    =    174.955675    -0.000001    -0.046815   174.908860
	   91 D(6,5,12,24)    =    -62.784306    -0.000001    -0.066111   -62.850417
	   92 D(7,5,12,13)    =    -61.039558     0.000000     0.230837   -60.808721
	   93 D(7,5,12,14)    =     55.096621    -0.000000     0.001803    55.098424
	   94 D(7,5,12,24)    =    177.356639    -0.000000    -0.017493   177.339147
	   95 D(8,5,12,13)    =    178.977618     0.000001     0.292240   179.269857
	   96 D(8,5,12,14)    =    -64.886203     0.000001     0.063206   -64.822998
	   97 D(8,5,12,24)    =     57.373815     0.000001     0.043910    57.417725
	   98 D(9,15,18,19)   =     56.928408    -0.000002     0.143745    57.072152
	   99 D(9,15,18,20)   =    -59.060009     0.000002     0.328985   -58.731023
	  100 D(9,15,18,21)   =    178.050776     0.000000     0.252431   178.303208
	  101 D(10,9,15,16)   =    179.534778    -0.000001     0.136351   179.671129
	  102 D(10,9,15,17)   =     63.489883     0.000003     0.361339    63.851222
	  103 D(10,9,15,18)   =    -58.563056     0.000000     0.207117   -58.355939
	  104 D(11,9,15,16)   =    -64.584996    -0.000002     0.031585   -64.553412
	  105 D(11,9,15,17)   =    179.370109     0.000002     0.256573   179.626682
	  106 D(11,9,15,18)   =     57.317169    -0.000001     0.102351    57.419520
	  107 D(12,24,21,18)  =    -97.469426     0.000007     1.654330   -95.815096
	  108 D(12,24,21,22)  =    141.075538     0.000004     1.687260   142.762799
	  109 D(12,24,21,23)  =     25.000660     0.000005     1.935523    26.936183
	  110 D(13,12,24,21)  =    -63.271164    -0.000001     1.152850   -62.118314
	  111 D(13,12,24,25)  =    174.673930     0.000000     0.758180   175.432110
	  112 D(13,12,24,26)  =     59.154106     0.000002     1.078500    60.232605
	  113 D(14,12,24,21)  =   -178.902448    -0.000002     1.347900  -177.554548
	  114 D(14,12,24,25)  =     59.042646    -0.000001     0.953230    59.995876
	  115 D(14,12,24,26)  =    -56.477178     0.000001     1.273550   -55.203629
	  116 D(15,18,21,22)  =    -62.510352     0.000003     1.009718   -61.500634
	  117 D(15,18,21,23)  =     52.495766     0.000001     0.774374    53.270141
	  118 D(15,18,21,24)  =    175.035153    -0.000000     0.994084   176.029237
	  119 D(16,15,18,19)  =    178.834262    -0.000000     0.208854   179.043116
	  120 D(16,15,18,20)  =     62.845846     0.000003     0.394095    63.239940
	  121 D(16,15,18,21)  =    -60.043369     0.000002     0.317541   -59.725829
	  122 D(17,15,18,19)  =    -65.130409    -0.000003     0.043930   -65.086480
	  123 D(17,15,18,20)  =    178.881175     0.000001     0.229170   179.110345
	  124 D(17,15,18,21)  =     55.991960    -0.000001     0.152616    56.144576
	  125 D(18,21,24,25)  =     24.669001     0.000004     2.042641    26.711642
	  126 D(18,21,24,26)  =    140.929715     0.000004     1.767984   142.697699
	  127 D(19,18,21,22)  =     59.008328     0.000003     1.065324    60.073652
	  128 D(19,18,21,23)  =    174.014446     0.000001     0.829981   174.844427
	  129 D(19,18,21,24)  =    -63.446168     0.000000     1.049690   -62.396477
	  130 D(20,18,21,22)  =    175.017789     0.000001     0.941213   175.959001
	  131 D(20,18,21,23)  =    -69.976094    -0.000000     0.705869   -69.270224
	  132 D(20,18,21,24)  =     52.563293    -0.000002     0.925578    53.488872
	  133 D(22,21,24,25)  =    -96.786035     0.000002     2.075571   -94.710464
	  134 D(22,21,24,26)  =     19.474679     0.000002     1.800914    21.275593
	  135 D(23,21,24,25)  =    147.139086     0.000003     2.323834   149.462921
	  136 D(23,21,24,26)  =    -96.600199     0.000003     2.049177   -94.551022
	  137 R(5,18)         =      3.384425     0.007987     0.008384     3.392809
	 ---------------------------------------------------------------------------

  ==> Convergence Check <==

  Measures of convergence in internal coordinates in au.
  Criteria marked as inactive (o), active & met (*), and active & unmet ( ).
  --------------------------------------------------------------------------------------------- ~
   Step     Total Energy     Delta E     MAX Force     RMS Force      MAX Disp      RMS Disp    ~
  --------------------------------------------------------------------------------------------- ~
    Convergence Criteria             o    2.00e-06 *    1.00e-06 *    6.00e-06 *    4.00e-06 *  ~
  --------------------------------------------------------------------------------------------- ~
      1    -314.98113899   -3.15e+02 o    4.24e-03      1.04e-03      4.06e-02      1.17e-02    ~
  ---------------------------------------------------------------------------------------------

	Writing optimization data to binary file.
	Structure for next step:
	Cartesian Geometry (in Angstrom)
	    C     4.0440484655   0.3214649172   0.2662826728
	    H     3.9599063227   0.8296358892   1.2286660958
	    H     4.8345073477   0.8107993578  -0.3026466701
	    H     4.3578335431  -0.7056823814   0.4610315222
	    C    -2.5149481047   1.5914043379   0.0694209151
	    H    -1.5823897482   1.6938021885   0.6255886217
	    H    -3.2009037014   2.3546749694   0.4368052249
	    H    -2.3045373675   1.8076067282  -0.9798005919
	    C     2.7139615219   0.3486464336  -0.4777088078
	    H     2.8236016179  -0.1409214649  -1.4500802040
	    H     2.4267712210   1.3838817581  -0.6848789597
	    C    -3.1118112284   0.1967008709   0.2305758589
	    H    -3.2990498684   0.0050590383   1.2914757617
	    H    -4.0857398717   0.1632439090  -0.2644467001
	    C     1.5944797981  -0.3328310875   0.3002484313
	    H     1.4867412904   0.1521733560   1.2771116671
	    H     1.8758009779  -1.3721412725   0.5038262734
	    C     0.2550364225  -0.3045166163  -0.4243622259
	    H     0.3649435599  -0.7737231159  -1.4081585390
	    H    -0.0322964714   0.7331789310  -0.6128858904
	    C    -0.8526643060  -1.0245050018   0.3410647890
	    H    -0.5632558084  -2.0732340443   0.4474012146
	    H    -0.9092480722  -0.6243589386   1.3596069234
	    C    -2.2353514139  -0.9280147710  -0.3215137759
	    H    -2.1082063655  -0.7914880667  -1.4006073472
	    H    -2.7715234585  -1.8709355914  -0.1951852418
			--------------------------
			 OPTKING Finished Execution 
			--------------------------

    Structure for next step:
    Molecular point group: c1
    Full point group: C1

    Geometry (in Angstrom), charge = 0, multiplicity = 1:

    C            4.044084123893     0.321341069398     0.265025263211
    H            3.959941981045     0.829512041380     1.227408686160
    H            4.834543006046     0.810675510000    -0.303904079741
    H            4.357869201519    -0.705806229203     0.459774112618
    C           -2.514912446291     1.591280490097     0.068163505491
    H           -1.582354089838     1.693678340749     0.624331212063
    H           -3.200868043046     2.354551121655     0.435547815312
    H           -2.304501709092     1.807482880397    -0.981058001507
    C            2.713997180307     0.348522585833    -0.478966217444
    H            2.823637276279    -0.141045312645    -1.451337613644
    H            2.426806879348     1.383757910294    -0.686136369316
    C           -3.111775570023     0.196577023145     0.229318449249
    H           -3.299014210050     0.004935190487     1.290218352041
    H           -4.085704213279     0.163120061190    -0.265704109766
    C            1.594515456462    -0.332954935325     0.298991021710
    H            1.486776948756     0.152049508240     1.275854257483
    H            1.875836636326    -1.372265120310     0.502568863751
    C            0.255072080835    -0.304640464079    -0.425619635491
    H            0.364979218294    -0.773846963705    -1.409415948658
    H           -0.032260813041     0.733055083256    -0.614143299989
    C           -0.852628647653    -1.024628849563     0.339807379406
    H           -0.563220150039    -2.073357892086     0.446143805031
    H           -0.909212413780    -0.624482786392     1.358349513785
    C           -2.235315755493    -0.928138618791    -0.322771185497
    H           -2.108170707111    -0.791611914441    -1.401864756844
    H           -2.771487800130    -1.871059439159    -0.196442651438

gradient() will perform analytic gradient computation.

*** tstart() called on wr28
*** at Tue Sep 20 16:50:30 2016


         ---------------------------------------------------------
                                   SCF
            by Justin Turney, Rob Parrish, and Andy Simmonett
                              RHF Reference
                       12 Threads,  30000 MiB Core
         ---------------------------------------------------------

  ==> Geometry <==

    Molecular point group: c1
    Full point group: C1

    Geometry (in Angstrom), charge = 0, multiplicity = 1:

       Center              X                  Y                   Z               Mass       
    ------------   -----------------  -----------------  -----------------  -----------------
           C          4.044084123893     0.321341069398     0.265025263211    12.000000000000
           H          3.959941981045     0.829512041380     1.227408686160     1.007825032070
           H          4.834543006046     0.810675510000    -0.303904079741     1.007825032070
           H          4.357869201519    -0.705806229203     0.459774112618     1.007825032070
           C         -2.514912446291     1.591280490097     0.068163505491    12.000000000000
           H         -1.582354089838     1.693678340749     0.624331212063     1.007825032070
           H         -3.200868043046     2.354551121655     0.435547815312     1.007825032070
           H         -2.304501709092     1.807482880397    -0.981058001507     1.007825032070
           C          2.713997180307     0.348522585833    -0.478966217444    12.000000000000
           H          2.823637276279    -0.141045312645    -1.451337613644     1.007825032070
           H          2.426806879348     1.383757910294    -0.686136369316     1.007825032070
           C         -3.111775570023     0.196577023145     0.229318449249    12.000000000000
           H         -3.299014210050     0.004935190487     1.290218352041     1.007825032070
           H         -4.085704213279     0.163120061190    -0.265704109766     1.007825032070
           C          1.594515456462    -0.332954935325     0.298991021710    12.000000000000
           H          1.486776948756     0.152049508240     1.275854257483     1.007825032070
           H          1.875836636326    -1.372265120310     0.502568863751     1.007825032070
           C          0.255072080835    -0.304640464079    -0.425619635491    12.000000000000
           H          0.364979218294    -0.773846963705    -1.409415948658     1.007825032070
           H         -0.032260813041     0.733055083256    -0.614143299989     1.007825032070
           C         -0.852628647653    -1.024628849563     0.339807379406    12.000000000000
           H         -0.563220150039    -2.073357892086     0.446143805031     1.007825032070
           H         -0.909212413780    -0.624482786392     1.358349513785     1.007825032070
           C         -2.235315755493    -0.928138618791    -0.322771185497    12.000000000000
           H         -2.108170707111    -0.791611914441    -1.401864756844     1.007825032070
           H         -2.771487800130    -1.871059439159    -0.196442651438     1.007825032070

  Running in c1 symmetry.

  Rotational constants: A =      0.14957  B =      0.02276  C =      0.02105 [cm^-1]
  Rotational constants: A =   4484.01502  B =    682.28780  C =    630.96648 [MHz]
  Nuclear repulsion =  388.633789673843012

  Charge       = 0
  Multiplicity = 1
  Electrons    = 66
  Nalpha       = 33
  Nbeta        = 33

  ==> Algorithm <==

  SCF Algorithm Type is DF.
  DIIS enabled.
  MOM disabled.
  Fractional occupation disabled.
  Guess Type is READ.
  Energy threshold   = 1.00e-10
  Density threshold  = 1.00e-10
  Integral threshold = 0.00e+00

  ==> Primary Basis <==

  Basis Set: AUG-CC-PVTZ
    Number of shells: 274
    Number of basis function: 782
    Number of Cartesian functions: 890
    Spherical Harmonics?: true
    Max angular momentum: 3

  ==> Pre-Iterations <==

   -------------------------------------------------------
    Irrep   Nso     Nmo     Nalpha   Nbeta   Ndocc  Nsocc
   -------------------------------------------------------
     A        782     782       0       0       0       0
   -------------------------------------------------------
    Total     782     782      33      33      33       0
   -------------------------------------------------------

  ==> Integral Setup <==

  ==> DFJK: Density-Fitted J/K Matrices <==

    J tasked:                  Yes
    K tasked:                  Yes
    wK tasked:                  No
    OpenMP threads:             12
    Integrals threads:          12
    Memory (MB):             21457
    Algorithm:                Core
    Integral Cache:           NONE
    Schwarz Cutoff:          1E-12
    Fitting Condition:       1E-12

   => Auxiliary Basis Set <=

  Basis Set: 
    Number of shells: 492
    Number of basis function: 1660
    Number of Cartesian functions: 2038
    Spherical Harmonics?: true
    Max angular momentum: 4

  Minimum eigenvalue in the overlap matrix is 2.1858417361E-06.
  Using Symmetric Orthogonalization.
  SCF Guess: Reading in previously saved MOs, projecting if necessary.

  Using orbitals from previous SCF, no projection.
  Recomputing DOCC and SOCC from number of alpha and beta electrons from previous calculation.
              A 
    DOCC [    33 ]

  ==> Iterations <==

                           Total Energy        Delta E     RMS |[F,P]|

   @DF-RHF iter   0:  -313.47660605973635   -3.13477e+02   1.16475e-04 
   @DF-RHF iter   1:  -313.54037999058801   -6.37739e-02   2.93038e-05 
   @DF-RHF iter   2:  -313.54082036516490   -4.40375e-04   1.31208e-05 DIIS
   @DF-RHF iter   3:  -313.54089262683362   -7.22617e-05   4.55679e-06 DIIS
   @DF-RHF iter   4:  -313.54090835387706   -1.57270e-05   5.49992e-07 DIIS
   @DF-RHF iter   5:  -313.54090857345693   -2.19580e-07   2.01111e-07 DIIS
   @DF-RHF iter   6:  -313.54090859319558   -1.97386e-08   4.09903e-08 DIIS
   @DF-RHF iter   7:  -313.54090859436315   -1.16756e-09   9.31008e-09 DIIS
   @DF-RHF iter   8:  -313.54090859441396   -5.08180e-11   2.86421e-09 DIIS
   @DF-RHF iter   9:  -313.54090859441771   -3.75167e-12   6.70408e-10 DIIS
   @DF-RHF iter  10:  -313.54090859441840   -6.82121e-13   1.75873e-10 DIIS
   @DF-RHF iter  11:  -313.54090859441919   -7.95808e-13   4.15336e-11 DIIS

  ==> Post-Iterations <==

    Orbital Energies (a.u.)
    -----------------------

    Doubly Occupied:                                                      

       1A    -11.213675     2A    -11.212775     3A    -11.210975  
       4A    -11.210351     5A    -11.210095     6A    -11.208832  
       7A    -11.207434     8A    -11.207300     9A     -1.092326  
      10A     -1.060866    11A     -1.008540    12A     -0.948901  
      13A     -0.885034    14A     -0.818309    15A     -0.784860  
      16A     -0.770163    17A     -0.653703    18A     -0.621299  
      19A     -0.613421    20A     -0.591788    21A     -0.573207  
      22A     -0.562132    23A     -0.538792    24A     -0.525819  
      25A     -0.523115    26A     -0.494307    27A     -0.486699  
      28A     -0.481221    29A     -0.463821    30A     -0.460231  
      31A     -0.454667    32A     -0.441420    33A     -0.428276  

    Virtual:                                                              

      34A      0.030047    35A      0.031814    36A      0.034920  
      37A      0.035113    38A      0.045166    39A      0.046957  
      40A      0.048673    41A      0.054007    42A      0.058684  
      43A      0.065334    44A      0.067221    45A      0.069549  
      46A      0.072574    47A      0.084742    48A      0.092141  
      49A      0.093067    50A      0.095952    51A      0.102076  
      52A      0.112613    53A      0.114352    54A      0.118075  
      55A      0.121584    56A      0.124475    57A      0.126531  
      58A      0.130969    59A      0.135336    60A      0.141213  
      61A      0.143302    62A      0.151474    63A      0.153903  
      64A      0.158778    65A      0.160410    66A      0.161341  
      67A      0.163160    68A      0.169303    69A      0.170438  
      70A      0.174532    71A      0.178422    72A      0.186298  
      73A      0.187476    74A      0.194695    75A      0.206231  
      76A      0.211438    77A      0.218039    78A      0.225945  
      79A      0.228160    80A      0.234438    81A      0.243763  
      82A      0.251181    83A      0.253756    84A      0.254595  
      85A      0.260557    86A      0.268787    87A      0.272136  
      88A      0.274768    89A      0.281770    90A      0.284019  
      91A      0.293026    92A      0.300104    93A      0.301594  
      94A      0.313378    95A      0.314067    96A      0.318956  
      97A      0.324979    98A      0.327985    99A      0.329233  
     100A      0.335425   101A      0.338820   102A      0.343675  
     103A      0.344069   104A      0.347810   105A      0.351163  
     106A      0.359494   107A      0.365030   108A      0.367138  
     109A      0.371635   110A      0.375424   111A      0.376962  
     112A      0.381506   113A      0.385354   114A      0.387592  
     115A      0.388765   116A      0.397693   117A      0.399176  
     118A      0.403733   119A      0.404711   120A      0.410759  
     121A      0.412521   122A      0.419402   123A      0.420782  
     124A      0.425040   125A      0.428626   126A      0.431403  
     127A      0.434934   128A      0.437644   129A      0.443278  
     130A      0.446784   131A      0.448177   132A      0.456457  
     133A      0.461277   134A      0.463548   135A      0.468178  
     136A      0.472313   137A      0.473379   138A      0.475935  
     139A      0.480546   140A      0.483712   141A      0.486376  
     142A      0.490339   143A      0.494462   144A      0.496687  
     145A      0.504365   146A      0.507209   147A      0.509096  
     148A      0.516338   149A      0.522305   150A      0.525686  
     151A      0.530336   152A      0.533219   153A      0.536809  
     154A      0.538235   155A      0.541285   156A      0.544181  
     157A      0.549948   158A      0.558376   159A      0.559101  
     160A      0.559541   161A      0.565420   162A      0.573129  
     163A      0.577024   164A      0.580145   165A      0.584737  
     166A      0.588508   167A      0.591079   168A      0.601648  
     169A      0.606029   170A      0.609780   171A      0.616356  
     172A      0.618861   173A      0.621599   174A      0.630211  
     175A      0.635059   176A      0.638359   177A      0.645164  
     178A      0.653520   179A      0.656546   180A      0.659819  
     181A      0.668906   182A      0.671851   183A      0.676470  
     184A      0.683199   185A      0.686973   186A      0.693050  
     187A      0.695552   188A      0.702637   189A      0.707285  
     190A      0.715349   191A      0.721999   192A      0.729267  
     193A      0.734596   194A      0.737543   195A      0.748744  
     196A      0.756955   197A      0.764456   198A      0.774931  
     199A      0.787069   200A      0.796803   201A      0.803255  
     202A      0.811189   203A      0.820509   204A      0.823463  
     205A      0.827587   206A      0.840377   207A      0.842207  
     208A      0.846875   209A      0.854168   210A      0.860029  
     211A      0.864196   212A      0.867274   213A      0.873887  
     214A      0.877525   215A      0.885593   216A      0.892146  
     217A      0.897478   218A      0.897723   219A      0.903758  
     220A      0.908485   221A      0.912331   222A      0.920140  
     223A      0.922692   224A      0.926653   225A      0.929482  
     226A      0.932153   227A      0.936773   228A      0.942130  
     229A      0.944302   230A      0.953831   231A      0.955120  
     232A      0.961524   233A      0.966946   234A      0.969474  
     235A      0.972768   236A      0.983297   237A      0.984856  
     238A      0.988561   239A      0.997071   240A      1.003426  
     241A      1.014103   242A      1.020216   243A      1.020979  
     244A      1.026556   245A      1.034288   246A      1.035536  
     247A      1.039887   248A      1.043984   249A      1.048929  
     250A      1.049335   251A      1.057843   252A      1.060605  
     253A      1.064847   254A      1.071737   255A      1.083705  
     256A      1.090079   257A      1.095668   258A      1.100752  
     259A      1.105970   260A      1.115691   261A      1.123625  
     262A      1.124130   263A      1.128155   264A      1.134132  
     265A      1.140856   266A      1.144408   267A      1.150448  
     268A      1.155591   269A      1.157840   270A      1.164242  
     271A      1.169717   272A      1.178495   273A      1.182914  
[...]
	 D(20,18,21,24)   =         0.944416	      54.111039
	 D(22,21,24,25)   =        -1.659521	     -95.083539
	 D(22,21,24,26)   =         0.366057	      20.973533
	 D(23,21,24,25)   =         2.600394	     148.991611
	 D(23,21,24,26)   =        -1.657213	     -94.951317
	 R(5,18)          =         6.425788	       3.400381

	Current energy   :      -314.9813994284

	Energy change for the previous step:
		Projected    :        -0.0000000001
		Actual       :        -0.0000000059

	Performing BFGS update.
	Previous computed or guess Hessian on step 1.
	Denominators (dg)(dq) or (dq)(dq) are very small.
	 Skipping Hessian update for step 15.
	Denominators (dg)(dq) or (dq)(dq) are very small.
	 Skipping Hessian update for step 14.
	Denominators (dg)(dq) or (dq)(dq) are very small.
	 Skipping Hessian update for step 13.
	Denominators (dg)(dq) or (dq)(dq) are very small.
	 Skipping Hessian update for step 12.
	Denominators (dg)(dq) or (dq)(dq) are very small.
	 Skipping Hessian update for step 11.
	Denominators (dg)(dq) or (dq)(dq) are very small.
	 Skipping Hessian update for step 10.
	Denominators (dg)(dq) or (dq)(dq) are very small.
	 Skipping Hessian update for step 9.
	Denominators (dg)(dq) or (dq)(dq) are very small.
	 Skipping Hessian update for step 8.
	Denominators (dg)(dq) or (dq)(dq) are very small.
	 Skipping Hessian update for step 7.
	Denominators (dg)(dq) or (dq)(dq) are very small.
	 Skipping Hessian update for step 6.
	Denominators (dg)(dq) or (dq)(dq) are very small.
	 Skipping Hessian update for step 5.
	Steps to be used in Hessian update: 4 3
	Taking RFO optimization step.
	Going to follow RFO solution 1.
	Using RFO vector 1.
	Norm of target step-size    0.00002
	Projected energy change by RFO approximation:        -0.0000000000

	Back-transformation to cartesian coordinates...
	Successfully converged to displaced geometry.

	--- Internal Coordinate Step in ANG or DEG, aJ/ANG or AJ/DEG ---
	 ---------------------------------------------------------------------------
	   Coordinate                Previous        Force       Change         New 
	   ----------                --------       ------       ------       ------
	    1 R(1,2)          =      1.090702    -0.000007    -0.000001     1.090700
	    2 R(1,3)          =      1.089717    -0.000005    -0.000001     1.089716
	    3 R(1,4)          =      1.090699    -0.000006    -0.000001     1.090698
	    4 R(1,9)          =      1.523679    -0.000001    -0.000000     1.523678
	    5 R(5,6)          =      1.089975    -0.000005    -0.000001     1.089974
	    6 R(5,7)          =      1.089974    -0.000003    -0.000001     1.089974
	    7 R(5,8)          =      1.091110    -0.000005    -0.000001     1.091110
	    8 R(5,12)         =      1.524452    -0.000001    -0.000000     1.524452
	    9 R(9,10)         =      1.093223    -0.000007    -0.000001     1.093221
	   10 R(9,11)         =      1.093272    -0.000006    -0.000001     1.093270
	   11 R(9,15)         =      1.523492    -0.000002    -0.000000     1.523492
	   12 R(12,13)        =      1.093550    -0.000003    -0.000001     1.093550
	   13 R(12,14)        =      1.092545    -0.000002    -0.000000     1.092545
	   14 R(12,24)        =      1.528458     0.000000     0.000000     1.528458
	   15 R(15,16)        =      1.095063    -0.000006    -0.000001     1.095062
	   16 R(15,17)        =      1.095019    -0.000007    -0.000001     1.095018
	   17 R(15,18)        =      1.522686    -0.000004    -0.000001     1.522685
	   18 R(18,19)        =      1.094750    -0.000006    -0.000001     1.094748
	   19 R(18,20)        =      1.092464    -0.000008    -0.000001     1.092462
	   20 R(18,21)        =      1.526297    -0.000002    -0.000000     1.526296
	   21 R(21,22)        =      1.092986    -0.000004    -0.000001     1.092985
	   22 R(21,23)        =      1.095415    -0.000006    -0.000001     1.095414
	   23 R(21,24)        =      1.535255    -0.000003    -0.000001     1.535254
	   24 R(24,25)        =      1.094733    -0.000004    -0.000001     1.094732
	   25 R(24,26)        =      1.092007    -0.000002    -0.000000     1.092007
	   26 B(1,9,10)       =    109.761166    -0.000000    -0.000008   109.761158
	   27 B(1,9,11)       =    109.759123     0.000000     0.000040   109.759163
	   28 B(1,9,15)       =    112.485684     0.000000     0.000024   112.485708
	   29 B(2,1,3)        =    107.915099    -0.000000    -0.000005   107.915094
	   30 B(2,1,4)        =    107.690577     0.000000    -0.000004   107.690573
	   31 B(2,1,9)        =    110.729801    -0.000000    -0.000023   110.729779
	   32 B(3,1,4)        =    107.918577    -0.000000     0.000001   107.918578
	   33 B(3,1,9)        =    111.699054     0.000000     0.000042   111.699096
	   34 B(4,1,9)        =    110.733927    -0.000000    -0.000013   110.733914
	   35 B(5,12,13)      =    109.195193    -0.000000    -0.000009   109.195184
	   36 B(5,12,14)      =    109.198512    -0.000000    -0.000018   109.198493
	   37 B(5,12,24)      =    114.277760     0.000000     0.000078   114.277838
	   38 B(6,5,7)        =    107.557778    -0.000000    -0.000015   107.557763
	   39 B(6,5,8)        =    107.896461     0.000000     0.000009   107.896470
	   40 B(6,5,12)       =    111.420441     0.000000     0.000015   111.420457
	   41 B(7,5,8)        =    107.927993    -0.000000    -0.000006   107.927987
	   42 B(7,5,12)       =    110.931460     0.000000     0.000009   110.931469
	   43 B(8,5,12)       =    110.949196    -0.000000    -0.000013   110.949183
	   44 B(9,15,16)      =    109.209789     0.000000     0.000042   109.209831
	   45 B(9,15,17)      =    109.273784     0.000000     0.000018   109.273802
	   46 B(9,15,18)      =    113.159771    -0.000000    -0.000046   113.159726
	   47 B(10,9,11)      =    106.449983     0.000000    -0.000006   106.449977
	   48 B(10,9,15)      =    109.102727    -0.000000    -0.000037   109.102690
	   49 B(11,9,15)      =    109.096625    -0.000000    -0.000015   109.096610
	   50 B(12,24,21)     =    114.033149     0.000000     0.000013   114.033163
	   51 B(12,24,25)     =    109.352002     0.000000     0.000004   109.352006
	   52 B(12,24,26)     =    108.070044    -0.000000     0.000008   108.070052
	   53 B(13,12,14)     =    106.406796     0.000000    -0.000038   106.406758
	   54 B(13,12,24)     =    108.581188    -0.000000    -0.000000   108.581188
	   55 B(14,12,24)     =    108.887320    -0.000000    -0.000021   108.887299
	   56 B(15,18,19)     =    109.316102    -0.000000    -0.000010   109.316092
	   57 B(15,18,20)     =    109.288330    -0.000000    -0.000101   109.288229
	   58 B(15,18,21)     =    112.848306     0.000000     0.000102   112.848407
	   59 B(16,15,17)     =    106.338421    -0.000000     0.000000   106.338421
	   60 B(16,15,18)     =    109.260367     0.000000     0.000046   109.260414
	   61 B(17,15,18)     =    109.370721    -0.000000    -0.000058   109.370663
	   62 B(18,21,22)     =    107.920262     0.000000     0.000083   107.920345
	   63 B(18,21,23)     =    109.388506     0.000000    -0.000030   109.388476
	   64 B(18,21,24)     =    114.057051    -0.000000    -0.000040   114.057011
	   65 B(19,18,20)     =    106.274870     0.000000    -0.000045   106.274825
	   66 B(19,18,21)     =    108.710927    -0.000000    -0.000070   108.710857
	   67 B(20,18,21)     =    110.184903     0.000000     0.000115   110.185018
	   68 B(21,24,25)     =    109.153424    -0.000000    -0.000064   109.153360
	   69 B(21,24,26)     =    109.660404     0.000000     0.000056   109.660460
	   70 B(22,21,23)     =    106.017929    -0.000000    -0.000023   106.017906
	   71 B(22,21,24)     =    109.806306     0.000000     0.000029   109.806335
	   72 B(23,21,24)     =    109.335537     0.000000    -0.000017   109.335519
	   73 B(25,24,26)     =    106.282446    -0.000000    -0.000019   106.282426
	   74 D(1,9,15,16)    =     57.784506     0.000000     0.000208    57.784715
	   75 D(1,9,15,17)    =    -58.155128    -0.000000     0.000175   -58.154954
	   76 D(1,9,15,18)    =    179.720799     0.000000     0.000267   179.721066
	   77 D(2,1,9,10)     =    178.609014     0.000000    -0.000108   178.608906
	   78 D(2,1,9,11)     =     61.943991    -0.000000    -0.000120    61.943871
	   79 D(2,1,9,15)     =    -59.718879    -0.000000    -0.000145   -59.719024
	   80 D(3,1,9,10)     =     58.305164     0.000000    -0.000115    58.305048
	   81 D(3,1,9,11)     =    -58.359859    -0.000000    -0.000127   -58.359986
	   82 D(3,1,9,15)     =    179.977271    -0.000000    -0.000152   179.977119
	   83 D(4,1,9,10)     =    -62.005912    -0.000000    -0.000136   -62.006049
	   84 D(4,1,9,11)     =   -178.670935    -0.000000    -0.000148  -178.671083
	   85 D(4,1,9,15)     =     59.666195    -0.000000    -0.000173    59.666022
	   86 D(5,12,24,21)   =     59.346610    -0.000000     0.000135    59.346746
	   87 D(5,12,24,25)   =    -63.158041     0.000000     0.000206   -63.157835
	   88 D(5,12,24,26)   =   -178.446163     0.000000     0.000222  -178.445941
	   89 D(6,5,12,13)    =     58.458520     0.000000    -0.000105    58.458415
	   90 D(6,5,12,14)    =    174.429902    -0.000000    -0.000166   174.429736
	   91 D(6,5,12,24)    =    -63.355961    -0.000000    -0.000152   -63.356113
	   92 D(7,5,12,13)    =    -61.343268     0.000000    -0.000102   -61.343371
	   93 D(7,5,12,14)    =     54.628114    -0.000000    -0.000163    54.627951
	   94 D(7,5,12,24)    =    176.842251    -0.000000    -0.000149   176.842102
	   95 D(8,5,12,13)    =    178.700808     0.000000    -0.000093   178.700715
	   96 D(8,5,12,14)    =    -65.327810    -0.000000    -0.000153   -65.327963
	   97 D(8,5,12,24)    =     56.886327    -0.000000    -0.000140    56.886187
	   98 D(9,15,18,19)   =     57.448232    -0.000000    -0.000127    57.448104
	   99 D(9,15,18,20)   =    -58.482838     0.000000    -0.000011   -58.482849
	  100 D(9,15,18,21)   =    178.550080    -0.000000    -0.000156   178.549924
	  101 D(10,9,15,16)   =    179.830394     0.000000     0.000188   179.830582
	  102 D(10,9,15,17)   =     63.890760    -0.000000     0.000155    63.890914
	  103 D(10,9,15,18)   =    -58.233314     0.000000     0.000247   -58.233067
	  104 D(11,9,15,16)   =    -64.254482    -0.000000     0.000152   -64.254330
	  105 D(11,9,15,17)   =    179.805883    -0.000000     0.000119   179.806002
	  106 D(11,9,15,18)   =     57.681810     0.000000     0.000211    57.682021
	  107 D(12,24,21,18)  =    -96.436585     0.000000     0.000067   -96.436517
	  108 D(12,24,21,22)  =    142.303188    -0.000000    -0.000034   142.303154
	  109 D(12,24,21,23)  =     26.378338    -0.000000    -0.000013    26.378325
	  110 D(13,12,24,21)  =    -62.804296    -0.000000     0.000094   -62.804202
	  111 D(13,12,24,25)  =    174.691053     0.000000     0.000164   174.691217
	  112 D(13,12,24,26)  =     59.402931     0.000000     0.000180    59.403111
	  113 D(14,12,24,21)  =   -178.269336    -0.000000     0.000150  -178.269186
	  114 D(14,12,24,25)  =     59.226013     0.000000     0.000220    59.226233
	  115 D(14,12,24,26)  =    -56.062110     0.000000     0.000236   -56.061873
	  116 D(15,18,21,22)  =    -61.122231    -0.000000    -0.000183   -61.122414
	  117 D(15,18,21,23)  =     53.791348    -0.000000    -0.000181    53.791167
	  118 D(15,18,21,24)  =    176.577389    -0.000000    -0.000255   176.577134
	  119 D(16,15,18,19)  =    179.356195    -0.000000    -0.000071   179.356125
	  120 D(16,15,18,20)  =     63.425126     0.000000     0.000046    63.425171
	  121 D(16,15,18,21)  =    -59.541956    -0.000000    -0.000099   -59.542055
	  122 D(17,15,18,19)  =    -64.621652    -0.000000    -0.000077   -64.621729
	  123 D(17,15,18,20)  =    179.447278     0.000000     0.000039   179.447317
	  124 D(17,15,18,21)  =     56.480196    -0.000000    -0.000106    56.480091
	  125 D(18,21,24,25)  =     26.176688     0.000000     0.000035    26.176723
	  126 D(18,21,24,26)  =    142.233760     0.000000     0.000007   142.233767
	  127 D(19,18,21,22)  =     60.322962     0.000000    -0.000178    60.322784
	  128 D(19,18,21,23)  =    175.236541     0.000000    -0.000176   175.236365
	  129 D(19,18,21,24)  =    -61.977419    -0.000000    -0.000250   -61.977668
	  130 D(20,18,21,22)  =    176.411420     0.000000    -0.000208   176.411211
	  131 D(20,18,21,23)  =    -68.675001     0.000000    -0.000206   -68.675208
	  132 D(20,18,21,24)  =     54.111039    -0.000000    -0.000280    54.110759
	  133 D(22,21,24,25)  =    -95.083539    -0.000000    -0.000067   -95.083606
	  134 D(22,21,24,26)  =     20.973533    -0.000000    -0.000095    20.973438
	  135 D(23,21,24,25)  =    148.991611    -0.000000    -0.000046   148.991565
	  136 D(23,21,24,26)  =    -94.951317    -0.000000    -0.000074   -94.951391
	  137 R(5,18)         =      3.400381     0.000000     0.000001     3.400382
	 ---------------------------------------------------------------------------

  ==> Convergence Check <==

  Measures of convergence in internal coordinates in au.
  Criteria marked as inactive (o), active & met (*), and active & unmet ( ).
  ---------------------------------------------------------------------------------------------
   Step     Total Energy     Delta E     MAX Force     RMS Force      MAX Disp      RMS Disp   
  ---------------------------------------------------------------------------------------------
    Convergence Criteria             o    2.00e-06 *    1.00e-06 *    6.00e-06 *    4.00e-06 *
  ---------------------------------------------------------------------------------------------
     16    -314.98139943   -5.90e-09 o    9.52e-07 *    2.50e-07 *    4.89e-06 *    2.02e-06 *  ~
  ---------------------------------------------------------------------------------------------


  **** Optimization is complete! (in 16 steps) ****

  ==> Optimization Summary <==

  Measures of convergence in internal coordinates in au.
  --------------------------------------------------------------------------------------------------------------- ~
   Step         Total Energy             Delta E       MAX Force       RMS Force        MAX Disp        RMS Disp  ~
  --------------------------------------------------------------------------------------------------------------- ~
      1    -314.981138989841   -314.981138989841      0.00424381      0.00104100      0.04055856      0.01174892  ~
      2    -314.981372904213     -0.000233914371      0.00090044      0.00023132      0.03150516      0.01068094  ~
      3    -314.981380050408     -0.000007146195      0.00047899      0.00012200      0.01850721      0.00584683  ~
      4    -314.981399163058     -0.000019112650      0.00010559      0.00002196      0.00162051      0.00064365  ~
      5    -314.981399394165     -0.000000231107      0.00002940      0.00000601      0.00066583      0.00025049  ~
      6    -314.981399422545     -0.000000028380      0.00000712      0.00000150      0.00024830      0.00007177  ~
      7    -314.981399425696     -0.000000003151      0.00000479      0.00000069      0.00009493      0.00002601  ~
      8    -314.981399424923      0.000000000773      0.00000396      0.00000102      0.00008111      0.00002170  ~
      9    -314.981399429264     -0.000000004341      0.00000294      0.00000059      0.00001920      0.00000696  ~
     10    -314.981399424404      0.000000004861      0.00000331      0.00000075      0.00001365      0.00000450  ~
     11    -314.981399428846     -0.000000004443      0.00000260      0.00000066      0.00001643      0.00000505  ~
     12    -314.981399426018      0.000000002828      0.00000098      0.00000023      0.00001508      0.00000401  ~
     13    -314.981399428684     -0.000000002666      0.00000174      0.00000039      0.00001819      0.00000488  ~
     14    -314.981399431203     -0.000000002519      0.00000070      0.00000016      0.00000998      0.00000253  ~
     15    -314.981399422492      0.000000008711      0.00000237      0.00000053      0.00002015      0.00000735  ~
     16    -314.981399428394     -0.000000005902      0.00000095      0.00000025      0.00000489      0.00000202  ~
  --------------------------------------------------------------------------------------------------------------- ~

	Writing optimization data to binary file.
	Final energy is   -314.9813994283935
	Final (previous) structure:
	Cartesian Geometry (in Angstrom)
	    C     4.0459375658   0.3221670974   0.2521677403
	    H     3.9646771622   0.8304451867   1.2137706315
	    H     4.8349544929   0.8102982843  -0.3193771271
	    H     4.3579331336  -0.7049209710   0.4454903604
	    C    -2.5271384537   1.5838950681   0.0777225904
	    H    -1.6066629791   1.6917218152   0.6514334330
	    H    -3.2258627415   2.3419134695   0.4316107057
	    H    -2.2982647271   1.7996811412  -0.9670621779
	    C     2.7141366479   0.3512274194  -0.4874663349
	    H     2.8197315552  -0.1400916403  -1.4583374727
	    H     2.4283908646   1.3861528709  -0.6936732995
	    C    -3.1170308257   0.1863713150   0.2290797389
	    H    -3.3135904050  -0.0082785136   1.2870627218
	    H    -4.0846959529   0.1481372905  -0.2767037448
	    C     1.5976210274  -0.3274750161   0.2959770051
	    H     1.4923596343   0.1614368279   1.2701680912
	    H     1.8793941218  -1.3655413856   0.5011313442
	    C     0.2575388810  -0.3012723265  -0.4265639072
	    H     0.3645082548  -0.7796388295  -1.4054407477
	    H    -0.0269639240   0.7352690627  -0.6218009728
	    C    -0.8476450256  -1.0137094955   0.3484094311
	    H    -0.5545082170  -2.0599554573   0.4669755189
	    H    -0.9067419714  -0.5997589852   1.3608755131
	    C    -2.2296234232  -0.9326848865  -0.3153512001
	    H    -2.1025233052  -0.8021998493  -1.3948230603
	    H    -2.7575868531  -1.8791506633  -0.1814252562
	Saving final (previous) structure.
			--------------------------
			 OPTKING Finished Execution 
			--------------------------

    Final optimized geometry and variables:
    Molecular point group: c1
    Full point group: C1

    Geometry (in Angstrom), charge = 0, multiplicity = 1:

    C            4.045937565761     0.322167097382     0.252167740280
    H            3.964677162169     0.830445186716     1.213770631521
    H            4.834954492856     0.810298284290    -0.319377127057
    H            4.357933133581    -0.704920971041     0.445490360395
    C           -2.527138453749     1.583895068096     0.077722590367
    H           -1.606662979115     1.691721815233     0.651433432957
    H           -3.225862741527     2.341913469452     0.431610705728
    H           -2.298264727074     1.799681141151    -0.967062177879
    C            2.714136647948     0.351227419440    -0.487466334903
    H            2.819731555232    -0.140091640303    -1.458337472696
    H            2.428390864624     1.386152870927    -0.693673299463
    C           -3.117030825701     0.186371315046     0.229079738867
    H           -3.313590405023    -0.008278513608     1.287062721838
    H           -4.084695952932     0.148137290480    -0.276703744797
    C            1.597621027396    -0.327475016070     0.295977005050
    H            1.492359634319     0.161436827859     1.270168091157
    H            1.879394121830    -1.365541385573     0.501131344190
    C            0.257538881035    -0.301272326476    -0.426563907182
    H            0.364508254831    -0.779638829460    -1.405440747731
    H           -0.026963923973     0.735269062665    -0.621800972838
    C           -0.847645025556    -1.013709495474     0.348409431095
    H           -0.554508216950    -2.059955457303     0.466975518898
    H           -0.906741971356    -0.599758985181     1.360875513068
    C           -2.229623423218    -0.932684886547    -0.315351200103
    H           -2.102523305170    -0.802199849251    -1.394823060287
    H           -2.757586853077    -1.879150663325    -0.181425256233

	Cleaning optimization helper files.

*** Psi4 exiting successfully. Buy a developer a beer!
