    -----------------------------------------------------------------------
          Psi4: An Open-Source Ab Initio Electronic Structure Package
                              Psi4 1.0.0 Driver

                          Git: Rev {master} 6a9a71b dirty

    J. M. Turney, A. C. Simmonett, R. M. Parrish, E. G. Hohenstein,
    F. A. Evangelista, J. T. Fermann, B. J. Mintz, L. A. Burns, J. J. Wilke,
    M. L. Abrams, N. J. Russ, M. L. Leininger, C. L. Janssen, E. T. Seidl,
    W. D. Allen, H. F. Schaefer, R. A. King, E. F. Valeev, C. D. Sherrill,
    and T. D. Crawford, WIREs Comput. Mol. Sci. 2, 556-565 (2012)
    (doi: 10.1002/wcms.93)

                         Additional Contributions by
    A. E. DePrince, U. Bozkaya, A. Yu. Sokolov, D. G. A. Smith, R. Di Remigio,
    R. M. Richard, J. F. Gonthier, H. R. McAlexander, M. Saitow, and
    B. P. Pritchard
    -----------------------------------------------------------------------


    Psi4 started on: Wed Sep 21 04:57:33 2016

    Process ID:  47173
    PSI4DATADIR: /usr/local/hpc5/psi4conda/share/psi4
    Memory level set to 256.000 MB

  ==> Input File <==

--------------------------------------------------------------------------
memory 60 Gb

molecule molecule_23_psi {
0 1
C           -3.824194642259     1.059535830234     0.004034931683
H           -3.554655199643     1.711922104558    -0.827447082753
H           -3.684415215350     1.623760332272     0.926962580894
H           -4.883854303854     0.821884756152    -0.086261200279
C            3.482985447271     0.789943051930     0.672456396531
H            3.204496805486     0.214045602997     1.554128134406
H            3.027189912286     1.777677850562     0.761102305036
H            4.565023679483     0.917981870528     0.690058130386
C           -2.963153606831    -0.197473789063     0.004652893021
H           -3.131714178256    -0.761160394317    -0.916873433907
H           -3.264245505114    -0.851756238062     0.827083321667
C            3.029481111464     0.103073935556    -0.611412322001
H            3.417396940752     0.655219350091    -1.470312274472
H            3.463316841592    -0.899339628117    -0.664318225847
C           -1.477276506804     0.114462855885     0.132681862681
H           -1.302533167826     0.666877866730     1.062486889164
H           -1.184071992250     0.779880695297    -0.683638183056
C           -0.608661782244    -1.138173069000     0.123056087973
H           -0.732109227847    -1.653520209097    -0.835028599140
H           -0.973543608919    -1.823655790865     0.893516281198
C            0.874218902029    -0.860377478806     0.358515896195
H            0.992329904138    -0.375886607914     1.331467128058
H            1.414613088209    -1.810577160695     0.415424474907
C            1.510817555403    -0.002647665163    -0.731261848750
H            1.254268468183    -0.429634147106    -1.705896761162
H            1.084165303705     1.003889094703    -0.709545029811
}

set globals {
  reference rhf
  g_convergence gau_verytight
  basis aug-cc-pvtz
  freeze_core true
  scf_type df
  mp_type df
}
optimize('mp2')
--------------------------------------------------------------------------
/usr/local/hpc5/psi4conda/lib/python2.7/site-packages/v2rdm_casscf/v2rdm_casscf.so loaded.

  Memory set to  60.000 GiB by Python script.
gradient() will perform analytic gradient computation.

*** tstart() called on wr40
*** at Wed Sep 21 04:57:34 2016


         ---------------------------------------------------------
                                   SCF
            by Justin Turney, Rob Parrish, and Andy Simmonett
                              RHF Reference
                       12 Threads,  60000 MiB Core
         ---------------------------------------------------------

  ==> Geometry <==

    Molecular point group: c1
    Full point group: C1

    Geometry (in Angstrom), charge = 0, multiplicity = 1:

       Center              X                  Y                   Z               Mass       
    ------------   -----------------  -----------------  -----------------  -----------------
           C         -3.824194642259     1.059535830234     0.004034931683    12.000000000000
           H         -3.554655199643     1.711922104558    -0.827447082753     1.007825032070
           H         -3.684415215350     1.623760332272     0.926962580894     1.007825032070
           H         -4.883854303854     0.821884756152    -0.086261200279     1.007825032070
           C          3.482985447271     0.789943051930     0.672456396531    12.000000000000
           H          3.204496805486     0.214045602997     1.554128134406     1.007825032070
           H          3.027189912286     1.777677850562     0.761102305036     1.007825032070
           H          4.565023679483     0.917981870528     0.690058130386     1.007825032070
           C         -2.963153606831    -0.197473789063     0.004652893021    12.000000000000
           H         -3.131714178256    -0.761160394317    -0.916873433907     1.007825032070
           H         -3.264245505114    -0.851756238062     0.827083321667     1.007825032070
           C          3.029481111464     0.103073935556    -0.611412322001    12.000000000000
           H          3.417396940752     0.655219350091    -1.470312274472     1.007825032070
           H          3.463316841592    -0.899339628117    -0.664318225847     1.007825032070
           C         -1.477276506804     0.114462855885     0.132681862681    12.000000000000
           H         -1.302533167826     0.666877866730     1.062486889164     1.007825032070
           H         -1.184071992250     0.779880695297    -0.683638183056     1.007825032070
           C         -0.608661782244    -1.138173069000     0.123056087973    12.000000000000
           H         -0.732109227847    -1.653520209097    -0.835028599140     1.007825032070
           H         -0.973543608919    -1.823655790865     0.893516281198     1.007825032070
           C          0.874218902029    -0.860377478806     0.358515896195    12.000000000000
           H          0.992329904138    -0.375886607914     1.331467128058     1.007825032070
           H          1.414613088209    -1.810577160695     0.415424474907     1.007825032070
           C          1.510817555403    -0.002647665163    -0.731261848750    12.000000000000
           H          1.254268468183    -0.429634147106    -1.705896761162     1.007825032070
           H          1.084165303705     1.003889094703    -0.709545029811     1.007825032070

  Running in c1 symmetry.

  Rotational constants: A =      0.15801  B =      0.02145  C =      0.02054 [cm^-1]
  Rotational constants: A =   4736.93066  B =    643.13087  C =    615.82624 [MHz]
  Nuclear repulsion =  386.935575649409486

  Charge       = 0
  Multiplicity = 1
  Electrons    = 66
  Nalpha       = 33
  Nbeta        = 33

  ==> Algorithm <==

  SCF Algorithm Type is DF.
  DIIS enabled.
  MOM disabled.
  Fractional occupation disabled.
  Guess Type is SAD.
  Energy threshold   = 1.00e-10
  Density threshold  = 1.00e-10
  Integral threshold = 0.00e+00

  ==> Primary Basis <==

  Basis Set: AUG-CC-PVTZ
    Number of shells: 274
    Number of basis function: 782
    Number of Cartesian functions: 890
    Spherical Harmonics?: true
    Max angular momentum: 3

  ==> Pre-Iterations <==

   -------------------------------------------------------
    Irrep   Nso     Nmo     Nalpha   Nbeta   Ndocc  Nsocc
   -------------------------------------------------------
     A        782     782       0       0       0       0
   -------------------------------------------------------
    Total     782     782      33      33      33       0
   -------------------------------------------------------

  ==> Integral Setup <==

  ==> DFJK: Density-Fitted J/K Matrices <==

    J tasked:                  Yes
    K tasked:                  Yes
    wK tasked:                  No
    OpenMP threads:             12
    Integrals threads:          12
    Memory (MB):             42915
    Algorithm:                Core
    Integral Cache:           NONE
    Schwarz Cutoff:          1E-12
    Fitting Condition:       1E-12

   => Auxiliary Basis Set <=

  Basis Set: 
    Number of shells: 492
    Number of basis function: 1660
    Number of Cartesian functions: 2038
    Spherical Harmonics?: true
    Max angular momentum: 4

  Minimum eigenvalue in the overlap matrix is 2.0229781141E-06.
  Using Symmetric Orthogonalization.
  SCF Guess: Superposition of Atomic Densities via on-the-fly atomic UHF.

  ==> Iterations <==

                           Total Energy        Delta E     RMS |[F,P]|

   @DF-RHF iter   0:  -316.73564255782327   -3.16736e+02   6.89140e-03 
   @DF-RHF iter   1:  -313.28104986056547    3.45459e+00   7.58819e-04 
   @DF-RHF iter   2:  -313.50897583401314   -2.27926e-01   2.76435e-04 DIIS
   @DF-RHF iter   3:  -313.53864684458011   -2.96710e-02   1.00555e-04 DIIS
   @DF-RHF iter   4:  -313.54382024362764   -5.17340e-03   1.60915e-05 DIIS
   @DF-RHF iter   5:  -313.54399964891587   -1.79405e-04   4.43454e-06 DIIS
   @DF-RHF iter   6:  -313.54401129564400   -1.16467e-05   1.33751e-06 DIIS
   @DF-RHF iter   7:  -313.54401237060318   -1.07496e-06   2.57971e-07 DIIS
   @DF-RHF iter   8:  -313.54401241791192   -4.73087e-08   6.75577e-08 DIIS
   @DF-RHF iter   9:  -313.54401242064938   -2.73747e-09   2.02091e-08 DIIS
   @DF-RHF iter  10:  -313.54401242087118   -2.21803e-10   5.77089e-09 DIIS
   @DF-RHF iter  11:  -313.54401242089313   -2.19416e-11   1.26485e-09 DIIS
   @DF-RHF iter  12:  -313.54401242089335   -2.27374e-13   3.27829e-10 DIIS
   @DF-RHF iter  13:  -313.54401242089369   -3.41061e-13   9.58981e-11 DIIS

  ==> Post-Iterations <==

    Orbital Energies (a.u.)
    -----------------------

    Doubly Occupied:                                                      

       1A    -11.212625     2A    -11.212227     3A    -11.210466  
       4A    -11.210000     5A    -11.209470     6A    -11.209230  
       7A    -11.206948     8A    -11.206401     9A     -1.094031  
      10A     -1.061032    11A     -1.010687    12A     -0.944056  
      13A     -0.887239    14A     -0.819457    15A     -0.793316  
      16A     -0.761188    17A     -0.647795    18A     -0.626035  
      19A     -0.610365    20A     -0.595946    21A     -0.573518  
      22A     -0.561628    23A     -0.545356    24A     -0.527050  
      25A     -0.522865    26A     -0.495874    27A     -0.487105  
      28A     -0.472505    29A     -0.467622    30A     -0.460659  
      31A     -0.450040    32A     -0.439778    33A     -0.434348  

    Virtual:                                                              

      34A      0.030451    35A      0.032206    36A      0.034546  
      37A      0.035686    38A      0.043800    39A      0.048173  
      40A      0.049183    41A      0.054687    42A      0.056429  
      43A      0.062116    44A      0.067114    45A      0.070030  
      46A      0.073211    47A      0.082256    48A      0.087047  
      49A      0.090615    50A      0.097991    51A      0.109296  
      52A      0.111880    53A      0.114466    54A      0.116887  
      55A      0.121407    56A      0.123125    57A      0.130154  
      58A      0.132203    59A      0.136051    60A      0.141039  
      61A      0.145693    62A      0.147807    63A      0.150718  
      64A      0.154646    65A      0.157410    66A      0.161969  
      67A      0.164591    68A      0.167213    69A      0.168589  
      70A      0.173744    71A      0.179220    72A      0.188806  
      73A      0.192193    74A      0.195301    75A      0.198842  
      76A      0.212642    77A      0.215589    78A      0.225610  
      79A      0.233934    80A      0.237687    81A      0.242638  
      82A      0.246442    83A      0.253116    84A      0.259421  
      85A      0.267034    86A      0.272158    87A      0.273011  
      88A      0.278739    89A      0.283442    90A      0.291839  
      91A      0.294068    92A      0.297888    93A      0.306349  
      94A      0.311591    95A      0.316224    96A      0.316875  
      97A      0.321919    98A      0.324643    99A      0.331498  
     100A      0.334952   101A      0.334970   102A      0.339732  
     103A      0.348475   104A      0.354177   105A      0.355737  
     106A      0.356711   107A      0.358770   108A      0.363242  
     109A      0.368386   110A      0.372292   111A      0.375391  
     112A      0.382856   113A      0.384602   114A      0.388279  
     115A      0.390547   116A      0.391567   117A      0.394117  
     118A      0.398924   119A      0.404773   120A      0.407033  
     121A      0.411674   122A      0.415162   123A      0.419207  
     124A      0.422663   125A      0.425880   126A      0.434059  
     127A      0.438646   128A      0.443325   129A      0.446631  
     130A      0.452797   131A      0.453931   132A      0.459134  
     133A      0.460033   134A      0.462996   135A      0.468312  
     136A      0.470537   137A      0.474816   138A      0.475483  
     139A      0.478295   140A      0.482148   141A      0.486225  
     142A      0.491440   143A      0.492542   144A      0.499337  
     145A      0.500785   146A      0.507217   147A      0.509808  
     148A      0.514994   149A      0.518835   150A      0.522374  
     151A      0.525604   152A      0.529397   153A      0.532100  
     154A      0.534533   155A      0.535223   156A      0.539406  
     157A      0.546448   158A      0.552394   159A      0.556246  
     160A      0.561108   161A      0.567589   162A      0.569730  
     163A      0.573877   164A      0.575891   165A      0.587857  
     166A      0.589829   167A      0.593309   168A      0.599324  
     169A      0.605089   170A      0.612089   171A      0.613569  
     172A      0.616720   173A      0.621043   174A      0.633110  
     175A      0.636184   176A      0.638232   177A      0.642904  
     178A      0.644822   179A      0.649227   180A      0.655432  
     181A      0.665778   182A      0.670716   183A      0.672533  
     184A      0.679775   185A      0.691784   186A      0.692798  
     187A      0.710196   188A      0.711869   189A      0.715181  
     190A      0.721708   191A      0.726073   192A      0.728416  
     193A      0.736026   194A      0.746151   195A      0.751296  
     196A      0.753352   197A      0.760011   198A      0.777957  
     199A      0.779679   200A      0.790661   201A      0.800049  
     202A      0.807635   203A      0.820284   204A      0.826800  
     205A      0.831712   206A      0.833818   207A      0.837851  
     208A      0.849179   209A      0.853322   210A      0.856803  
     211A      0.861537   212A      0.866416   213A      0.875442  
     214A      0.879171   215A      0.882739   216A      0.884525  
     217A      0.888583   218A      0.896569   219A      0.899211  
     220A      0.905646   221A      0.908881   222A      0.915108  
     223A      0.920414   224A      0.929135   225A      0.932709  
     226A      0.941442   227A      0.942921   228A      0.943409  
     229A      0.946419   230A      0.948431   231A      0.955499  
     232A      0.958395   233A      0.962862   234A      0.965612  
     235A      0.975437   236A      0.982222   237A      0.985069  
     238A      0.989792   239A      0.995941   240A      1.002927  
     241A      1.006335   242A      1.010869   243A      1.014562  
     244A      1.020251   245A      1.029063   246A      1.035368  
     247A      1.041259   248A      1.044549   249A      1.048304  
     250A      1.057035   251A      1.057136   252A      1.068444  
     253A      1.075809   254A      1.079657   255A      1.082453  
     256A      1.090830   257A      1.093379   258A      1.097804  
     259A      1.103111   260A      1.107646   261A      1.113401  
     262A      1.118254   263A      1.122111   264A      1.125980  
     265A      1.129769   266A      1.133095   267A      1.138120  
     268A      1.147863   269A      1.150873   270A      1.154256  
     271A      1.158627   272A      1.162111   273A      1.177084  
     274A      1.186671   275A      1.187510   276A      1.188880  
     277A      1.200522   278A      1.201094   279A      1.204289  
     280A      1.211891   281A      1.216328   282A      1.218973  
     283A      1.224319   284A      1.228228   285A      1.232963  
     286A      1.241973   287A      1.245070   288A      1.248178  
     289A      1.259860   290A      1.261301   291A      1.269233  
     292A      1.272100   293A      1.278716   294A      1.285921  
     295A      1.287786   296A      1.293215   297A      1.298915  
     298A      1.303509   299A      1.307063   300A      1.320704  
     301A      1.324926   302A      1.328777   303A      1.332179  
     304A      1.344365   305A      1.346866   306A      1.355069  
     307A      1.359581   308A      1.368171   309A      1.375271  
     310A      1.386479   311A      1.389249   312A      1.400887  
     313A      1.411155   314A      1.419626   315A      1.421682  
     316A      1.432605   317A      1.438276   318A      1.444165  
     319A      1.451944   320A      1.464000   321A      1.466758  
     322A      1.478569   323A      1.481715   324A      1.489315  
     325A      1.498123   326A      1.503687   327A      1.507945  
     328A      1.525635   329A      1.532384   330A      1.537748  
     331A      1.540572   332A      1.543565   333A      1.549790  
     334A      1.558931   335A      1.572733   336A      1.577960  
     337A      1.593739   338A      1.599549   339A      1.607473  
     340A      1.614092   341A      1.618355   342A      1.623770  
     343A      1.628527   344A      1.641972   345A      1.644378  
     346A      1.652475   347A      1.657031   348A      1.663328  
     349A      1.666723   350A      1.675516   351A      1.683203  
     352A      1.684043   353A      1.696985   354A      1.705950  
     355A      1.708597   356A      1.710741   357A      1.712812  
     358A      1.721060   359A      1.723425   360A      1.728684  
     361A      1.730675   362A      1.738899   363A      1.750271  
     364A      1.756807   365A      1.763910   366A      1.769831  
     367A      1.774908   368A      1.779784   369A      1.783143  
     370A      1.786540   371A      1.790592   372A      1.799068  
     373A      1.803234   374A      1.809020   375A      1.814256  
     376A      1.817524   377A      1.825314   378A      1.828463  
     379A      1.840987   380A      1.844621   381A      1.849540  
     382A      1.853280   383A      1.863804   384A      1.870445  
     385A      1.876800   386A      1.882299   387A      1.891112  
     388A      1.902847   389A      1.907986   390A      1.914259  
     391A      1.924608   392A      1.926685   393A      1.937379  
     394A      1.938056   395A      1.955248   396A      1.958751  
     397A      1.967938   398A      1.973793   399A      1.982255  
     400A      1.983867   401A      1.989062   402A      1.994073  
     403A      1.994680   404A      2.011139   405A      2.018117  
     406A      2.020801   407A      2.031955   408A      2.037493  
     409A      2.044095   410A      2.047965   411A      2.062003  
     412A      2.064741   413A      2.071376   414A      2.074589  
     415A      2.089647   416A      2.100211   417A      2.103356  
     418A      2.112711   419A      2.120374   420A      2.121429  
     421A      2.126857   422A      2.130727   423A      2.140732  
     424A      2.141974   425A      2.156076   426A      2.166395  
     427A      2.169837   428A      2.186851   429A      2.192601  
     430A      2.199656   431A      2.205117   432A      2.236321  
     433A      2.238952   434A      2.252415   435A      2.254993  
     436A      2.262625   437A      2.268096   438A      2.274803  
     439A      2.290682   440A      2.295116   441A      2.304894  
     442A      2.317353   443A      2.319873   444A      2.329206  
     445A      2.339618   446A      2.343524   447A      2.347092  
     448A      2.355547   449A      2.365860   450A      2.379061  
     451A      2.385643   452A      2.392282   453A      2.409703  
     454A      2.424402   455A      2.431865   456A      2.435848  
     457A      2.449410   458A      2.456259   459A      2.463477  
     460A      2.480998   461A      2.489553   462A      2.503074  
     463A      2.509203   464A      2.521881   465A      2.535828  
     466A      2.549216   467A      2.554148   468A      2.573796  
     469A      2.588988   470A      2.597642   471A      2.601315  
     472A      2.622822   473A      2.633203   474A      2.649166  
     475A      2.675557   476A      2.685874   477A      2.708303  
     478A      2.737518   479A      2.744117   480A      2.769378  
     481A      2.786718   482A      2.818085   483A      2.843513  
     484A      2.874622   485A      2.893753   486A      2.945944  
     487A      2.974900   488A      2.994424   489A      3.031563  
     490A      3.094361   491A      3.156270   492A      3.158951  
     493A      3.282136   494A      3.296855   495A      3.313278  
     496A      3.418760   497A      3.439239   498A      3.444919  
     499A      3.456648   500A      3.465221   501A      3.469900  
     502A      3.483526   503A      3.495602   504A      3.510583  
     505A      3.515506   506A      3.531272   507A      3.555231  
     508A      3.564312   509A      3.575173   510A      3.579870  
     511A      3.589475   512A      3.596065   513A      3.612099  
     514A      3.616195   515A      3.634197   516A      3.642813  
     517A      3.651587   518A      3.673172   519A      3.674849  
     520A      3.681615   521A      3.684903   522A      3.698508  
     523A      3.704200   524A      3.705972   525A      3.731313  
     526A      3.735567   527A      3.746894   528A      3.760171  
     529A      3.769503   530A      3.774792   531A      3.777249  
     532A      3.783738   533A      3.800677   534A      3.804920  
     535A      3.809104   536A      3.816106   537A      3.825867  
     538A      3.842164   539A      3.845821   540A      3.855162  
     541A      3.857796   542A      3.871741   543A      3.880222  
     544A      3.882640   545A      3.890966   546A      3.900012  
     547A      3.913898   548A      3.918640   549A      3.932371  
     550A      3.941342   551A      3.952557   552A      3.958387  
     553A      3.963298   554A      3.968114   555A      3.975710  
     556A      3.980716   557A      3.989100   558A      4.000716  
     559A      4.001359   560A      4.006774   561A      4.014006  
     562A      4.018136   563A      4.024401   564A      4.033962  
     565A      4.039475   566A      4.043987   567A      4.054210  
     568A      4.064210   569A      4.067717   570A      4.079189  
     571A      4.086842   572A      4.090835   573A      4.097688  
     574A      4.101021   575A      4.116510   576A      4.121831  
     577A      4.133079   578A      4.142030   579A      4.145068  
     580A      4.169211   581A      4.174635   582A      4.188201  
     583A      4.198576   584A      4.209974   585A      4.222342  
     586A      4.229261   587A      4.236613   588A      4.242343  
     589A      4.248783   590A      4.257251   591A      4.261728  
     592A      4.288517   593A      4.291727   594A      4.305638  
     595A      4.316841   596A      4.329744   597A      4.335550  
     598A      4.345733   599A      4.352454   600A      4.370801  
     601A      4.373585   602A      4.380371   603A      4.394848  
     604A      4.406795   605A      4.410186   606A      4.417597  
     607A      4.426313   608A      4.446179   609A      4.461119  
     610A      4.485364   611A      4.501451   612A      4.509054  
     613A      4.521937   614A      4.544587   615A      4.553076  
     616A      4.560171   617A      4.577902   618A      4.584854  
     619A      4.610563   620A      4.618964   621A      4.629614  
     622A      4.646566   623A      4.656046   624A      4.671700  
     625A      4.677661   626A      4.687156   627A      4.695374  
     628A      4.708699   629A      4.718910   630A      4.727725  
     631A      4.742109   632A      4.746722   633A      4.767535  
     634A      4.776360   635A      4.787604   636A      4.803592  
     637A      4.805412   638A      4.811947   639A      4.815608  
     640A      4.837876   641A      4.847671   642A      4.849529  
     643A      4.864529   644A      4.873442   645A      4.876877  
     646A      4.884652   647A      4.897145   648A      4.902273  
     649A      4.913962   650A      4.916634   651A      4.927993  
     652A      4.940725   653A      4.953264   654A      4.965355  
     655A      4.984618   656A      5.002413   657A      5.015068  
     658A      5.020098   659A      5.042271   660A      5.050923  
     661A      5.063556   662A      5.069108   663A      5.076745  
     664A      5.084587   665A      5.116288   666A      5.134659  
     667A      5.138961   668A      5.156248   669A      5.158481  
     670A      5.169583   671A      5.177882   672A      5.181248  
     673A      5.209804   674A      5.212554   675A      5.232825  
     676A      5.234705   677A      5.249655   678A      5.257941  
     679A      5.269793   680A      5.284747   681A      5.297281  
     682A      5.303135   683A      5.327417   684A      5.341488  
     685A      5.347301   686A      5.359971   687A      5.362863  
     688A      5.379203   689A      5.396285   690A      5.406259  
     691A      5.414976   692A      5.425526   693A      5.432465  
     694A      5.434576   695A      5.444371   696A      5.458616  
     697A      5.468959   698A      5.472874   699A      5.480022  
     700A      5.497404   701A      5.512017   702A      5.526984  
     703A      5.530014   704A      5.547564   705A      5.571710  
     706A      5.577718   707A      5.589256   708A      5.597639  
     709A      5.613669   710A      5.631161   711A      5.643786  
     712A      5.649842   713A      5.666008   714A      5.673429  
     715A      5.679933   716A      5.703955   717A      5.710381  
     718A      5.720866   719A      5.723158   720A      5.743832  
     721A      5.763605   722A      5.773048   723A      5.783902  
     724A      5.791685   725A      5.807117   726A      5.827762  
     727A      5.837556   728A      5.858883   729A      5.874720  
     730A      5.897328   731A      5.905726   732A      5.931120  
     733A      5.965806   734A      5.991535   735A      5.999654  
     736A      6.004642   737A      6.048235   738A      6.054145  
     739A      6.095696   740A      6.120935   741A      6.138785  
     742A      6.154723   743A      6.172372   744A      6.188371  
     745A      6.207465   746A      6.219542   747A      6.233076  
     748A      6.252521   749A      6.270702   750A      6.289421  
     751A      6.303734   752A      6.307336   753A      6.314912  
     754A      6.342310   755A      6.347421   756A      6.365416  
     757A      6.403146   758A      6.420697   759A      6.545017  
     760A      6.611581   761A      6.627665   762A      6.686215  
     763A      6.716663   764A      6.762520   765A      6.780217  
     766A      6.800434   767A      6.843457   768A      6.875648  
     769A      6.887656   770A      6.925602   771A      6.964316  
     772A      7.003702   773A      7.083939   774A      7.113071  
     775A     17.910899   776A     17.958898   777A     18.338308  
     778A     18.489488   779A     18.568305   780A     18.620493  
     781A     19.195433   782A     19.654304  

    Final Occupation by Irrep:
              A 
    DOCC [    33 ]

  Energy converged.

  @DF-RHF Final Energy:  -313.54401242089369

   => Energetics <=

    Nuclear Repulsion Energy =            386.9355756494094862
    One-Electron Energy =               -1189.0254508271827945
    Two-Electron Energy =                 488.5458627568796146
    DFT Exchange-Correlation Energy =       0.0000000000000000
    Empirical Dispersion Energy =           0.0000000000000000
    PCM Polarization Energy =               0.0000000000000000
    EFP Energy =                            0.0000000000000000
    Total Energy =                       -313.5440124208937505


  Saving occupied orbitals to File 180.

*** tstop() called on wr40 at Wed Sep 21 04:59:20 2016
Module time:
	user time   =    1149.54 seconds =      19.16 minutes
	system time =      15.90 seconds =       0.27 minutes
	total time  =        106 seconds =       1.77 minutes
Total time:
	user time   =    1149.54 seconds =      19.16 minutes
	system time =      15.90 seconds =       0.27 minutes
	total time  =        106 seconds =       1.77 minutes


Properties will be evaluated at   0.000000,   0.000000,   0.000000 Bohr

Properties computed using the SCF density matrix

  Nuclear Dipole Moment: (a.u.)
     X:    -0.2703      Y:     1.4696      Z:     0.5277

  Electronic Dipole Moment: (a.u.)
     X:     0.2786      Y:    -1.4976      Z:    -0.5460

  Dipole Moment: (a.u.)
     X:     0.0083      Y:    -0.0280      Z:    -0.0183     Total:     0.0345

  Dipole Moment: (Debye)
     X:     0.0210      Y:    -0.0713      Z:    -0.0464     Total:     0.0876


  //>>>>>>>>>>>>>>>>>>>>>>>>>>>>>>>>>>>//
  //               DFMP2               //
  //<<<<<<<<<<<<<<<<<<<<<<<<<<<<<<<<<<<//


*** tstart() called on wr40
*** at Wed Sep 21 04:59:20 2016


*** tstop() called on wr40 at Wed Sep 21 04:59:20 2016
Module time:
	user time   =       4.37 seconds =       0.07 minutes
	system time =       0.20 seconds =       0.00 minutes
	total time  =          0 seconds =       0.00 minutes
Total time:
	user time   =    1154.08 seconds =      19.23 minutes
	system time =      16.10 seconds =       0.27 minutes
	total time  =        106 seconds =       1.77 minutes
	 --------------------------------------------------------
	                          DF-MP2                         
	      2nd-Order Density-Fitted Moller-Plesset Theory     
	              RMP2 Wavefunction,  12 Threads             
	                                                         
	        Rob Parrish, Justin Turney, Andy Simmonett,      
	           Ed Hohenstein, and C. David Sherrill          
	 --------------------------------------------------------

   => Auxiliary Basis Set <=

  Basis Set: 
    Number of shells: 476
    Number of basis function: 1676
    Number of Cartesian functions: 2078
    Spherical Harmonics?: true
    Max angular momentum: 4

	 --------------------------------------------------------
	                 NBF =   782, NAUX =  1676
	 --------------------------------------------------------
	   CLASS    FOCC     OCC    AOCC    AVIR     VIR    FVIR
	   PAIRS       8      33      25     749     749       0
	 --------------------------------------------------------

DGAS Warning! /src/lib/libfock/apps.cc:80 is not currently checking restricted

         ------------------------------------------------------------
                                     CPHF                           
                                  Rob Parrish                       
         ------------------------------------------------------------

  ==> Geometry <==

    Molecular point group: c1
    Full point group: C1

    Geometry (in Angstrom), charge = 0, multiplicity = 1:

       Center              X                  Y                   Z               Mass       
    ------------   -----------------  -----------------  -----------------  -----------------
           C         -3.824194642259     1.059535830234     0.004034931683    12.000000000000
           H         -3.554655199643     1.711922104558    -0.827447082753     1.007825032070
           H         -3.684415215350     1.623760332272     0.926962580894     1.007825032070
           H         -4.883854303854     0.821884756152    -0.086261200279     1.007825032070
           C          3.482985447271     0.789943051930     0.672456396531    12.000000000000
           H          3.204496805486     0.214045602997     1.554128134406     1.007825032070
           H          3.027189912286     1.777677850562     0.761102305036     1.007825032070
           H          4.565023679483     0.917981870528     0.690058130386     1.007825032070
           C         -2.963153606831    -0.197473789063     0.004652893021    12.000000000000
           H         -3.131714178256    -0.761160394317    -0.916873433907     1.007825032070
           H         -3.264245505114    -0.851756238062     0.827083321667     1.007825032070
           C          3.029481111464     0.103073935556    -0.611412322001    12.000000000000
           H          3.417396940752     0.655219350091    -1.470312274472     1.007825032070
           H          3.463316841592    -0.899339628117    -0.664318225847     1.007825032070
           C         -1.477276506804     0.114462855885     0.132681862681    12.000000000000
           H         -1.302533167826     0.666877866730     1.062486889164     1.007825032070
           H         -1.184071992250     0.779880695297    -0.683638183056     1.007825032070
           C         -0.608661782244    -1.138173069000     0.123056087973    12.000000000000
           H         -0.732109227847    -1.653520209097    -0.835028599140     1.007825032070
           H         -0.973543608919    -1.823655790865     0.893516281198     1.007825032070
           C          0.874218902029    -0.860377478806     0.358515896195    12.000000000000
           H          0.992329904138    -0.375886607914     1.331467128058     1.007825032070
           H          1.414613088209    -1.810577160695     0.415424474907     1.007825032070
           C          1.510817555403    -0.002647665163    -0.731261848750    12.000000000000
           H          1.254268468183    -0.429634147106    -1.705896761162     1.007825032070
           H          1.084165303705     1.003889094703    -0.709545029811     1.007825032070

  Nuclear repulsion =  386.935575649409486
  Reference energy  = -313.544012420893694

  ==> Basis Set <==

  Basis Set: AUG-CC-PVTZ
    Number of shells: 274
    Number of basis function: 782
    Number of Cartesian functions: 890
    Spherical Harmonics?: true
    Max angular momentum: 3

  ==> CGRSolver (by Rob Parrish) <==

   Number of roots    =         1
   Preconditioning    =    JACOBI
   Convergence cutoff =     1E-06
   Maximum iterations =       100

  ==> CPHFRHamiltonian (by Rob Parrish) <== 

  ==> DFJK: Density-Fitted J/K Matrices <==

    J tasked:                  Yes
    K tasked:                  Yes
    wK tasked:                  No
    OpenMP threads:             12
    Integrals threads:          12
    Memory (MB):             42915
    Algorithm:                Core
    Integral Cache:           NONE
    Schwarz Cutoff:          1E-12
    Fitting Condition:       1E-12

   => Auxiliary Basis Set <=

  Basis Set: 
    Number of shells: 492
    Number of basis function: 1660
    Number of Cartesian functions: 2038
    Spherical Harmonics?: true
    Max angular momentum: 4

  ==> CPHF Iterations <==

  => Iterations <=

             Iter  Converged  Remaining    Residual
  CGR           1          0          1   8.940E-02
  CGR           2          0          1   1.256E-02
  CGR           3          0          1   3.297E-03
  CGR           4          0          1   8.191E-04
  CGR           5          0          1   1.805E-04
  CGR           6          0          1   4.237E-05
  CGR           7          0          1   1.157E-05
  CGR           8          0          1   3.061E-06
  CGR           9          1          0   8.070E-07

    CGRSolver converged.

  ==> DFCorrGrad: Density-Fitted Correlated Gradients <==

    OpenMP threads:             12
    Integrals threads:          12
    Memory (MB):             42915
    Schwarz Cutoff:          0E+00
    Fitting Condition:       1E-12

   => Auxiliary Basis Set <=

  Basis Set: 
    Number of shells: 492
    Number of basis function: 1660
    Number of Cartesian functions: 2038
    Spherical Harmonics?: true
    Max angular momentum: 4

	-----------------------------------------------------------
	 ==================> DF-MP2 Energies <==================== 
	-----------------------------------------------------------
	 Reference Energy          =    -313.5440124208936936 [Eh]
	 Singles Energy            =      -0.0000000000000006 [Eh]
	 Same-Spin Energy          =      -0.3155226523837630 [Eh]
	 Opposite-Spin Energy      =      -1.1243043269961477 [Eh]
	 Correlation Energy        =      -1.4398269793799112 [Eh]
	 Total Energy              =    -314.9838394002736095 [Eh]
	-----------------------------------------------------------
	 ================> DF-SCS-MP2 Energies <================== 
	-----------------------------------------------------------
	 SCS Same-Spin Scale       =       0.3333333333333333 [-]
	 SCS Opposite-Spin Scale   =       1.2000000000000000 [-]
	 SCS Same-Spin Energy      =      -0.1051742174612543 [Eh]
	 SCS Opposite-Spin Energy  =      -1.3491651923953771 [Eh]
	 SCS Correlation Energy    =      -1.4543394098566320 [Eh]
	 SCS Total Energy          =    -314.9983518307503232 [Eh]
	-----------------------------------------------------------


  -Total Gradient:
     Atom            X                  Y                   Z
    ------   -----------------  -----------------  -----------------
       1       -0.000000550539     0.000000933940    -0.000000024275
       2       -0.000000253482    -0.000000885947     0.000000939452
       3       -0.000000061961    -0.000000799128    -0.000001035710
       4        0.000000856704     0.000000323366     0.000000107366
       5        0.000000185546     0.000000224199    -0.000000109906
       6        0.000000243766     0.000000137723    -0.000000216429
       7        0.000000111139    -0.000000151342     0.000000050363
       8       -0.000000068776     0.000000055628    -0.000000019439
       9       -0.000000439609    -0.000001717568    -0.000000160104
      10        0.000000508335     0.000001082318     0.000001504290
      11        0.000000955175     0.000001268658    -0.000001365989
      12        0.000000095533    -0.000000506824     0.000000108117
      13        0.000000000822    -0.000000069894     0.000000149741
      14       -0.000000085530     0.000000312902    -0.000000003799
      15        0.000000987401     0.000002355181     0.000000060859
      16       -0.000000418998    -0.000001526712    -0.000001886417
      17       -0.000000844538    -0.000001394449     0.000001334226
      18       -0.000000875344    -0.000001574110     0.000000352241
      19        0.000000072344     0.000000942314     0.000001684585
      20        0.000000301915     0.000000800584    -0.000001174263
      21       -0.000000207560    -0.000000613640     0.000000041344
      22       -0.000000587853    -0.000000495065    -0.000001078148
      23       -0.000000225188     0.000000625605     0.000000040196
      24        0.000000334477     0.000000703774    -0.000000242192
      25        0.000000100621     0.000000330294     0.000001024836
      26       -0.000000134396    -0.000000361810    -0.000000080944


			-----------------------------------------
			 OPTKING 2.0: for geometry optimizations 
			  - R.A. King,  Bethel University        
			-----------------------------------------

	Internal coordinates to be generated automatically.
	Detected frag 1 with atoms:  1 2 3 4 5 6 7 8 9 10 11 12 13 14 15 16 17 18 19 20
	 21 22 23 24 25 26
	---Fragment 1 Bond Connectivity---
	 1 : 2 3 4 9
	 2 : 1
	 3 : 1
	 4 : 1
	 5 : 6 7 8 12
	 6 : 5
	 7 : 5
	 8 : 5
	 9 : 1 10 11 15
	 10 : 9
	 11 : 9
	 12 : 5 13 14 24
	 13 : 12
	 14 : 12
	 15 : 9 16 17 18
	 16 : 15
	 17 : 15
	 18 : 15 19 20 21
	 19 : 18
	 20 : 18
	 21 : 18 22 23 24
	 22 : 21
	 23 : 21
	 24 : 12 21 25 26
	 25 : 24
	 26 : 24

	---Fragment 1 Geometry and Gradient---
	 C          -7.2266805527        2.0022325471        0.0076249158
	 H          -6.7173248242        3.2350639384       -1.5636483759
	 H          -6.9625357168        3.0684623334        1.7517054133
	 H          -9.2291471072        1.5531371019       -0.1630100444
	 C           6.5818886202        1.4927760287        1.2707584258
	 H           6.0556213561        0.4044875696        2.9368765494
	 H           5.7205598865        3.3593242901        1.4382749156
	 H           8.6266445444        1.7347343303        1.3040208822
	 C          -5.5995488066       -0.3731713798        0.0087926935
	 H          -5.9180821234       -1.4383846885       -1.7326396886
	 H          -6.1685300352       -1.6095860219        1.5629609670
	 C           5.7248896254        0.1947815096       -1.1554018429
	 H           6.4579443054        1.2381851286       -2.7784875286
	 H           6.5447203420       -1.6995055976       -1.2553795119
	 C          -2.7916480204        0.2163034500        0.2507323833
	 H          -2.4614309662        1.2602165322        2.0078092403
	 H          -2.2375717870        1.4737609304       -1.2918889400
	 C          -1.1502040760       -2.1508353922        0.2325423053
	 H          -1.3834859400       -3.1247003504       -1.5779753655
	 H          -1.8397307993       -3.4462100054        1.6885010667
	 C           1.6520343050       -1.6258778058        0.6774968581
	 H           1.8752317523       -0.7103227460        2.5161082270
	 H           2.6732313207       -3.4214949762        0.7850384865
	 C           2.8550314165       -0.0050033620       -1.3818846256
	 H           2.3702239020       -0.8118908754       -3.2236776896
	 H           2.0487755068        1.8970754568       -1.3408457853
	            -0.0000005505        0.0000009339       -0.0000000243
	            -0.0000002535       -0.0000008859        0.0000009395
	            -0.0000000620       -0.0000007991       -0.0000010357
	             0.0000008567        0.0000003234        0.0000001074
	             0.0000001855        0.0000002242       -0.0000001099
	             0.0000002438        0.0000001377       -0.0000002164
	             0.0000001111       -0.0000001513        0.0000000504
	            -0.0000000688        0.0000000556       -0.0000000194
	            -0.0000004396       -0.0000017176       -0.0000001601
	             0.0000005083        0.0000010823        0.0000015043
	             0.0000009552        0.0000012687       -0.0000013660
	             0.0000000955       -0.0000005068        0.0000001081
	             0.0000000008       -0.0000000699        0.0000001497
	            -0.0000000855        0.0000003129       -0.0000000038
	             0.0000009874        0.0000023552        0.0000000609
	            -0.0000004190       -0.0000015267       -0.0000018864
	            -0.0000008445       -0.0000013944        0.0000013342
	            -0.0000008753       -0.0000015741        0.0000003522
	             0.0000000723        0.0000009423        0.0000016846
	             0.0000003019        0.0000008006       -0.0000011743
	            -0.0000002076       -0.0000006136        0.0000000413
	            -0.0000005879       -0.0000004951       -0.0000010781
	            -0.0000002252        0.0000006256        0.0000000402
	             0.0000003345        0.0000007038       -0.0000002422
	             0.0000001006        0.0000003303        0.0000010248
	            -0.0000001344       -0.0000003618       -0.0000000809

	Previous optimization step data not found.  Starting new optimization.

	---Fragment 1 Intrafragment Coordinates---
	 - Coordinate -           - BOHR/RAD -       - ANG/DEG -
	 R(1,2)           =         2.061120	       1.090698
	 R(1,3)           =         2.061173	       1.090726
	 R(1,4)           =         2.059290	       1.089729
	 R(1,9)           =         2.879254	       1.523636
	 R(5,6)           =         2.058465	       1.089293
	 R(5,7)           =         2.062511	       1.091434
	 R(5,8)           =         2.059290	       1.089730
	 R(5,12)          =         2.881925	       1.525049
	 R(9,10)          =         2.066090	       1.093328
	 R(9,11)          =         2.065890	       1.093222
	 R(9,15)          =         2.879292	       1.523656
	 R(12,13)         =         2.064090	       1.092269
	 R(12,14)         =         2.066505	       1.093547
	 R(12,24)         =         2.885705	       1.527049
	 R(15,16)         =         2.070294	       1.095552
	 R(15,17)         =         2.065885	       1.093219
	 R(15,18)         =         2.880628	       1.524362
	 R(18,19)         =         2.069011	       1.094874
	 R(18,20)         =         2.067186	       1.093908
	 R(18,21)         =         2.885499	       1.526940
	 R(21,22)         =         2.066047	       1.093305
	 R(21,23)         =         2.068490	       1.094598
	 R(21,24)         =         2.883659	       1.525967
	 R(24,25)         =         2.068407	       1.094554
	 R(24,26)         =         2.066310	       1.093444
	 B(1,9,10)        =         1.915460	     109.747790
	 B(1,9,11)        =         1.916033	     109.780589
	 B(1,9,15)        =         1.963017	     112.472618
	 B(2,1,3)         =         1.879663	     107.696749
	 B(2,1,4)         =         1.883447	     107.913543
	 B(2,1,9)         =         1.932769	     110.739496
	 B(3,1,4)         =         1.883406	     107.911202
	 B(3,1,9)         =         1.932646	     110.732461
	 B(4,1,9)         =         1.949421	     111.693590
	 B(5,12,13)       =         1.905726	     109.190069
	 B(5,12,14)       =         1.913051	     109.609768
	 B(5,12,24)       =         1.974679	     113.140768
	 B(6,5,7)         =         1.881734	     107.815443
	 B(6,5,8)         =         1.878531	     107.631911
	 B(6,5,12)        =         1.946850	     111.546264
	 B(7,5,8)         =         1.882856	     107.879724
	 B(7,5,12)        =         1.930278	     110.596768
	 B(8,5,12)        =         1.940982	     111.210084
	 B(9,15,16)       =         1.907199	     109.274480
	 B(9,15,17)       =         1.900140	     108.870029
	 B(9,15,18)       =         1.968094	     112.763457
	 B(10,9,11)       =         1.857781	     106.442990
	 B(10,9,15)       =         1.903633	     109.070126
	 B(11,9,15)       =         1.904879	     109.141525
	 B(12,24,21)      =         1.979861	     113.437673
	 B(12,24,25)      =         1.907093	     109.268358
	 B(12,24,26)      =         1.899440	     108.829902
	 B(13,12,14)      =         1.859216	     106.525208
	 B(13,12,24)      =         1.903371	     109.055137
	 B(14,12,24)      =         1.904225	     109.104053
	 B(15,18,19)      =         1.905051	     109.151410
	 B(15,18,20)      =         1.896968	     108.688258
	 B(15,18,21)      =         1.985486	     113.759987
	 B(16,15,17)      =         1.858808	     106.501844
	 B(16,15,18)      =         1.905853	     109.197342
	 B(17,15,18)      =         1.920516	     110.037439
	 B(18,21,22)      =         1.899444	     108.830124
	 B(18,21,23)      =         1.906606	     109.240502
	 B(18,21,24)      =         1.979342	     113.407936
	 B(19,18,20)      =         1.858513	     106.484946
	 B(19,18,21)      =         1.907172	     109.272886
	 B(20,18,21)      =         1.906389	     109.228022
	 B(21,24,25)      =         1.895323	     108.594029
	 B(21,24,26)      =         1.918194	     109.904398
	 B(22,21,23)      =         1.859890	     106.563821
	 B(22,21,24)      =         1.919187	     109.961296
	 B(23,21,24)      =         1.895588	     108.609201
	 B(25,24,26)      =         1.860142	     106.578267
	 D(1,9,15,16)     =         1.026479	      58.812908
	 D(1,9,15,17)     =        -0.997164	     -57.133309
	 D(1,9,15,18)     =        -3.133772	    -179.551895
	 D(2,1,9,10)      =        -1.078899	     -61.816385
	 D(2,1,9,11)      =        -3.115023	    -178.477643
	 D(2,1,9,15)      =         1.043634	      59.795804
	 D(3,1,9,10)      =         3.120396	     178.785495
	 D(3,1,9,11)      =         1.084272	      62.124237
	 D(3,1,9,15)      =        -1.040257	     -59.602316
	 D(4,1,9,10)      =         1.020816	      58.488438
	 D(4,1,9,11)      =        -1.015307	     -58.172820
	 D(4,1,9,15)      =        -3.139836	    -179.899373
	 D(5,12,24,21)    =        -1.103157	     -63.206259
	 D(5,12,24,25)    =         3.062726	     175.481272
	 D(5,12,24,26)    =         1.037938	      59.469481
	 D(6,5,12,13)     =        -3.038788	    -174.109750
	 D(6,5,12,14)     =        -1.008252	     -57.768598
	 D(6,5,12,24)     =         1.121263	      64.243625
	 D(7,5,12,13)     =         1.150249	      65.904420
	 D(7,5,12,14)     =        -3.102400	    -177.754429
	 D(7,5,12,24)     =        -0.972885	     -55.742206
	 D(8,5,12,13)     =        -0.941447	     -53.940915
	 D(8,5,12,14)     =         1.089090	      62.400237
	 D(8,5,12,24)     =        -3.064581	    -175.587540
	 D(9,15,18,19)    =         1.084910	      62.160741
	 D(9,15,18,20)    =        -0.935457	     -53.597716
	 D(9,15,18,21)    =        -3.063391	    -175.519403
	 D(10,9,15,16)    =        -3.127454	    -179.189887
	 D(10,9,15,17)    =         1.132089	      64.863896
	 D(10,9,15,18)    =        -1.004519	     -57.554690
	 D(11,9,15,16)    =        -1.104380	     -63.276325
	 D(11,9,15,17)    =        -3.128023	    -179.222541
	 D(11,9,15,18)    =         1.018554	      58.358873
	 D(12,24,21,18)   =        -2.991313	    -171.389605
	 D(12,24,21,22)   =         1.160798	      66.508817
	 D(12,24,21,23)   =        -0.868198	     -49.744089
	 D(13,12,24,21)   =         3.055571	     175.071320
	 D(13,12,24,25)   =         0.938269	      53.758851
	 D(13,12,24,26)   =        -1.086519	     -62.252940
	 D(14,12,24,21)   =         1.031291	      59.088597
	 D(14,12,24,25)   =        -1.086011	     -62.223871
	 D(14,12,24,26)   =        -3.110799	    -178.235662
	 D(15,18,21,22)   =         1.040351	      59.607712
	 D(15,18,21,23)   =         3.064573	     175.587073
	 D(15,18,21,24)   =        -1.101670	     -63.121060
	 D(16,15,18,19)   =        -3.074579	    -176.160406
	 D(16,15,18,20)   =         1.188240	      68.081136
	 D(16,15,18,21)   =        -0.939695	     -53.840551
	 D(17,15,18,19)   =        -1.040220	     -59.600241
	 D(17,15,18,20)   =        -3.060587	    -175.358698
	 D(17,15,18,21)   =         1.094664	      62.719615
	 D(18,21,24,25)   =        -0.867424	     -49.699728
	 D(18,21,24,26)   =         1.161173	      66.530331
	 D(19,18,21,22)   =        -3.109120	    -178.139430
	 D(19,18,21,23)   =        -1.084898	     -62.160069
	 D(19,18,21,24)   =         1.032045	      59.131798
	 D(20,18,21,22)   =        -1.082359	     -62.014603
	 D(20,18,21,23)   =         0.941863	      53.964758
	 D(20,18,21,24)   =         3.058805	     175.256625
	 D(22,21,24,25)   =        -2.998498	    -171.801307
	 D(22,21,24,26)   =        -0.969901	     -55.571247
	 D(23,21,24,25)   =         1.255691	      71.945787
	 D(23,21,24,26)   =        -2.998897	    -171.824154

	Current energy   :      -314.9838394003

	Generating empirical Hessian (Schlegel '84) for each fragment.
	Taking RFO optimization step.
	Going to follow RFO solution 1.
	Using RFO vector 1.
	Norm of target step-size    0.00031
	Projected energy change by RFO approximation:        -0.0000000003

	Back-transformation to cartesian coordinates...
	Successfully converged to displaced geometry.

	--- Internal Coordinate Step in ANG or DEG, aJ/ANG or AJ/DEG ---
	 ---------------------------------------------------------------------------
	   Coordinate                Previous        Force       Change         New 
	   ----------                --------       ------       ------       ------
	    1 R(1,2)          =      1.090698     0.000011     0.000002     1.090700
	    2 R(1,3)          =      1.090726     0.000011     0.000002     1.090728
	    3 R(1,4)          =      1.089729     0.000008     0.000001     1.089731
	    4 R(1,9)          =      1.523636     0.000003     0.000001     1.523636
	    5 R(5,6)          =      1.089293     0.000003     0.000000     1.089293
	    6 R(5,7)          =      1.091434     0.000002     0.000000     1.091434
	    7 R(5,8)          =      1.089730     0.000000     0.000000     1.089730
	    8 R(5,12)         =      1.525049     0.000000     0.000000     1.525049
	    9 R(9,10)         =      1.093328     0.000016     0.000003     1.093331
	   10 R(9,11)         =      1.093222     0.000017     0.000003     1.093225
	   11 R(9,15)         =      1.523656     0.000009     0.000002     1.523658
	   12 R(12,13)        =      1.092269     0.000001     0.000000     1.092270
	   13 R(12,14)        =      1.093547     0.000003     0.000000     1.093548
	   14 R(12,24)        =      1.527049    -0.000004    -0.000001     1.527049
	   15 R(15,16)        =      1.095552     0.000020     0.000004     1.095556
	   16 R(15,17)        =      1.093219     0.000017     0.000003     1.093222
	   17 R(15,18)        =      1.524362     0.000006     0.000001     1.524364
	   18 R(18,19)        =      1.094874     0.000016     0.000003     1.094877
	   19 R(18,20)        =      1.093908     0.000012     0.000002     1.093910
	   20 R(18,21)        =      1.526940     0.000002     0.000000     1.526941
	   21 R(21,22)        =      1.093305     0.000010     0.000002     1.093307
	   22 R(21,23)        =      1.094598     0.000005     0.000001     1.094599
	   23 R(21,24)        =      1.525967    -0.000002    -0.000000     1.525966
	   24 R(24,25)        =      1.094554     0.000009     0.000002     1.094555
	   25 R(24,26)        =      1.093444     0.000002     0.000000     1.093445
	   26 B(1,9,10)       =    109.747790     0.000000    -0.000074   109.747716
	   27 B(1,9,11)       =    109.780589    -0.000000    -0.000046   109.780542
	   28 B(1,9,15)       =    112.472618    -0.000000    -0.000059   112.472559
	   29 B(2,1,3)        =    107.696749    -0.000000    -0.000032   107.696717
	   30 B(2,1,4)        =    107.913543     0.000000    -0.000020   107.913522
	   31 B(2,1,9)        =    110.739496     0.000000     0.000070   110.739566
	   32 B(3,1,4)        =    107.911202    -0.000000    -0.000009   107.911193
	   33 B(3,1,9)        =    110.732461     0.000000     0.000106   110.732567
	   34 B(4,1,9)        =    111.693590    -0.000000    -0.000117   111.693474
	   35 B(5,12,13)      =    109.190069     0.000000     0.000247   109.190316
	   36 B(5,12,14)      =    109.609768     0.000000    -0.000074   109.609694
	   37 B(5,12,24)      =    113.140768    -0.000000    -0.000345   113.140422
	   38 B(6,5,7)        =    107.815443     0.000000    -0.000031   107.815412
	   39 B(6,5,8)        =    107.631911     0.000000     0.000043   107.631954
	   40 B(6,5,12)       =    111.546264    -0.000000    -0.000044   111.546220
	   41 B(7,5,8)        =    107.879724     0.000000     0.000037   107.879761
	   42 B(7,5,12)       =    110.596768    -0.000000    -0.000046   110.596722
	   43 B(8,5,12)       =    111.210084     0.000000     0.000043   111.210127
	   44 B(9,15,16)      =    109.274480    -0.000000     0.000055   109.274535
	   45 B(9,15,17)      =    108.870029     0.000000     0.000021   108.870049
	   46 B(9,15,18)      =    112.763457     0.000000     0.000164   112.763621
	   47 B(10,9,11)      =    106.442990    -0.000000    -0.000123   106.442867
	   48 B(10,9,15)      =    109.070126     0.000000     0.000058   109.070184
	   49 B(11,9,15)      =    109.141525     0.000000     0.000243   109.141768
	   50 B(12,24,21)     =    113.437673    -0.000000    -0.000386   113.437287
	   51 B(12,24,25)     =    109.268358     0.000000     0.000245   109.268603
	   52 B(12,24,26)     =    108.829902     0.000000    -0.000266   108.829636
	   53 B(13,12,14)     =    106.525208    -0.000000     0.000087   106.525295
	   54 B(13,12,24)     =    109.055137     0.000000     0.000179   109.055316
	   55 B(14,12,24)     =    109.104053     0.000000    -0.000067   109.103987
	   56 B(15,18,19)     =    109.151410     0.000000     0.000149   109.151559
	   57 B(15,18,20)     =    108.688258    -0.000000    -0.000099   108.688159
	   58 B(15,18,21)     =    113.759987     0.000000     0.000082   113.760069
	   59 B(16,15,17)     =    106.501844    -0.000000    -0.000221   106.501624
	   60 B(16,15,18)     =    109.197342     0.000000     0.000114   109.197455
	   61 B(17,15,18)     =    110.037439    -0.000000    -0.000155   110.037285
	   62 B(18,21,22)     =    108.830124     0.000000     0.000271   108.830395
	   63 B(18,21,23)     =    109.240502     0.000000    -0.000087   109.240416
	   64 B(18,21,24)     =    113.407936    -0.000000    -0.000102   113.407834
	   65 B(19,18,20)     =    106.484946     0.000000     0.000056   106.485003
	   66 B(19,18,21)     =    109.272886    -0.000000    -0.000040   109.272846
	   67 B(20,18,21)     =    109.228022    -0.000000    -0.000150   109.227872
	   68 B(21,24,25)     =    108.594029     0.000000     0.000409   108.594437
	   69 B(21,24,26)     =    109.904398     0.000000    -0.000089   109.904309
	   70 B(22,21,23)     =    106.563821    -0.000000    -0.000032   106.563789
	   71 B(22,21,24)     =    109.961296     0.000000     0.000062   109.961357
	   72 B(23,21,24)     =    108.609201     0.000000    -0.000110   108.609091
	   73 B(25,24,26)     =    106.578267    -0.000000     0.000122   106.578389
	   74 D(1,9,15,16)    =     58.812908    -0.000000     0.000502    58.813410
	   75 D(1,9,15,17)    =    -57.133309     0.000000     0.000724   -57.132585
	   76 D(1,9,15,18)    =   -179.551895     0.000000     0.000796  -179.551098
	   77 D(2,1,9,10)     =    -61.816385    -0.000000    -0.000419   -61.816804
	   78 D(2,1,9,11)     =   -178.477643     0.000000    -0.000199  -178.477842
	   79 D(2,1,9,15)     =     59.795804    -0.000000    -0.000437    59.795366
	   80 D(3,1,9,10)     =    178.785495    -0.000000    -0.000492   178.785003
	   81 D(3,1,9,11)     =     62.124237     0.000000    -0.000273    62.123964
	   82 D(3,1,9,15)     =    -59.602316    -0.000000    -0.000511   -59.602827
	   83 D(4,1,9,10)     =     58.488438    -0.000000    -0.000475    58.487963
	   84 D(4,1,9,11)     =    -58.172820     0.000000    -0.000256   -58.173076
	   85 D(4,1,9,15)     =   -179.899373    -0.000000    -0.000494  -179.899867
	   86 D(5,12,24,21)   =    -63.206259     0.000000     0.004133   -63.202126
	   87 D(5,12,24,25)   =    175.481272     0.000000     0.003692   175.484964
	   88 D(5,12,24,26)   =     59.469481     0.000000     0.003559    59.473041
	   89 D(6,5,12,13)    =   -174.109750    -0.000000    -0.001655  -174.111405
	   90 D(6,5,12,14)    =    -57.768598     0.000000    -0.001452   -57.770050
	   91 D(6,5,12,24)    =     64.243625    -0.000000    -0.001829    64.241796
	   92 D(7,5,12,13)    =     65.904420    -0.000000    -0.001557    65.902863
	   93 D(7,5,12,14)    =   -177.754429     0.000000    -0.001353  -177.755782
	   94 D(7,5,12,24)    =    -55.742206    -0.000000    -0.001730   -55.743936
	   95 D(8,5,12,13)    =    -53.940915    -0.000000    -0.001601   -53.942515
	   96 D(8,5,12,14)    =     62.400237     0.000000    -0.001398    62.398839
	   97 D(8,5,12,24)    =   -175.587540    -0.000000    -0.001774  -175.589314
	   98 D(9,15,18,19)   =     62.160741    -0.000000    -0.001579    62.159162
	   99 D(9,15,18,20)   =    -53.597716    -0.000000    -0.001673   -53.599390
	  100 D(9,15,18,21)   =   -175.519403    -0.000000    -0.001464  -175.520867
	  101 D(10,9,15,16)   =   -179.189887    -0.000000     0.000410  -179.189478
	  102 D(10,9,15,17)   =     64.863896    -0.000000     0.000631    64.864528
	  103 D(10,9,15,18)   =    -57.554690     0.000000     0.000703   -57.553986
	  104 D(11,9,15,16)   =    -63.276325    -0.000000     0.000429   -63.275896
	  105 D(11,9,15,17)   =   -179.222541     0.000000     0.000651  -179.221890
	  106 D(11,9,15,18)   =     58.358873     0.000000     0.000723    58.359596
	  107 D(12,24,21,18)  =   -171.389605    -0.000000    -0.003301  -171.392905
	  108 D(12,24,21,22)  =     66.508817    -0.000000    -0.003625    66.505191
	  109 D(12,24,21,23)  =    -49.744089    -0.000000    -0.003558   -49.747648
	  110 D(13,12,24,21)  =    175.071320     0.000000     0.003921   175.075240
	  111 D(13,12,24,25)  =     53.758851     0.000000     0.003480    53.762331
	  112 D(13,12,24,26)  =    -62.252940    -0.000000     0.003347   -62.249592
	  113 D(14,12,24,21)  =     59.088597     0.000000     0.003755    59.092352
	  114 D(14,12,24,25)  =    -62.223871    -0.000000     0.003315   -62.220557
	  115 D(14,12,24,26)  =   -178.235662    -0.000000     0.003182  -178.232481
	  116 D(15,18,21,22)  =     59.607712    -0.000000    -0.002783    59.604929
	  117 D(15,18,21,23)  =    175.587073    -0.000000    -0.002719   175.584354
	  118 D(15,18,21,24)  =    -63.121060    -0.000000    -0.002991   -63.124051
	  119 D(16,15,18,19)  =   -176.160406     0.000000    -0.001319  -176.161725
	  120 D(16,15,18,20)  =     68.081136     0.000000    -0.001413    68.079723
	  121 D(16,15,18,21)  =    -53.840551     0.000000    -0.001203   -53.841754
	  122 D(17,15,18,19)  =    -59.600241    -0.000000    -0.001608   -59.601848
	  123 D(17,15,18,20)  =   -175.358698    -0.000000    -0.001702  -175.360400
	  124 D(17,15,18,21)  =     62.719615    -0.000000    -0.001492    62.718123
	  125 D(18,21,24,25)  =    -49.699728    -0.000000    -0.002951   -49.702679
	  126 D(18,21,24,26)  =     66.530331     0.000000    -0.002621    66.527710
	  127 D(19,18,21,22)  =   -178.139430     0.000000    -0.002563  -178.141993
	  128 D(19,18,21,23)  =    -62.160069     0.000000    -0.002499   -62.162568
	  129 D(19,18,21,24)  =     59.131798    -0.000000    -0.002771    59.129027
	  130 D(20,18,21,22)  =    -62.014603    -0.000000    -0.002602   -62.017206
	  131 D(20,18,21,23)  =     53.964758     0.000000    -0.002538    53.962220
	  132 D(20,18,21,24)  =    175.256625    -0.000000    -0.002810   175.253815
	  133 D(22,21,24,25)  =   -171.801307    -0.000000    -0.003275  -171.804582
	  134 D(22,21,24,26)  =    -55.571247     0.000000    -0.002946   -55.574193
	  135 D(23,21,24,25)  =     71.945787    -0.000000    -0.003208    71.942579
	  136 D(23,21,24,26)  =   -171.824154     0.000000    -0.002879  -171.827032
	 ---------------------------------------------------------------------------

  ==> Convergence Check <==

  Measures of convergence in internal coordinates in au.
  Criteria marked as inactive (o), active & met (*), and active & unmet ( ).
  --------------------------------------------------------------------------------------------- ~
   Step     Total Energy     Delta E     MAX Force     RMS Force      MAX Disp      RMS Disp    ~
  --------------------------------------------------------------------------------------------- ~
    Convergence Criteria             o    2.00e-06 *    1.00e-06 *    6.00e-06 *    4.00e-06 *  ~
  --------------------------------------------------------------------------------------------- ~
      1    -314.98383940   -3.15e+02 o    2.43e-06      5.48e-07 *    7.21e-05      2.69e-05    ~
  ---------------------------------------------------------------------------------------------

	Writing optimization data to binary file.
	Structure for next step:
	Cartesian Geometry (in Angstrom)
	    C    -3.8241816293   1.0595502361   0.0040524866
	    H    -3.5546259813   1.7119529328  -0.8274140010
	    H    -3.6844167930   1.6237585110   0.9269945904
	    H    -4.8838416901   0.8219033122  -0.0862666690
	    C     3.4829248052   0.7899502837   0.6724684398
	    H     3.2044006139   0.2140478373   1.5541262763
	    H     3.0271124439   1.7776794237   0.7610943510
	    H     4.5649607553   0.9180021105   0.6901214134
	    C    -2.9631460525  -0.1974638306   0.0046609917
	    H    -3.1317010347  -0.7611367137  -0.9168782382
	    H    -3.2642535792  -0.8517600074   0.8270789602
	    C     3.0294881769   0.1030778466  -0.6114224660
	    H     3.4174116943   0.6552424502  -1.4703069071
	    H     3.4633589388  -0.8993214915  -0.6643205963
	    C    -1.4772673404   0.1144660385   0.1327096974
	    H    -1.3025285779   0.6668611826   1.0625318269
	    H    -1.1840537430   0.7799068728  -0.6835926035
	    C    -0.6086513045  -1.1381702243   0.1230557003
	    H    -0.7321114682  -1.6535093530  -0.8350350661
	    H    -0.9735220542  -1.8236618481   0.8935163367
	    C     0.8742332816  -0.8603788905   0.3584990448
	    H     0.9923583074  -0.3758550383   1.3314342934
	    H     1.4146191106  -1.8105827954   0.4154358266
	    C     1.5108324249  -0.0026955377  -0.7313143619
	    H     1.2543220432  -0.4297421458  -1.7059349559
	    H     1.0841536751   1.0038318575  -0.7096620178
			--------------------------
			 OPTKING Finished Execution 
			--------------------------

    Structure for next step:
    Molecular point group: c1
    Full point group: C1

    Geometry (in Angstrom), charge = 0, multiplicity = 1:

    C           -3.824183158982     1.059550982444     0.004053869981
    H           -3.554627511030     1.711953679143    -0.827412617645
    H           -3.684418322692     1.623759257335     0.926995973738
    H           -4.883843219753     0.821904058556    -0.086265285588
    C            3.482923275526     0.789951030057     0.672469823147
    H            3.204399084197     0.214048583616     1.554127659701
    H            3.027110914211     1.777680169993     0.761095734383
    H            4.564959225658     0.918002856815     0.690122796817
    C           -2.963147582215    -0.197463084307     0.004662375046
    H           -3.131702564360    -0.761135967360    -0.916876854803
    H           -3.264255108864    -0.851759261071     0.827080343543
    C            3.029486647265     0.103078592930    -0.611421082663
    H            3.417410164633     0.655243196567    -1.470305523705
    H            3.463357409079    -0.899320745143    -0.664319212906
    C           -1.477268870107     0.114466784861     0.132711080731
    H           -1.302530107568     0.666861928929     1.062533210287
    H           -1.184055272645     0.779907619087    -0.683591220174
    C           -0.608652834164    -1.138169477980     0.123057083718
    H           -0.732112997897    -1.653508606637    -0.835033682777
    H           -0.973523583900    -1.823661101763     0.893517720097
    C            0.874231751937    -0.860378144186     0.358500428141
    H            0.992356777699    -0.375854291944     1.331435676797
    H            1.414617580946    -1.810582049020     0.415437209974
    C            1.510830895264    -0.002694791378    -0.731312978489
    H            1.254320513492    -0.429741399447    -1.705933572577
    H            1.084152145380     1.003832603874    -0.709660634469

gradient() will perform analytic gradient computation.

*** tstart() called on wr40
*** at Wed Sep 21 05:05:41 2016


         ---------------------------------------------------------
                                   SCF
            by Justin Turney, Rob Parrish, and Andy Simmonett
                              RHF Reference
                       12 Threads,  60000 MiB Core
         ---------------------------------------------------------

  ==> Geometry <==

    Molecular point group: c1
    Full point group: C1

    Geometry (in Angstrom), charge = 0, multiplicity = 1:

       Center              X                  Y                   Z               Mass       
    ------------   -----------------  -----------------  -----------------  -----------------
           C         -3.824183158982     1.059550982444     0.004053869981    12.000000000000
           H         -3.554627511030     1.711953679143    -0.827412617645     1.007825032070
           H         -3.684418322692     1.623759257335     0.926995973738     1.007825032070
           H         -4.883843219753     0.821904058556    -0.086265285588     1.007825032070
           C          3.482923275526     0.789951030057     0.672469823147    12.000000000000
           H          3.204399084197     0.214048583616     1.554127659701     1.007825032070
           H          3.027110914211     1.777680169993     0.761095734383     1.007825032070
           H          4.564959225658     0.918002856815     0.690122796817     1.007825032070
           C         -2.963147582215    -0.197463084307     0.004662375046    12.000000000000
           H         -3.131702564360    -0.761135967360    -0.916876854803     1.007825032070
           H         -3.264255108864    -0.851759261071     0.827080343543     1.007825032070
           C          3.029486647265     0.103078592930    -0.611421082663    12.000000000000
           H          3.417410164633     0.655243196567    -1.470305523705     1.007825032070
           H          3.463357409079    -0.899320745143    -0.664319212906     1.007825032070
           C         -1.477268870107     0.114466784861     0.132711080731    12.000000000000
           H         -1.302530107568     0.666861928929     1.062533210287     1.007825032070
           H         -1.184055272645     0.779907619087    -0.683591220174     1.007825032070
           C         -0.608652834164    -1.138169477980     0.123057083718    12.000000000000
           H         -0.732112997897    -1.653508606637    -0.835033682777     1.007825032070
           H         -0.973523583900    -1.823661101763     0.893517720097     1.007825032070
           C          0.874231751937    -0.860378144186     0.358500428141    12.000000000000
           H          0.992356777699    -0.375854291944     1.331435676797     1.007825032070
           H          1.414617580946    -1.810582049020     0.415437209974     1.007825032070
           C          1.510830895264    -0.002694791378    -0.731312978489    12.000000000000
           H          1.254320513492    -0.429741399447    -1.705933572577     1.007825032070
           H          1.084152145380     1.003832603874    -0.709660634469     1.007825032070

  Running in c1 symmetry.

  Rotational constants: A =      0.15800  B =      0.02145  C =      0.02054 [cm^-1]
  Rotational constants: A =   4736.84436  B =    643.13571  C =    615.83133 [MHz]
  Nuclear repulsion =  386.935768324815854

  Charge       = 0
  Multiplicity = 1
  Electrons    = 66
  Nalpha       = 33
  Nbeta        = 33

  ==> Algorithm <==

  SCF Algorithm Type is DF.
  DIIS enabled.
  MOM disabled.
  Fractional occupation disabled.
  Guess Type is READ.
  Energy threshold   = 1.00e-10
  Density threshold  = 1.00e-10
  Integral threshold = 0.00e+00

  ==> Primary Basis <==

  Basis Set: AUG-CC-PVTZ
    Number of shells: 274
    Number of basis function: 782
    Number of Cartesian functions: 890
    Spherical Harmonics?: true
    Max angular momentum: 3

  ==> Pre-Iterations <==

   -------------------------------------------------------
    Irrep   Nso     Nmo     Nalpha   Nbeta   Ndocc  Nsocc
   -------------------------------------------------------
     A        782     782       0       0       0       0
   -------------------------------------------------------
    Total     782     782      33      33      33       0
   -------------------------------------------------------

  ==> Integral Setup <==

  ==> DFJK: Density-Fitted J/K Matrices <==

    J tasked:                  Yes
    K tasked:                  Yes
    wK tasked:                  No
    OpenMP threads:             12
    Integrals threads:          12
    Memory (MB):             42915
    Algorithm:                Core
    Integral Cache:           NONE
    Schwarz Cutoff:          1E-12
    Fitting Condition:       1E-12

   => Auxiliary Basis Set <=

  Basis Set: 
    Number of shells: 492
    Number of basis function: 1660
    Number of Cartesian functions: 2038
    Spherical Harmonics?: true
    Max angular momentum: 4

  Minimum eigenvalue in the overlap matrix is 2.0229624924E-06.
  Using Symmetric Orthogonalization.
  SCF Guess: Reading in previously saved MOs, projecting if necessary.

  Using orbitals from previous SCF, no projection.
  Recomputing DOCC and SOCC from number of alpha and beta electrons from previous calculation.
              A 
    DOCC [    33 ]

  ==> Iterations <==

                           Total Energy        Delta E     RMS |[F,P]|

   @DF-RHF iter   0:  -313.54395588409329   -3.13544e+02   1.49535e-07 
   @DF-RHF iter   1:  -313.54401193222986   -5.60481e-05   3.55782e-08 
   @DF-RHF iter   2:  -313.54401193287049   -6.40625e-10   1.52747e-08 DIIS
   @DF-RHF iter   3:  -313.54401193296690   -9.64064e-11   5.33423e-09 DIIS
   @DF-RHF iter   4:  -313.54401193298611   -1.92131e-11   6.57613e-10 DIIS
   @DF-RHF iter   5:  -313.54401193298622   -1.13687e-13   2.35578e-10 DIIS
   @DF-RHF iter   6:  -313.54401193298668   -4.54747e-13   5.19466e-11 DIIS

  ==> Post-Iterations <==

    Orbital Energies (a.u.)
    -----------------------

    Doubly Occupied:                                                      

       1A    -11.212625     2A    -11.212228     3A    -11.210466  
       4A    -11.210000     5A    -11.209470     6A    -11.209232  
       7A    -11.206948     8A    -11.206401     9A     -1.094031  
      10A     -1.061032    11A     -1.010686    12A     -0.944056  
      13A     -0.887239    14A     -0.819457    15A     -0.793314  
      16A     -0.761188    17A     -0.647793    18A     -0.626036  
      19A     -0.610366    20A     -0.595946    21A     -0.573519  
      22A     -0.561628    23A     -0.545355    24A     -0.527051  
      25A     -0.522864    26A     -0.495873    27A     -0.487105  
      28A     -0.472505    29A     -0.467622    30A     -0.460658  
      31A     -0.450040    32A     -0.439777    33A     -0.434348  

    Virtual:                                                              

      34A      0.030451    35A      0.032206    36A      0.034546  
      37A      0.035686    38A      0.043800    39A      0.048173  
      40A      0.049183    41A      0.054687    42A      0.056430  
      43A      0.062116    44A      0.067114    45A      0.070030  
      46A      0.073211    47A      0.082256    48A      0.087048  
      49A      0.090615    50A      0.097992    51A      0.109296  
      52A      0.111880    53A      0.114466    54A      0.116887  
      55A      0.121407    56A      0.123125    57A      0.130154  
      58A      0.132203    59A      0.136050    60A      0.141039  
      61A      0.145693    62A      0.147807    63A      0.150717  
      64A      0.154647    65A      0.157410    66A      0.161968  
      67A      0.164592    68A      0.167213    69A      0.168589  
      70A      0.173743    71A      0.179220    72A      0.188807  
      73A      0.192192    74A      0.195302    75A      0.198842  
      76A      0.212643    77A      0.215589    78A      0.225609  
      79A      0.233933    80A      0.237687    81A      0.242638  
      82A      0.246442    83A      0.253116    84A      0.259421  
      85A      0.267034    86A      0.272155    87A      0.273013  
      88A      0.278740    89A      0.283441    90A      0.291840  
      91A      0.294068    92A      0.297889    93A      0.306350  
      94A      0.311593    95A      0.316222    96A      0.316874  
      97A      0.321918    98A      0.324643    99A      0.331498  
     100A      0.334951   101A      0.334970   102A      0.339732  
     103A      0.348475   104A      0.354179   105A      0.355737  
     106A      0.356710   107A      0.358770   108A      0.363243  
     109A      0.368387   110A      0.372294   111A      0.375391  
     112A      0.382856   113A      0.384600   114A      0.388279  
     115A      0.390546   116A      0.391567   117A      0.394117  
     118A      0.398924   119A      0.404774   120A      0.407034  
     121A      0.411675   122A      0.415163   123A      0.419208  
     124A      0.422662   125A      0.425879   126A      0.434060  
     127A      0.438645   128A      0.443325   129A      0.446630  
     130A      0.452797   131A      0.453931   132A      0.459134  
     133A      0.460033   134A      0.462995   135A      0.468311  
     136A      0.470536   137A      0.474816   138A      0.475483  
     139A      0.478294   140A      0.482146   141A      0.486224  
     142A      0.491440   143A      0.492541   144A      0.499338  
     145A      0.500785   146A      0.507217   147A      0.509807  
     148A      0.514994   149A      0.518839   150A      0.522373  
     151A      0.525604   152A      0.529399   153A      0.532100  
     154A      0.534533   155A      0.535223   156A      0.539408  
     157A      0.546446   158A      0.552395   159A      0.556245  
     160A      0.561108   161A      0.567589   162A      0.569731  
     163A      0.573877   164A      0.575890   165A      0.587857  
     166A      0.589829   167A      0.593311   168A      0.599324  
     169A      0.605090   170A      0.612087   171A      0.613570  
     172A      0.616721   173A      0.621043   174A      0.633112  
     175A      0.636186   176A      0.638233   177A      0.642904  
     178A      0.644823   179A      0.649227   180A      0.655432  
     181A      0.665779   182A      0.670719   183A      0.672535  
     184A      0.679774   185A      0.691784   186A      0.692796  
     187A      0.710197   188A      0.711867   189A      0.715182  
     190A      0.721708   191A      0.726075   192A      0.728417  
     193A      0.736028   194A      0.746155   195A      0.751299  
     196A      0.753352   197A      0.760010   198A      0.777955  
     199A      0.779679   200A      0.790660   201A      0.800047  
     202A      0.807640   203A      0.820285   204A      0.826799  
     205A      0.831713   206A      0.833817   207A      0.837852  
     208A      0.849180   209A      0.853321   210A      0.856802  
     211A      0.861541   212A      0.866415   213A      0.875441  
     214A      0.879170   215A      0.882737   216A      0.884527  
     217A      0.888583   218A      0.896570   219A      0.899211  
     220A      0.905646   221A      0.908882   222A      0.915107  
     223A      0.920409   224A      0.929135   225A      0.932706  
     226A      0.941441   227A      0.942926   228A      0.943405  
     229A      0.946418   230A      0.948433   231A      0.955499  
     232A      0.958396   233A      0.962862   234A      0.965612  
     235A      0.975437   236A      0.982231   237A      0.985069  
     238A      0.989791   239A      0.995944   240A      1.002929  
     241A      1.006335   242A      1.010866   243A      1.014564  
     244A      1.020249   245A      1.029066   246A      1.035369  
     247A      1.041260   248A      1.044547   249A      1.048302  
     250A      1.057038   251A      1.057135   252A      1.068445  
     253A      1.075809   254A      1.079663   255A      1.082452  
     256A      1.090827   257A      1.093379   258A      1.097808  
     259A      1.103109   260A      1.107647   261A      1.113401  
     262A      1.118256   263A      1.122114   264A      1.125981  
     265A      1.129769   266A      1.133099   267A      1.138121  
     268A      1.147865   269A      1.150874   270A      1.154254  
     271A      1.158625   272A      1.162113   273A      1.177086  
     274A      1.186670   275A      1.187511   276A      1.188880  
     277A      1.200526   278A      1.201094   279A      1.204290  
     280A      1.211892   281A      1.216330   282A      1.218971  
     283A      1.224323   284A      1.228230   285A      1.232964  
     286A      1.241974   287A      1.245071   288A      1.248180  
     289A      1.259866   290A      1.261301   291A      1.269231  
     292A      1.272102   293A      1.278713   294A      1.285921  
     295A      1.287784   296A      1.293217   297A      1.298911  
     298A      1.303508   299A      1.307059   300A      1.320701  
     301A      1.324928   302A      1.328775   303A      1.332183  
[...]
	    5 R(5,6)          =      1.089293     0.000000     0.000000     1.089293
	    6 R(5,7)          =      1.091434     0.000000     0.000000     1.091434
	    7 R(5,8)          =      1.089730     0.000000     0.000000     1.089730
	    8 R(5,12)         =      1.525049    -0.000000    -0.000000     1.525049
	    9 R(9,10)         =      1.093331    -0.000000    -0.000000     1.093331
	   10 R(9,11)         =      1.093225    -0.000001    -0.000000     1.093225
	   11 R(9,15)         =      1.523656     0.000001     0.000000     1.523657
	   12 R(12,13)        =      1.092270     0.000001     0.000000     1.092270
	   13 R(12,14)        =      1.093548     0.000000     0.000000     1.093548
	   14 R(12,24)        =      1.527050    -0.000001    -0.000000     1.527050
	   15 R(15,16)        =      1.095556     0.000000    -0.000000     1.095556
	   16 R(15,17)        =      1.093223     0.000000    -0.000000     1.093223
	   17 R(15,18)        =      1.524363     0.000001     0.000000     1.524363
	   18 R(18,19)        =      1.094877    -0.000000    -0.000000     1.094876
	   19 R(18,20)        =      1.093910    -0.000001    -0.000000     1.093910
	   20 R(18,21)        =      1.526941    -0.000000    -0.000000     1.526941
	   21 R(21,22)        =      1.093307    -0.000001    -0.000000     1.093307
	   22 R(21,23)        =      1.094599    -0.000001    -0.000000     1.094599
	   23 R(21,24)        =      1.525966     0.000000     0.000000     1.525966
	   24 R(24,25)        =      1.094555     0.000001     0.000000     1.094556
	   25 R(24,26)        =      1.093445     0.000000     0.000000     1.093445
	   26 B(1,9,10)       =    109.747746    -0.000000    -0.000006   109.747740
	   27 B(1,9,11)       =    109.780527    -0.000000    -0.000002   109.780526
	   28 B(1,9,15)       =    112.472541    -0.000000    -0.000003   112.472538
	   29 B(2,1,3)        =    107.696697     0.000000     0.000002   107.696699
	   30 B(2,1,4)        =    107.913519    -0.000000    -0.000000   107.913519
	   31 B(2,1,9)        =    110.739569    -0.000000    -0.000004   110.739565
	   32 B(3,1,4)        =    107.911183     0.000000     0.000003   107.911186
	   33 B(3,1,9)        =    110.732580    -0.000000    -0.000010   110.732570
	   34 B(4,1,9)        =    111.693490     0.000000     0.000009   111.693499
	   35 B(5,12,13)      =    109.190130     0.000000    -0.000001   109.190130
	   36 B(5,12,14)      =    109.609761     0.000000    -0.000005   109.609755
	   37 B(5,12,24)      =    113.140610    -0.000000     0.000008   113.140618
	   38 B(6,5,7)        =    107.815427     0.000000    -0.000000   107.815427
	   39 B(6,5,8)        =    107.631904     0.000000     0.000004   107.631908
	   40 B(6,5,12)       =    111.546303    -0.000000    -0.000001   111.546302
	   41 B(7,5,8)        =    107.879741     0.000000     0.000002   107.879743
	   42 B(7,5,12)       =    110.596740    -0.000000     0.000002   110.596742
	   43 B(8,5,12)       =    111.210078    -0.000000    -0.000006   111.210072
	   44 B(9,15,16)      =    109.274471    -0.000000    -0.000014   109.274457
	   45 B(9,15,17)      =    108.870011    -0.000000    -0.000001   108.870010
	   46 B(9,15,18)      =    112.763714     0.000000     0.000013   112.763726
	   47 B(10,9,11)      =    106.442833     0.000000     0.000005   106.442838
	   48 B(10,9,15)      =    109.070228    -0.000000    -0.000005   109.070223
	   49 B(11,9,15)      =    109.141760     0.000000     0.000011   109.141771
	   50 B(12,24,21)     =    113.437483    -0.000000    -0.000025   113.437458
	   51 B(12,24,25)     =    109.268483     0.000000     0.000005   109.268488
	   52 B(12,24,26)     =    108.829667     0.000000     0.000005   108.829672
	   53 B(13,12,14)     =    106.525238     0.000000     0.000003   106.525241
	   54 B(13,12,24)     =    109.055182     0.000000     0.000003   109.055185
	   55 B(14,12,24)     =    109.104093    -0.000000    -0.000008   109.104085
	   56 B(15,18,19)     =    109.151553     0.000000     0.000017   109.151570
	   57 B(15,18,20)     =    108.688139    -0.000000    -0.000015   108.688123
	   58 B(15,18,21)     =    113.760113     0.000000     0.000005   113.760118
	   59 B(16,15,17)     =    106.501576     0.000000     0.000003   106.501579
	   60 B(16,15,18)     =    109.197386    -0.000000    -0.000005   109.197381
	   61 B(17,15,18)     =    110.037403    -0.000000     0.000003   110.037407
	   62 B(18,21,22)     =    108.830284     0.000000     0.000021   108.830304
	   63 B(18,21,23)     =    109.240406     0.000000    -0.000008   109.240398
	   64 B(18,21,24)     =    113.407987    -0.000000    -0.000012   113.407974
	   65 B(19,18,20)     =    106.484947    -0.000000    -0.000011   106.484937
	   66 B(19,18,21)     =    109.272863    -0.000000     0.000006   109.272869
	   67 B(20,18,21)     =    109.227886    -0.000000    -0.000003   109.227883
	   68 B(21,24,25)     =    108.594212     0.000000     0.000005   108.594217
	   69 B(21,24,26)     =    109.904461     0.000000    -0.000010   109.904451
	   70 B(22,21,23)     =    106.563786    -0.000000    -0.000014   106.563772
	   71 B(22,21,24)     =    109.961347     0.000000     0.000025   109.961371
	   72 B(23,21,24)     =    108.609063     0.000000    -0.000012   108.609051
	   73 B(25,24,26)     =    106.578338     0.000000     0.000023   106.578361
	   74 D(1,9,15,16)    =     58.812767     0.000000     0.000103    58.812870
	   75 D(1,9,15,17)    =    -57.133115     0.000000     0.000108   -57.133007
	   76 D(1,9,15,18)    =   -179.551815     0.000000     0.000096  -179.551719
	   77 D(2,1,9,10)     =    -61.816625    -0.000000    -0.000105   -61.816730
	   78 D(2,1,9,11)     =   -178.477632     0.000000    -0.000106  -178.477738
	   79 D(2,1,9,15)     =     59.795610    -0.000000    -0.000117    59.795493
	   80 D(3,1,9,10)     =    178.785197     0.000000    -0.000098   178.785098
	   81 D(3,1,9,11)     =     62.124190     0.000000    -0.000100    62.124090
	   82 D(3,1,9,15)     =    -59.602568    -0.000000    -0.000111   -59.602679
	   83 D(4,1,9,10)     =     58.488151    -0.000000    -0.000102    58.488049
	   84 D(4,1,9,11)     =    -58.172856     0.000000    -0.000103   -58.172959
	   85 D(4,1,9,15)     =   -179.899614    -0.000000    -0.000114  -179.899728
	   86 D(5,12,24,21)   =    -63.205698     0.000000    -0.000102   -63.205800
	   87 D(5,12,24,25)   =    175.481636     0.000000    -0.000095   175.481541
	   88 D(5,12,24,26)   =     59.469821    -0.000000    -0.000129    59.469693
	   89 D(6,5,12,13)    =   -174.109885    -0.000000    -0.000175  -174.110060
	   90 D(6,5,12,14)    =    -57.768666     0.000000    -0.000175   -57.768841
	   91 D(6,5,12,24)    =     64.243494    -0.000000    -0.000183    64.243311
	   92 D(7,5,12,13)    =     65.904298    -0.000000    -0.000175    65.904123
	   93 D(7,5,12,14)    =   -177.754483     0.000000    -0.000175  -177.754658
	   94 D(7,5,12,24)    =    -55.742323    -0.000000    -0.000183   -55.742507
	   95 D(8,5,12,13)    =    -53.941036    -0.000000    -0.000175   -53.941210
	   96 D(8,5,12,14)    =     62.400183     0.000000    -0.000174    62.400009
	   97 D(8,5,12,24)    =   -175.587657    -0.000000    -0.000183  -175.587840
	   98 D(9,15,18,19)   =     62.159420    -0.000000    -0.000092    62.159328
	   99 D(9,15,18,20)   =    -53.599051    -0.000000    -0.000080   -53.599131
	  100 D(9,15,18,21)   =   -175.520561    -0.000000    -0.000069  -175.520629
	  101 D(10,9,15,16)   =   -179.190064    -0.000000     0.000091  -179.189973
	  102 D(10,9,15,17)   =     64.864055    -0.000000     0.000095    64.864150
	  103 D(10,9,15,18)   =    -57.554645     0.000000     0.000083   -57.554562
	  104 D(11,9,15,16)   =    -63.276502     0.000000     0.000099   -63.276403
	  105 D(11,9,15,17)   =   -179.222384     0.000000     0.000104  -179.222280
	  106 D(11,9,15,18)   =     58.358916     0.000000     0.000092    58.359009
	  107 D(12,24,21,18)  =   -171.392446     0.000000     0.000043  -171.392403
	  108 D(12,24,21,22)  =     66.505696    -0.000000     0.000007    66.505703
	  109 D(12,24,21,23)  =    -49.747118    -0.000000     0.000016   -49.747102
	  110 D(13,12,24,21)  =    175.071876     0.000000    -0.000109   175.071767
	  111 D(13,12,24,25)  =     53.759210     0.000000    -0.000102    53.759108
	  112 D(13,12,24,26)  =    -62.252605    -0.000000    -0.000135   -62.252740
	  113 D(14,12,24,21)  =     59.089070     0.000000    -0.000109    59.088960
	  114 D(14,12,24,25)  =    -62.223596     0.000000    -0.000102   -62.223699
	  115 D(14,12,24,26)  =   -178.235411    -0.000000    -0.000136  -178.235547
	  116 D(15,18,21,22)  =     59.605537    -0.000000    -0.000136    59.605400
	  117 D(15,18,21,23)  =    175.584892    -0.000000    -0.000146   175.584746
	  118 D(15,18,21,24)  =    -63.123453    -0.000000    -0.000175   -63.123627
	  119 D(16,15,18,19)  =   -176.161536    -0.000000    -0.000104  -176.161641
	  120 D(16,15,18,20)  =     68.079992     0.000000    -0.000093    68.079900
	  121 D(16,15,18,21)  =    -53.841517     0.000000    -0.000081   -53.841598
	  122 D(17,15,18,19)  =    -59.601690    -0.000000    -0.000101   -59.601791
	  123 D(17,15,18,20)  =   -175.360161    -0.000000    -0.000089  -175.360251
	  124 D(17,15,18,21)  =     62.718329    -0.000000    -0.000078    62.718251
	  125 D(18,21,24,25)  =    -49.702403     0.000000     0.000037   -49.702367
	  126 D(18,21,24,26)  =     66.527880     0.000000     0.000062    66.527942
	  127 D(19,18,21,22)  =   -178.141349     0.000000    -0.000107  -178.141456
	  128 D(19,18,21,23)  =    -62.161994     0.000000    -0.000116   -62.162110
	  129 D(19,18,21,24)  =     59.129661    -0.000000    -0.000145    59.129516
	  130 D(20,18,21,22)  =    -62.016611     0.000000    -0.000118   -62.016729
	  131 D(20,18,21,23)  =     53.962744     0.000000    -0.000127    53.962617
	  132 D(20,18,21,24)  =    175.254399    -0.000000    -0.000156   175.254243
	  133 D(22,21,24,25)  =   -171.804262    -0.000000     0.000000  -171.804262
	  134 D(22,21,24,26)  =    -55.573979     0.000000     0.000026   -55.573953
	  135 D(23,21,24,25)  =     71.942924    -0.000000     0.000009    71.942934
	  136 D(23,21,24,26)  =   -171.826792     0.000000     0.000035  -171.826758
	 ---------------------------------------------------------------------------

  ==> Convergence Check <==

  Measures of convergence in internal coordinates in au.
  Criteria marked as inactive (o), active & met (*), and active & unmet ( ).
  ---------------------------------------------------------------------------------------------
   Step     Total Energy     Delta E     MAX Force     RMS Force      MAX Disp      RMS Disp   
  ---------------------------------------------------------------------------------------------
    Convergence Criteria             o    2.00e-06 *    1.00e-06 *    6.00e-06 *    4.00e-06 *
  ---------------------------------------------------------------------------------------------
     38    -314.98383940   -2.44e-09 o    1.78e-07 *    4.06e-08 *    3.20e-06 *    1.38e-06 *  ~
  ---------------------------------------------------------------------------------------------


  **** Optimization is complete! (in 38 steps) ****

  ==> Optimization Summary <==

  Measures of convergence in internal coordinates in au.
  --------------------------------------------------------------------------------------------------------------- ~
   Step         Total Energy             Delta E       MAX Force       RMS Force        MAX Disp        RMS Disp  ~
  --------------------------------------------------------------------------------------------------------------- ~
      1    -314.983839400274   -314.983839400274      0.00000243      0.00000055      0.00007213      0.00002693  ~
      2    -314.983839401399     -0.000000001126      0.00000141      0.00000032      0.00007405      0.00002080  ~
      3    -314.983839399276      0.000000002123      0.00000068      0.00000015      0.00003823      0.00001239  ~
      4    -314.983839400527     -0.000000001251      0.00000085      0.00000021      0.00004846      0.00001536  ~
      5    -314.983839401892     -0.000000001365      0.00000075      0.00000014      0.00004210      0.00001408  ~
      6    -314.983839406830     -0.000000004938      0.00000053      0.00000012      0.00004710      0.00001357  ~
      7    -314.983839401967      0.000000004862      0.00000193      0.00000053      0.00009734      0.00002895  ~
      8    -314.983839402661     -0.000000000694      0.00000043      0.00000011      0.00001134      0.00000382  ~
      9    -314.983839403967     -0.000000001306      0.00000162      0.00000044      0.00026938      0.00008587  ~
     10    -314.983839400686      0.000000003281      0.00001271      0.00000282      0.00024688      0.00008125  ~
     11    -314.983839399222      0.000000001463      0.00000047      0.00000008      0.00001017      0.00000399  ~
     12    -314.983839403028     -0.000000003805      0.00000074      0.00000017      0.00001679      0.00000588  ~
     13    -314.983839401082      0.000000001946      0.00000117      0.00000031      0.00002332      0.00000754  ~
     14    -314.983839402000     -0.000000000918      0.00000118      0.00000023      0.00002156      0.00000658  ~
     15    -314.983839400962      0.000000001038      0.00000064      0.00000012      0.00001054      0.00000409  ~
     16    -314.983839401865     -0.000000000903      0.00000141      0.00000036      0.00009395      0.00003336  ~
     17    -314.983839402839     -0.000000000974      0.00000550      0.00000119      0.00008438      0.00003050  ~
     18    -314.983839401638      0.000000001201      0.00000026      0.00000007      0.00000648      0.00000195  ~
     19    -314.983839404242     -0.000000002604      0.00000020      0.00000006      0.00000624      0.00000220  ~
     20    -314.983839403086      0.000000001155      0.00000027      0.00000006      0.00000832      0.00000261  ~
     21    -314.983839398488      0.000000004599      0.00000043      0.00000010      0.00001889      0.00000670  ~
     22    -314.983839403533     -0.000000005045      0.00000053      0.00000014      0.00001197      0.00000382  ~
     23    -314.983839403193      0.000000000340      0.00000158      0.00000041      0.00012695      0.00003983  ~
     24    -314.983839397286      0.000000005907      0.00000796      0.00000181      0.00012265      0.00004058  ~
     25    -314.983839401269     -0.000000003983      0.00000093      0.00000023      0.00001252      0.00000425  ~
     26    -314.983839399374      0.000000001895      0.00000017      0.00000005      0.00000845      0.00000284  ~
     27    -314.983839400893     -0.000000001519      0.00000087      0.00000025      0.00002994      0.00000995  ~
     28    -314.983839402595     -0.000000001702      0.00000134      0.00000033      0.00002908      0.00000919  ~
     29    -314.983839400045      0.000000002551      0.00000135      0.00000032      0.00006969      0.00002258  ~
     30    -314.983839400542     -0.000000000497      0.00000166      0.00000039      0.00002908      0.00001084  ~
     31    -314.983839398767      0.000000001775      0.00000067      0.00000017      0.00000842      0.00000269  ~
     32    -314.983839400091     -0.000000001324      0.00000055      0.00000015      0.00001991      0.00000625  ~
     33    -314.983839400813     -0.000000000723      0.00000062      0.00000011      0.00001029      0.00000331  ~
     34    -314.983839404592     -0.000000003778      0.00000091      0.00000022      0.00003324      0.00001279  ~
     35    -314.983839402060      0.000000002532      0.00000145      0.00000029      0.00002772      0.00000993  ~
     36    -314.983839397478      0.000000004582      0.00000102      0.00000028      0.00010406      0.00003122  ~
     37    -314.983839399633     -0.000000002156      0.00000409      0.00000089      0.00010164      0.00003096  ~
     38    -314.983839402077     -0.000000002444      0.00000018      0.00000004      0.00000320      0.00000138  ~
  --------------------------------------------------------------------------------------------------------------- ~

	Writing optimization data to binary file.
	Final energy is   -314.9838394020773
	Final (previous) structure:
	Cartesian Geometry (in Angstrom)
	    C    -3.8241539458   1.0596556030   0.0040666205
	    H    -3.5545833993   1.7120613248  -0.8273926056
	    H    -3.6843668340   1.6238475791   0.9270152425
	    H    -4.8838217503   0.8220421175  -0.0862495471
	    C     3.4829580117   0.7898942641   0.6724560623
	    H     3.2044382218   0.2140260755   1.5541377148
	    H     3.0271629676   1.7776341470   0.7610554963
	    H     4.5649965583   0.9179293742   0.6900890832
	    C    -2.9631563645  -0.1973842614   0.0046534227
	    H    -3.1317307853  -0.7610384379  -0.9168935434
	    H    -3.2642816106  -0.8516838053   0.8270620313
	    C     3.0294929166   0.1029863510  -0.6114060215
	    H     3.4174368728   0.6551038385  -1.4703117692
	    H     3.4633276091  -0.8994310029  -0.6642664989
	    C    -1.4772690813   0.1144990509   0.1327037809
	    H    -1.3025146670   0.6668843025   1.0625288718
	    H    -1.1840359514   0.7799365292  -0.6835945052
	    C    -0.6086900475  -1.1381621297   0.1230459009
	    H    -0.7321613419  -1.6534917874  -0.8350485156
	    H    -0.9735853467  -1.8236481298   0.8935000713
	    C     0.8742018241  -0.8604169346   0.3584982506
	    H     0.9923357119  -0.3759129834   1.3314423383
	    H     1.4145603113  -1.8106376195   0.4154217674
	    C     1.5108321056  -0.0027336785  -0.7312969082
	    H     1.2543076523  -0.4297559804  -1.7059244556
	    H     1.0841869361   1.0038081857  -0.7096295110
	Saving final (previous) structure.
			--------------------------
			 OPTKING Finished Execution 
			--------------------------

    Final optimized geometry and variables:
    Molecular point group: c1
    Full point group: C1

    Geometry (in Angstrom), charge = 0, multiplicity = 1:

    C           -3.824153945783     1.059655602991     0.004066620508
    H           -3.554583399256     1.712061324813    -0.827392605597
    H           -3.684366834023     1.623847579064     0.927015242477
    H           -4.883821750345     0.822042117531    -0.086249547131
    C            3.482958011704     0.789894264071     0.672456062277
    H            3.204438221798     0.214026075463     1.554137714804
    H            3.027162967551     1.777634146981     0.761055496316
    H            4.564996558333     0.917929374192     0.690089083152
    C           -2.963156364462    -0.197384261401     0.004653422705
    H           -3.131730785321    -0.761038437943    -0.916893543449
    H           -3.264281610568    -0.851683805278     0.827062031306
    C            3.029492916563     0.102986350972    -0.611406021491
    H            3.417436872833     0.655103838486    -1.470311769156
    H            3.463327609091    -0.899431002855    -0.664266498856
    C           -1.477269081298     0.114499050875     0.132703780933
    H           -1.302514666950     0.666884302518     1.062528871795
    H           -1.184035951353     0.779936529241    -0.683594505201
    C           -0.608690047530    -1.138162129729     0.123045900903
    H           -0.732161341946    -1.653491787443    -0.835048515632
    H           -0.973585346717    -1.823648129773     0.893500071327
    C            0.874201824148    -0.860416934641     0.358498250554
    H            0.992335711901    -0.375912983393     1.331442338317
    H            1.414560311296    -1.810637619508     0.415421767374
    C            1.510832105635    -0.002733678524    -0.731296908212
    H            1.254307652315    -0.429755980395    -1.705924455585
    H            1.084186936106     1.003808185724    -0.709629510972

	Cleaning optimization helper files.

*** Psi4 exiting successfully. Buy a developer a beer!
