    -----------------------------------------------------------------------
          Psi4: An Open-Source Ab Initio Electronic Structure Package
                              Psi4 1.0.0 Driver

                          Git: Rev {master} 6a9a71b dirty

    J. M. Turney, A. C. Simmonett, R. M. Parrish, E. G. Hohenstein,
    F. A. Evangelista, J. T. Fermann, B. J. Mintz, L. A. Burns, J. J. Wilke,
    M. L. Abrams, N. J. Russ, M. L. Leininger, C. L. Janssen, E. T. Seidl,
    W. D. Allen, H. F. Schaefer, R. A. King, E. F. Valeev, C. D. Sherrill,
    and T. D. Crawford, WIREs Comput. Mol. Sci. 2, 556-565 (2012)
    (doi: 10.1002/wcms.93)

                         Additional Contributions by
    A. E. DePrince, U. Bozkaya, A. Yu. Sokolov, D. G. A. Smith, R. Di Remigio,
    R. M. Richard, J. F. Gonthier, H. R. McAlexander, M. Saitow, and
    B. P. Pritchard
    -----------------------------------------------------------------------


    Psi4 started on: Thu Sep 22 00:03:36 2016

    Process ID:   1193
    PSI4DATADIR: /usr/local/hpc5/psi4conda/share/psi4
    Memory level set to 256.000 MB

  ==> Input File <==

--------------------------------------------------------------------------
memory 60 Gb

molecule molecule_86_psi {
0 1
C           -2.981311486126     0.689384530983    -0.226366839567
H           -2.491684322512     1.162488646649    -1.076472103656
H           -2.665359049850     1.212950091576     0.677624484242
H           -4.054999364229     0.837888330128    -0.341867358361
C            3.282855940193    -0.041131784036    -0.074591026906
H            4.082596765280    -0.741241908888     0.165912470808
H            3.722711520720     0.954042657785    -0.160202098819
H            2.888121439739    -0.313763682270    -1.053256194148
C           -2.643492438601    -0.795218255095    -0.143231785260
H           -2.904382383578    -1.277459079266    -1.089487501114
H           -3.268036117647    -1.261597089866     0.622505099734
C            2.194621954385    -0.057777925810     0.993174971881
H            1.749405689556    -1.054167651668     1.050147784325
H            2.645236096031     0.129959387071     1.970296875440
C           -1.178976206472    -1.096642238474     0.173686702810
H           -1.068633307481    -2.181192190088     0.246204209699
H           -0.937456631055    -0.703122212284     1.164655555604
C           -0.177825042430    -0.563637574401    -0.860674069882
H           -0.650230711707    -0.573908092989    -1.848191873727
H            0.664950186495    -1.255309039896    -0.929245608484
C            0.377542830732     0.838319890968    -0.589981189968
H            1.066108681822     1.095123928282    -1.399180056345
H           -0.423535704971     1.577514416395    -0.629386220690
C            1.102746460725     0.982406950251     0.750369536093
H            1.549406109196     1.980179173619     0.795285271154
H            0.379615938637     0.939044028661     1.568107434894
}

set globals {
  reference rhf
  g_convergence gau_verytight
  basis aug-cc-pvtz
  freeze_core true
  scf_type df
  mp_type df
}
optimize('mp2')
--------------------------------------------------------------------------
/usr/local/hpc5/psi4conda/lib/python2.7/site-packages/v2rdm_casscf/v2rdm_casscf.so loaded.

  Memory set to  60.000 GiB by Python script.
gradient() will perform analytic gradient computation.

*** tstart() called on wr40
*** at Thu Sep 22 00:03:37 2016


         ---------------------------------------------------------
                                   SCF
            by Justin Turney, Rob Parrish, and Andy Simmonett
                              RHF Reference
                       12 Threads,  60000 MiB Core
         ---------------------------------------------------------

  ==> Geometry <==

    Molecular point group: c1
    Full point group: C1

    Geometry (in Angstrom), charge = 0, multiplicity = 1:

       Center              X                  Y                   Z               Mass       
    ------------   -----------------  -----------------  -----------------  -----------------
           C         -2.981311486126     0.689384530983    -0.226366839567    12.000000000000
           H         -2.491684322512     1.162488646649    -1.076472103656     1.007825032070
           H         -2.665359049850     1.212950091576     0.677624484242     1.007825032070
           H         -4.054999364229     0.837888330128    -0.341867358361     1.007825032070
           C          3.282855940193    -0.041131784036    -0.074591026906    12.000000000000
           H          4.082596765280    -0.741241908888     0.165912470808     1.007825032070
           H          3.722711520720     0.954042657785    -0.160202098819     1.007825032070
           H          2.888121439739    -0.313763682270    -1.053256194148     1.007825032070
           C         -2.643492438601    -0.795218255095    -0.143231785260    12.000000000000
           H         -2.904382383578    -1.277459079266    -1.089487501114     1.007825032070
           H         -3.268036117647    -1.261597089866     0.622505099734     1.007825032070
           C          2.194621954385    -0.057777925810     0.993174971881    12.000000000000
           H          1.749405689556    -1.054167651668     1.050147784325     1.007825032070
           H          2.645236096031     0.129959387071     1.970296875440     1.007825032070
           C         -1.178976206472    -1.096642238474     0.173686702810    12.000000000000
           H         -1.068633307481    -2.181192190088     0.246204209699     1.007825032070
           H         -0.937456631055    -0.703122212284     1.164655555604     1.007825032070
           C         -0.177825042430    -0.563637574401    -0.860674069882    12.000000000000
           H         -0.650230711707    -0.573908092989    -1.848191873727     1.007825032070
           H          0.664950186495    -1.255309039896    -0.929245608484     1.007825032070
           C          0.377542830732     0.838319890968    -0.589981189968    12.000000000000
           H          1.066108681822     1.095123928282    -1.399180056345     1.007825032070
           H         -0.423535704971     1.577514416395    -0.629386220690     1.007825032070
           C          1.102746460725     0.982406950251     0.750369536093    12.000000000000
           H          1.549406109196     1.980179173619     0.795285271154     1.007825032070
           H          0.379615938637     0.939044028661     1.568107434894     1.007825032070

  Running in c1 symmetry.

  Rotational constants: A =      0.13743  B =      0.02944  C =      0.02816 [cm^-1]
  Rotational constants: A =   4120.11483  B =    882.73639  C =    844.06887 [MHz]
  Nuclear repulsion =  405.116007017529228

  Charge       = 0
  Multiplicity = 1
  Electrons    = 66
  Nalpha       = 33
  Nbeta        = 33

  ==> Algorithm <==

  SCF Algorithm Type is DF.
  DIIS enabled.
  MOM disabled.
  Fractional occupation disabled.
  Guess Type is SAD.
  Energy threshold   = 1.00e-10
  Density threshold  = 1.00e-10
  Integral threshold = 0.00e+00

  ==> Primary Basis <==

  Basis Set: AUG-CC-PVTZ
    Number of shells: 274
    Number of basis function: 782
    Number of Cartesian functions: 890
    Spherical Harmonics?: true
    Max angular momentum: 3

  ==> Pre-Iterations <==

   -------------------------------------------------------
    Irrep   Nso     Nmo     Nalpha   Nbeta   Ndocc  Nsocc
   -------------------------------------------------------
     A        782     782       0       0       0       0
   -------------------------------------------------------
    Total     782     782      33      33      33       0
   -------------------------------------------------------

  ==> Integral Setup <==

  ==> DFJK: Density-Fitted J/K Matrices <==

    J tasked:                  Yes
    K tasked:                  Yes
    wK tasked:                  No
    OpenMP threads:             12
    Integrals threads:          12
    Memory (MB):             42915
    Algorithm:                Core
    Integral Cache:           NONE
    Schwarz Cutoff:          1E-12
    Fitting Condition:       1E-12

   => Auxiliary Basis Set <=

  Basis Set: 
    Number of shells: 492
    Number of basis function: 1660
    Number of Cartesian functions: 2038
    Spherical Harmonics?: true
    Max angular momentum: 4

  Minimum eigenvalue in the overlap matrix is 1.4448285692E-06.
  Using Symmetric Orthogonalization.
  SCF Guess: Superposition of Atomic Densities via on-the-fly atomic UHF.

  ==> Iterations <==

                           Total Energy        Delta E     RMS |[F,P]|

   @DF-RHF iter   0:  -317.04397422805846   -3.17044e+02   7.04733e-03 
   @DF-RHF iter   1:  -313.31147764740967    3.73250e+00   6.62838e-04 
   @DF-RHF iter   2:  -313.50531883805468   -1.93841e-01   2.37680e-04 DIIS
   @DF-RHF iter   3:  -313.52929689528639   -2.39781e-02   1.03460e-04 DIIS
   @DF-RHF iter   4:  -313.53421542906494   -4.91853e-03   1.47293e-05 DIIS
   @DF-RHF iter   5:  -313.53436807384924   -1.52645e-04   3.93331e-06 DIIS
   @DF-RHF iter   6:  -313.53437727792311   -9.20407e-06   1.24123e-06 DIIS
   @DF-RHF iter   7:  -313.53437799158564   -7.13663e-07   2.33275e-07 DIIS
   @DF-RHF iter   8:  -313.53437803233271   -4.07471e-08   5.67271e-08 DIIS
   @DF-RHF iter   9:  -313.53437803459224   -2.25953e-09   1.92871e-08 DIIS
   @DF-RHF iter  10:  -313.53437803486167   -2.69438e-10   4.84050e-09 DIIS
   @DF-RHF iter  11:  -313.53437803487850   -1.68257e-11   1.22812e-09 DIIS
   @DF-RHF iter  12:  -313.53437803487839    1.13687e-13   2.85598e-10 DIIS
   @DF-RHF iter  13:  -313.53437803487964   -1.25056e-12   8.09040e-11 DIIS

  ==> Post-Iterations <==

    Orbital Energies (a.u.)
    -----------------------

    Doubly Occupied:                                                      

       1A    -11.213058     2A    -11.211996     3A    -11.210466  
       4A    -11.209881     5A    -11.209720     6A    -11.208666  
       7A    -11.206896     8A    -11.206717     9A     -1.094799  
      10A     -1.057766    11A     -1.002242    12A     -0.947504  
      13A     -0.895930    14A     -0.835290    15A     -0.784505  
      16A     -0.741182    17A     -0.649872    18A     -0.634986  
      19A     -0.611054    20A     -0.599458    21A     -0.575452  
      22A     -0.549471    23A     -0.542289    24A     -0.534785  
      25A     -0.516445    26A     -0.510262    27A     -0.491196  
      28A     -0.470896    29A     -0.467941    30A     -0.461563  
      31A     -0.440720    32A     -0.435131    33A     -0.431795  

    Virtual:                                                              

      34A      0.029987    35A      0.033475    36A      0.034399  
      37A      0.034774    38A      0.045771    39A      0.048531  
      40A      0.049963    41A      0.054041    42A      0.054332  
      43A      0.065778    44A      0.069436    45A      0.073247  
      46A      0.074226    47A      0.077310    48A      0.085710  
      49A      0.090295    50A      0.093982    51A      0.099006  
      52A      0.114114    53A      0.116528    54A      0.123158  
      55A      0.125289    56A      0.127986    57A      0.133308  
      58A      0.135058    59A      0.136921    60A      0.139180  
      61A      0.139841    62A      0.141090    63A      0.149230  
      64A      0.152684    65A      0.157518    66A      0.159527  
      67A      0.162388    68A      0.170640    69A      0.173162  
      70A      0.178752    71A      0.180798    72A      0.181524  
      73A      0.186493    74A      0.187167    75A      0.193231  
      76A      0.199095    77A      0.211321    78A      0.220546  
      79A      0.225516    80A      0.230096    81A      0.237438  
      82A      0.247106    83A      0.255270    84A      0.261365  
      85A      0.267038    86A      0.273594    87A      0.282768  
      88A      0.285370    89A      0.289515    90A      0.297398  
      91A      0.300466    92A      0.304458    93A      0.311816  
      94A      0.318604    95A      0.321567    96A      0.324990  
      97A      0.327744    98A      0.330696    99A      0.333828  
     100A      0.334475   101A      0.340676   102A      0.346036  
     103A      0.347354   104A      0.350309   105A      0.356954  
     106A      0.358298   107A      0.362518   108A      0.367937  
     109A      0.370473   110A      0.373347   111A      0.374554  
     112A      0.377372   113A      0.381819   114A      0.387997  
     115A      0.391366   116A      0.391732   117A      0.403139  
     118A      0.405735   119A      0.414245   120A      0.415748  
     121A      0.422193   122A      0.427175   123A      0.433545  
     124A      0.435292   125A      0.436248   126A      0.440493  
     127A      0.446103   128A      0.451767   129A      0.453288  
     130A      0.457876   131A      0.462753   132A      0.468243  
     133A      0.472550   134A      0.474804   135A      0.475739  
     136A      0.478696   137A      0.480348   138A      0.483653  
     139A      0.489245   140A      0.495638   141A      0.496978  
     142A      0.499015   143A      0.502983   144A      0.504994  
     145A      0.511073   146A      0.517211   147A      0.518059  
     148A      0.524202   149A      0.529793   150A      0.537727  
     151A      0.541440   152A      0.544567   153A      0.551295  
     154A      0.556379   155A      0.559831   156A      0.563951  
     157A      0.564675   158A      0.568134   159A      0.576958  
     160A      0.580938   161A      0.584976   162A      0.586030  
     163A      0.594848   164A      0.597906   165A      0.601391  
     166A      0.604043   167A      0.606909   168A      0.615676  
     169A      0.623521   170A      0.628058   171A      0.628804  
     172A      0.633947   173A      0.639017   174A      0.642214  
     175A      0.649992   176A      0.651353   177A      0.655690  
     178A      0.665565   179A      0.666491   180A      0.667534  
     181A      0.675868   182A      0.680237   183A      0.684731  
     184A      0.687658   185A      0.695385   186A      0.699693  
     187A      0.709194   188A      0.710207   189A      0.713405  
     190A      0.723757   191A      0.729574   192A      0.735346  
     193A      0.742032   194A      0.751562   195A      0.752246  
     196A      0.759998   197A      0.769431   198A      0.773458  
     199A      0.780363   200A      0.789432   201A      0.794104  
     202A      0.800995   203A      0.809873   204A      0.827866  
     205A      0.833929   206A      0.838214   207A      0.852199  
     208A      0.854942   209A      0.860233   210A      0.866198  
     211A      0.869428   212A      0.874580   213A      0.878700  
     214A      0.880862   215A      0.891629   216A      0.894294  
     217A      0.903816   218A      0.910820   219A      0.915095  
     220A      0.922990   221A      0.927697   222A      0.929683  
     223A      0.931790   224A      0.938057   225A      0.943738  
     226A      0.952008   227A      0.955361   228A      0.957257  
     229A      0.960506   230A      0.968622   231A      0.973223  
     232A      0.979009   233A      0.984903   234A      0.991053  
     235A      0.996518   236A      0.999468   237A      1.001342  
     238A      1.003118   239A      1.008051   240A      1.012885  
     241A      1.015348   242A      1.024425   243A      1.034417  
     244A      1.036321   245A      1.044615   246A      1.050414  
     247A      1.053425   248A      1.056585   249A      1.065288  
     250A      1.070612   251A      1.078840   252A      1.083790  
     253A      1.089072   254A      1.094431   255A      1.102454  
     256A      1.104148   257A      1.108379   258A      1.110765  
     259A      1.118757   260A      1.124295   261A      1.129256  
     262A      1.130363   263A      1.136864   264A      1.145541  
     265A      1.146852   266A      1.159633   267A      1.163376  
     268A      1.166787   269A      1.172314   270A      1.177300  
     271A      1.180864   272A      1.188655   273A      1.195368  
     274A      1.200833   275A      1.205677   276A      1.213244  
     277A      1.220186   278A      1.222429   279A      1.229045  
     280A      1.232519   281A      1.238305   282A      1.243991  
     283A      1.249931   284A      1.262017   285A      1.264137  
     286A      1.266657   287A      1.273076   288A      1.276472  
     289A      1.281356   290A      1.287005   291A      1.296094  
     292A      1.301286   293A      1.311748   294A      1.315693  
     295A      1.323146   296A      1.326044   297A      1.331807  
     298A      1.334908   299A      1.342917   300A      1.345358  
     301A      1.355856   302A      1.360034   303A      1.367616  
     304A      1.375140   305A      1.384727   306A      1.392272  
     307A      1.400222   308A      1.402410   309A      1.409350  
     310A      1.417109   311A      1.423606   312A      1.428915  
     313A      1.441953   314A      1.447723   315A      1.454215  
     316A      1.462943   317A      1.465339   318A      1.470715  
     319A      1.486485   320A      1.497513   321A      1.504355  
     322A      1.511652   323A      1.514949   324A      1.519318  
     325A      1.525682   326A      1.530957   327A      1.536277  
     328A      1.539119   329A      1.545329   330A      1.554642  
     331A      1.571834   332A      1.578871   333A      1.582212  
     334A      1.594175   335A      1.594212   336A      1.598938  
     337A      1.603256   338A      1.613334   339A      1.621983  
     340A      1.629220   341A      1.638605   342A      1.650343  
     343A      1.651727   344A      1.658056   345A      1.665515  
     346A      1.671099   347A      1.673637   348A      1.685889  
     349A      1.686280   350A      1.696593   351A      1.702693  
     352A      1.706594   353A      1.709265   354A      1.722242  
     355A      1.733720   356A      1.737655   357A      1.740420  
     358A      1.741671   359A      1.751856   360A      1.761440  
     361A      1.768864   362A      1.774681   363A      1.781366  
     364A      1.783611   365A      1.789828   366A      1.796136  
     367A      1.806157   368A      1.812579   369A      1.821062  
     370A      1.825005   371A      1.829912   372A      1.838112  
     373A      1.845313   374A      1.849108   375A      1.856672  
     376A      1.861448   377A      1.862336   378A      1.877889  
     379A      1.883011   380A      1.887197   381A      1.898375  
     382A      1.901112   383A      1.905552   384A      1.908517  
     385A      1.912584   386A      1.916633   387A      1.929232  
     388A      1.935402   389A      1.946234   390A      1.955674  
     391A      1.960486   392A      1.968441   393A      1.971566  
     394A      1.979168   395A      1.986675   396A      1.997486  
     397A      1.999390   398A      2.004936   399A      2.011353  
     400A      2.017427   401A      2.019595   402A      2.022605  
     403A      2.038395   404A      2.046378   405A      2.053693  
     406A      2.063847   407A      2.065429   408A      2.075763  
     409A      2.077365   410A      2.086183   411A      2.091758  
     412A      2.095880   413A      2.109339   414A      2.113410  
     415A      2.120071   416A      2.124996   417A      2.138448  
     418A      2.140999   419A      2.144925   420A      2.151792  
     421A      2.171477   422A      2.173579   423A      2.180171  
     424A      2.195243   425A      2.216048   426A      2.219315  
     427A      2.231955   428A      2.235369   429A      2.241113  
     430A      2.248267   431A      2.258541   432A      2.276566  
     433A      2.283580   434A      2.286796   435A      2.296018  
     436A      2.299159   437A      2.310309   438A      2.319659  
     439A      2.322508   440A      2.327450   441A      2.332403  
     442A      2.338343   443A      2.348218   444A      2.353922  
     445A      2.377093   446A      2.396712   447A      2.403804  
     448A      2.407949   449A      2.415072   450A      2.418741  
     451A      2.429421   452A      2.440055   453A      2.454531  
     454A      2.460986   455A      2.465892   456A      2.477020  
     457A      2.481104   458A      2.492393   459A      2.500669  
     460A      2.508224   461A      2.514085   462A      2.522523  
     463A      2.547770   464A      2.560386   465A      2.566469  
     466A      2.584505   467A      2.590737   468A      2.604797  
     469A      2.612505   470A      2.622175   471A      2.638228  
     472A      2.647300   473A      2.671012   474A      2.674626  
     475A      2.687846   476A      2.703631   477A      2.707870  
     478A      2.724338   479A      2.738335   480A      2.744963  
     481A      2.770997   482A      2.800652   483A      2.823652  
     484A      2.885041   485A      2.924145   486A      2.943319  
     487A      2.988701   488A      3.045904   489A      3.108999  
     490A      3.178154   491A      3.205833   492A      3.265589  
     493A      3.307963   494A      3.316138   495A      3.389824  
     496A      3.413419   497A      3.435829   498A      3.443249  
     499A      3.465094   500A      3.474451   501A      3.493354  
     502A      3.507592   503A      3.519100   504A      3.526095  
     505A      3.541028   506A      3.573306   507A      3.577167  
     508A      3.580550   509A      3.593211   510A      3.603482  
     511A      3.606454   512A      3.624196   513A      3.631657  
     514A      3.643978   515A      3.658726   516A      3.679629  
     517A      3.684859   518A      3.693875   519A      3.697351  
     520A      3.710467   521A      3.724038   522A      3.729223  
     523A      3.749352   524A      3.755686   525A      3.756519  
     526A      3.771904   527A      3.782750   528A      3.784803  
     529A      3.791041   530A      3.799974   531A      3.812132  
     532A      3.819121   533A      3.823618   534A      3.832854  
     535A      3.841475   536A      3.851013   537A      3.861642  
     538A      3.867702   539A      3.881972   540A      3.890854  
     541A      3.896937   542A      3.915256   543A      3.918710  
     544A      3.928189   545A      3.934150   546A      3.941164  
     547A      3.944497   548A      3.955357   549A      3.961063  
     550A      3.970240   551A      3.977151   552A      3.981625  
     553A      3.985533   554A      4.001751   555A      4.008725  
     556A      4.015795   557A      4.022729   558A      4.029462  
     559A      4.033866   560A      4.043600   561A      4.046444  
     562A      4.056153   563A      4.062577   564A      4.069121  
     565A      4.077796   566A      4.088857   567A      4.093056  
     568A      4.099633   569A      4.106541   570A      4.117575  
     571A      4.133941   572A      4.140897   573A      4.144524  
     574A      4.151774   575A      4.166494   576A      4.172970  
     577A      4.179134   578A      4.188027   579A      4.190524  
     580A      4.208075   581A      4.216182   582A      4.219562  
     583A      4.223713   584A      4.231385   585A      4.238524  
     586A      4.244161   587A      4.250841   588A      4.264667  
     589A      4.268835   590A      4.283654   591A      4.286791  
     592A      4.299584   593A      4.308144   594A      4.322787  
     595A      4.335050   596A      4.339622   597A      4.351665  
     598A      4.358112   599A      4.370790   600A      4.376717  
     601A      4.390902   602A      4.410834   603A      4.419186  
     604A      4.429123   605A      4.435392   606A      4.454508  
     607A      4.460706   608A      4.471181   609A      4.476276  
     610A      4.485536   611A      4.508652   612A      4.513028  
     613A      4.530374   614A      4.541765   615A      4.558106  
     616A      4.565073   617A      4.581822   618A      4.602175  
     619A      4.606784   620A      4.622794   621A      4.644736  
     622A      4.654180   623A      4.663486   624A      4.670293  
     625A      4.695560   626A      4.700058   627A      4.703351  
     628A      4.714384   629A      4.728478   630A      4.734871  
     631A      4.750378   632A      4.761224   633A      4.773676  
     634A      4.777733   635A      4.801989   636A      4.811752  
     637A      4.817418   638A      4.831745   639A      4.843142  
     640A      4.847409   641A      4.856982   642A      4.879231  
     643A      4.888917   644A      4.898929   645A      4.904208  
     646A      4.914242   647A      4.923860   648A      4.940290  
     649A      4.946274   650A      4.949248   651A      4.955150  
     652A      4.971087   653A      4.989836   654A      5.005723  
     655A      5.006012   656A      5.019813   657A      5.024500  
     658A      5.042007   659A      5.050310   660A      5.066501  
     661A      5.104033   662A      5.113792   663A      5.119672  
     664A      5.149779   665A      5.151464   666A      5.161777  
     667A      5.179149   668A      5.188319   669A      5.195302  
     670A      5.204896   671A      5.213261   672A      5.217033  
     673A      5.231655   674A      5.238623   675A      5.247154  
     676A      5.266785   677A      5.270510   678A      5.275958  
     679A      5.303195   680A      5.311179   681A      5.311787  
     682A      5.326214   683A      5.342963   684A      5.350930  
     685A      5.371089   686A      5.378493   687A      5.384853  
     688A      5.396985   689A      5.415640   690A      5.419615  
     691A      5.437356   692A      5.444063   693A      5.450298  
     694A      5.456336   695A      5.465133   696A      5.482848  
     697A      5.486329   698A      5.497692   699A      5.514541  
     700A      5.516781   701A      5.531673   702A      5.553782  
     703A      5.556160   704A      5.574450   705A      5.586438  
     706A      5.603447   707A      5.614662   708A      5.623977  
     709A      5.637498   710A      5.643137   711A      5.659994  
     712A      5.672286   713A      5.682910   714A      5.703000  
     715A      5.704113   716A      5.713424   717A      5.722464  
     718A      5.735313   719A      5.737986   720A      5.745361  
     721A      5.773069   722A      5.775434   723A      5.798218  
     724A      5.815449   725A      5.830049   726A      5.848383  
     727A      5.874828   728A      5.889035   729A      5.895469  
     730A      5.915599   731A      5.951769   732A      5.975661  
     733A      5.978196   734A      5.999345   735A      6.025528  
     736A      6.040596   737A      6.068160   738A      6.085403  
     739A      6.087214   740A      6.098798   741A      6.123784  
     742A      6.168085   743A      6.176426   744A      6.213980  
     745A      6.229691   746A      6.246412   747A      6.254953  
     748A      6.286606   749A      6.313115   750A      6.322980  
     751A      6.332321   752A      6.343968   753A      6.363655  
     754A      6.376429   755A      6.393055   756A      6.422533  
     757A      6.429360   758A      6.459139   759A      6.581535  
     760A      6.634363   761A      6.660727   762A      6.693364  
     763A      6.743059   764A      6.811709   765A      6.814660  
     766A      6.863730   767A      6.925055   768A      6.956643  
     769A      6.975044   770A      7.042283   771A      7.082295  
     772A      7.103357   773A      7.169442   774A      7.186966  
     775A     18.043313   776A     18.111902   777A     18.356354  
     778A     18.448035   779A     18.884315   780A     19.244690  
     781A     19.582922   782A     19.856507  

    Final Occupation by Irrep:
              A 
    DOCC [    33 ]

  Energy converged.

  @DF-RHF Final Energy:  -313.53437803487964

   => Energetics <=

    Nuclear Repulsion Energy =            405.1160070175292276
    One-Electron Energy =               -1225.3809003003227645
    Two-Electron Energy =                 506.7305152479140702
    DFT Exchange-Correlation Energy =       0.0000000000000000
    Empirical Dispersion Energy =           0.0000000000000000
    PCM Polarization Energy =               0.0000000000000000
    EFP Energy =                            0.0000000000000000
    Total Energy =                       -313.5343780348794667


  Saving occupied orbitals to File 180.

*** tstop() called on wr40 at Thu Sep 22 00:04:27 2016
Module time:
	user time   =     549.87 seconds =       9.16 minutes
	system time =       5.99 seconds =       0.10 minutes
	total time  =         50 seconds =       0.83 minutes
Total time:
	user time   =     549.87 seconds =       9.16 minutes
	system time =       5.99 seconds =       0.10 minutes
	total time  =         50 seconds =       0.83 minutes


Properties will be evaluated at   0.000000,   0.000000,   0.000000 Bohr

Properties computed using the SCF density matrix

  Nuclear Dipole Moment: (a.u.)
     X:     0.2661      Y:     0.4944      Z:    -0.2499

  Electronic Dipole Moment: (a.u.)
     X:    -0.2796      Y:    -0.5150      Z:     0.2678

  Dipole Moment: (a.u.)
     X:    -0.0135      Y:    -0.0206      Z:     0.0179     Total:     0.0304

  Dipole Moment: (Debye)
     X:    -0.0343      Y:    -0.0523      Z:     0.0455     Total:     0.0773


  //>>>>>>>>>>>>>>>>>>>>>>>>>>>>>>>>>>>//
  //               DFMP2               //
  //<<<<<<<<<<<<<<<<<<<<<<<<<<<<<<<<<<<//


*** tstart() called on wr40
*** at Thu Sep 22 00:04:27 2016


*** tstop() called on wr40 at Thu Sep 22 00:04:28 2016
Module time:
	user time   =       3.09 seconds =       0.05 minutes
	system time =       0.11 seconds =       0.00 minutes
	total time  =          1 seconds =       0.02 minutes
Total time:
	user time   =     553.12 seconds =       9.22 minutes
	system time =       6.11 seconds =       0.10 minutes
	total time  =         51 seconds =       0.85 minutes
	 --------------------------------------------------------
	                          DF-MP2                         
	      2nd-Order Density-Fitted Moller-Plesset Theory     
	              RMP2 Wavefunction,  12 Threads             
	                                                         
	        Rob Parrish, Justin Turney, Andy Simmonett,      
	           Ed Hohenstein, and C. David Sherrill          
	 --------------------------------------------------------

   => Auxiliary Basis Set <=

  Basis Set: 
    Number of shells: 476
    Number of basis function: 1676
    Number of Cartesian functions: 2078
    Spherical Harmonics?: true
    Max angular momentum: 4

	 --------------------------------------------------------
	                 NBF =   782, NAUX =  1676
	 --------------------------------------------------------
	   CLASS    FOCC     OCC    AOCC    AVIR     VIR    FVIR
	   PAIRS       8      33      25     749     749       0
	 --------------------------------------------------------

DGAS Warning! /src/lib/libfock/apps.cc:80 is not currently checking restricted

         ------------------------------------------------------------
                                     CPHF                           
                                  Rob Parrish                       
         ------------------------------------------------------------

  ==> Geometry <==

    Molecular point group: c1
    Full point group: C1

    Geometry (in Angstrom), charge = 0, multiplicity = 1:

       Center              X                  Y                   Z               Mass       
    ------------   -----------------  -----------------  -----------------  -----------------
           C         -2.981311486126     0.689384530983    -0.226366839567    12.000000000000
           H         -2.491684322512     1.162488646649    -1.076472103656     1.007825032070
           H         -2.665359049850     1.212950091576     0.677624484242     1.007825032070
           H         -4.054999364229     0.837888330128    -0.341867358361     1.007825032070
           C          3.282855940193    -0.041131784036    -0.074591026906    12.000000000000
           H          4.082596765280    -0.741241908888     0.165912470808     1.007825032070
           H          3.722711520720     0.954042657785    -0.160202098819     1.007825032070
           H          2.888121439739    -0.313763682270    -1.053256194148     1.007825032070
           C         -2.643492438601    -0.795218255095    -0.143231785260    12.000000000000
           H         -2.904382383578    -1.277459079266    -1.089487501114     1.007825032070
           H         -3.268036117647    -1.261597089866     0.622505099734     1.007825032070
           C          2.194621954385    -0.057777925810     0.993174971881    12.000000000000
           H          1.749405689556    -1.054167651668     1.050147784325     1.007825032070
           H          2.645236096031     0.129959387071     1.970296875440     1.007825032070
           C         -1.178976206472    -1.096642238474     0.173686702810    12.000000000000
           H         -1.068633307481    -2.181192190088     0.246204209699     1.007825032070
           H         -0.937456631055    -0.703122212284     1.164655555604     1.007825032070
           C         -0.177825042430    -0.563637574401    -0.860674069882    12.000000000000
           H         -0.650230711707    -0.573908092989    -1.848191873727     1.007825032070
           H          0.664950186495    -1.255309039896    -0.929245608484     1.007825032070
           C          0.377542830732     0.838319890968    -0.589981189968    12.000000000000
           H          1.066108681822     1.095123928282    -1.399180056345     1.007825032070
           H         -0.423535704971     1.577514416395    -0.629386220690     1.007825032070
           C          1.102746460725     0.982406950251     0.750369536093    12.000000000000
           H          1.549406109196     1.980179173619     0.795285271154     1.007825032070
           H          0.379615938637     0.939044028661     1.568107434894     1.007825032070

  Nuclear repulsion =  405.116007017529228
  Reference energy  = -313.534378034879637

  ==> Basis Set <==

  Basis Set: AUG-CC-PVTZ
    Number of shells: 274
    Number of basis function: 782
    Number of Cartesian functions: 890
    Spherical Harmonics?: true
    Max angular momentum: 3

  ==> CGRSolver (by Rob Parrish) <==

   Number of roots    =         1
   Preconditioning    =    JACOBI
   Convergence cutoff =     1E-06
   Maximum iterations =       100

  ==> CPHFRHamiltonian (by Rob Parrish) <== 

  ==> DFJK: Density-Fitted J/K Matrices <==

    J tasked:                  Yes
    K tasked:                  Yes
    wK tasked:                  No
    OpenMP threads:             12
    Integrals threads:          12
    Memory (MB):             42915
    Algorithm:                Core
    Integral Cache:           NONE
    Schwarz Cutoff:          1E-12
    Fitting Condition:       1E-12

   => Auxiliary Basis Set <=

  Basis Set: 
    Number of shells: 492
    Number of basis function: 1660
    Number of Cartesian functions: 2038
    Spherical Harmonics?: true
    Max angular momentum: 4

  ==> CPHF Iterations <==

  => Iterations <=

             Iter  Converged  Remaining    Residual
  CGR           1          0          1   9.476E-02
  CGR           2          0          1   1.347E-02
  CGR           3          0          1   3.859E-03
  CGR           4          0          1   9.128E-04
  CGR           5          0          1   2.192E-04
  CGR           6          0          1   4.354E-05
  CGR           7          0          1   1.320E-05
  CGR           8          0          1   3.038E-06
  CGR           9          1          0   7.366E-07

    CGRSolver converged.

  ==> DFCorrGrad: Density-Fitted Correlated Gradients <==

    OpenMP threads:             12
    Integrals threads:          12
    Memory (MB):             42915
    Schwarz Cutoff:          0E+00
    Fitting Condition:       1E-12

   => Auxiliary Basis Set <=

  Basis Set: 
    Number of shells: 492
    Number of basis function: 1660
    Number of Cartesian functions: 2038
    Spherical Harmonics?: true
    Max angular momentum: 4

	-----------------------------------------------------------
	 ==================> DF-MP2 Energies <==================== 
	-----------------------------------------------------------
	 Reference Energy          =    -313.5343780348796372 [Eh]
	 Singles Energy            =      -0.0000000000000002 [Eh]
	 Same-Spin Energy          =      -0.3178112574683648 [Eh]
	 Opposite-Spin Energy      =      -1.1275426365126697 [Eh]
	 Correlation Energy        =      -1.4453538939810346 [Eh]
	 Total Energy              =    -314.9797319288606445 [Eh]
	-----------------------------------------------------------
	 ================> DF-SCS-MP2 Energies <================== 
	-----------------------------------------------------------
	 SCS Same-Spin Scale       =       0.3333333333333333 [-]
	 SCS Opposite-Spin Scale   =       1.2000000000000000 [-]
	 SCS Same-Spin Energy      =      -0.1059370858227883 [Eh]
	 SCS Opposite-Spin Energy  =      -1.3530511638152036 [Eh]
	 SCS Correlation Energy    =      -1.4589882496379920 [Eh]
	 SCS Total Energy          =    -314.9933662845176059 [Eh]
	-----------------------------------------------------------


  -Total Gradient:
     Atom            X                  Y                   Z
    ------   -----------------  -----------------  -----------------
       1        0.000000043385    -0.000001076826     0.000000290047
       2        0.000000576858     0.000000332238    -0.000000728195
       3        0.000000264317     0.000000550022     0.000000791082
       4       -0.000000572237     0.000000007540     0.000000019822
       5       -0.000000443307    -0.000000187805     0.000001041842
       6        0.000000740287    -0.000000849426     0.000000359865
       7        0.000000743445     0.000001484862    -0.000000304232
       8       -0.000000563257    -0.000000289832    -0.000001460726
       9       -0.000000265278     0.000000704078    -0.000000646426
      10       -0.000000220369    -0.000000064079    -0.000000559134
      11       -0.000000469298    -0.000000287084     0.000000449781
      12        0.000000627735     0.000001580398    -0.000001660059
      13       -0.000001309277    -0.000002504336     0.000000170547
      14        0.000000658396     0.000000735962     0.000001038331
      15        0.000000145964     0.000000889548    -0.000000616493
      16        0.000000263155    -0.000001167871     0.000000038988
      17        0.000000338738     0.000000707640     0.000001663886
      18       -0.000001711512     0.000000879592    -0.000000700692
      19       -0.000000449644    -0.000000279130    -0.000000653170
      20        0.000001058691    -0.000000630278    -0.000000374650
      21       -0.000000306562    -0.000001141463    -0.000000112686
      22        0.000000454232    -0.000000077750    -0.000001236784
      23       -0.000000982987     0.000000780741     0.000000062023
      24        0.000001760431    -0.000001911344     0.000001085284
      25        0.000001265703     0.000002107383     0.000000180218
      26       -0.000001647607    -0.000000292778     0.000001861533


			-----------------------------------------
			 OPTKING 2.0: for geometry optimizations 
			  - R.A. King,  Bethel University        
			-----------------------------------------

	Internal coordinates to be generated automatically.
	Detected frag 1 with atoms:  1 2 3 4 5 6 7 8 9 10 11 12 13 14 15 16 17 18 19 20
	 21 22 23 24 25 26
	---Fragment 1 Bond Connectivity---
	 1 : 2 3 4 9
	 2 : 1
	 3 : 1
	 4 : 1
	 5 : 6 7 8 12
	 6 : 5
	 7 : 5
	 8 : 5
	 9 : 1 10 11 15
	 10 : 9
	 11 : 9
	 12 : 5 13 14 24
	 13 : 12
	 14 : 12
	 15 : 9 16 17 18
	 16 : 15
	 17 : 15
	 18 : 15 19 20 21
	 19 : 18
	 20 : 18
	 21 : 18 22 23 24
	 22 : 21
	 23 : 21
	 24 : 12 21 25 26
	 25 : 24
	 26 : 24

	---Fragment 1 Geometry and Gradient---
	 C          -5.6338622256        1.3027479638       -0.4277713323
	 H          -4.7086009792        2.1967851748       -2.0342374656
	 H          -5.0367986500        2.2921434859        1.2805246962
	 H          -7.6628382674        1.5833794739       -0.6460356811
	 C           6.2036986607       -0.0777278072       -0.1409566128
	 H           7.7149897974       -1.4007442060        0.3135291319
	 H           7.0349052459        1.8028793423       -0.3027380927
	 H           5.4577585596       -0.5929274299       -1.9903657547
	 C          -4.9954767433       -1.5027447180       -0.2706688477
	 H          -5.4884872901       -2.4140478058       -2.0588330023
	 H          -6.1756932547       -2.3840729899        1.1763641548
	 C           4.1472344590       -0.1091844563        1.8768286989
	 H           3.3058976486       -1.9920881598        1.9844917114
	 H           4.9987717783        0.2455876500        3.7233214951
	 C          -2.2279421474       -2.0723534965        0.3282203012
	 H          -2.0194242876       -4.1218558825        0.4652585291
	 H          -1.7715362942       -1.3287084192        2.2008800392
	 C          -0.3360406298       -1.0651206538       -1.6264382818
	 H          -1.2287579683       -1.0845291212       -3.4925764824
	 H           1.2565737445       -2.3721902975       -1.7560197102
	 C           0.7134525535        1.5841950057       -1.1149028726
	 H           2.0146534365        2.0694843060       -2.6440671171
	 H          -0.8003664899        2.9810702177       -1.1893675889
	 C           2.0838888048        1.8564800870        1.4179929217
	 H           2.9279532150        3.7419963322        1.5028713600
	 H           0.7173701597        1.7745360409        2.9632935989
	             0.0000000434       -0.0000010768        0.0000002900
	             0.0000005769        0.0000003322       -0.0000007282
	             0.0000002643        0.0000005500        0.0000007911
	            -0.0000005722        0.0000000075        0.0000000198
	            -0.0000004433       -0.0000001878        0.0000010418
	             0.0000007403       -0.0000008494        0.0000003599
	             0.0000007434        0.0000014849       -0.0000003042
	            -0.0000005633       -0.0000002898       -0.0000014607
	            -0.0000002653        0.0000007041       -0.0000006464
	            -0.0000002204       -0.0000000641       -0.0000005591
	            -0.0000004693       -0.0000002871        0.0000004498
	             0.0000006277        0.0000015804       -0.0000016601
	            -0.0000013093       -0.0000025043        0.0000001705
	             0.0000006584        0.0000007360        0.0000010383
	             0.0000001460        0.0000008895       -0.0000006165
	             0.0000002632       -0.0000011679        0.0000000390
	             0.0000003387        0.0000007076        0.0000016639
	            -0.0000017115        0.0000008796       -0.0000007007
	            -0.0000004496       -0.0000002791       -0.0000006532
	             0.0000010587       -0.0000006303       -0.0000003746
	            -0.0000003066       -0.0000011415       -0.0000001127
	             0.0000004542       -0.0000000778       -0.0000012368
	            -0.0000009830        0.0000007807        0.0000000620
	             0.0000017604       -0.0000019113        0.0000010853
	             0.0000012657        0.0000021074        0.0000001802
	            -0.0000016476       -0.0000002928        0.0000018615

	Previous optimization step data not found.  Starting new optimization.

	---Fragment 1 Intrafragment Coordinates---
	 - Coordinate -           - BOHR/RAD -       - ANG/DEG -
	 R(1,2)           =         2.058190	       1.089147
	 R(1,3)           =         2.062441	       1.091397
	 R(1,4)           =         2.059888	       1.090046
	 R(1,9)           =         2.881494	       1.524821
	 R(5,6)           =         2.059352	       1.089762
	 R(5,7)           =         2.062465	       1.091409
	 R(5,8)           =         2.059653	       1.089922
	 R(5,12)          =         2.881231	       1.524682
	 R(9,10)          =         2.066655	       1.093627
	 R(9,11)          =         2.064838	       1.092665
	 R(9,15)          =         2.888316	       1.528431
	 R(12,13)         =         2.065131	       1.092820
	 R(12,14)         =         2.064101	       1.092275
	 R(12,24)         =         2.886479	       1.527459
	 R(15,16)         =         2.064635	       1.092558
	 R(15,17)         =         2.065955	       1.093256
	 R(15,18)         =         2.900776	       1.535024
	 R(18,19)         =         2.068766	       1.094744
	 R(18,20)         =         2.064375	       1.092420
	 R(18,21)         =         2.895165	       1.532055
	 R(21,22)         =         2.065665	       1.093103
	 R(21,23)         =         2.061178	       1.090728
	 R(21,24)         =         2.892714	       1.530758
	 R(24,25)         =         2.067564	       1.094108
	 R(24,26)         =         2.064471	       1.092471
	 B(1,9,10)        =         1.906358	     109.226284
	 B(1,9,11)        =         1.904078	     109.095646
	 B(1,9,15)        =         1.999395	     114.556915
	 B(2,1,3)         =         1.883861	     107.937265
	 B(2,1,4)         =         1.876456	     107.513030
	 B(2,1,9)         =         1.945377	     111.461866
	 B(3,1,4)         =         1.883423	     107.912178
	 B(3,1,9)         =         1.936677	     110.963433
	 B(4,1,9)         =         1.935468	     110.894120
	 B(5,12,13)       =         1.914786	     109.709132
	 B(5,12,14)       =         1.907269	     109.278467
	 B(5,12,24)       =         1.973002	     113.044699
	 B(6,5,7)         =         1.883200	     107.899405
	 B(6,5,8)         =         1.878896	     107.652838
	 B(6,5,12)        =         1.941449	     111.236832
	 B(7,5,8)         =         1.879274	     107.674479
	 B(7,5,12)        =         1.931080	     110.642727
	 B(8,5,12)        =         1.947231	     111.568124
	 B(9,15,16)       =         1.882100	     107.836401
	 B(9,15,17)       =         1.905661	     109.186353
	 B(9,15,18)       =         2.000646	     114.628593
	 B(10,9,11)       =         1.856463	     106.367508
	 B(10,9,15)       =         1.897608	     108.724945
	 B(11,9,15)       =         1.894618	     108.553607
	 B(12,24,21)      =         1.997357	     114.440115
	 B(12,24,25)      =         1.899356	     108.825104
	 B(12,24,26)      =         1.904079	     109.095701
	 B(13,12,14)      =         1.852659	     106.149532
	 B(13,12,24)      =         1.915549	     109.752869
	 B(14,12,24)      =         1.896585	     108.666318
	 B(15,18,19)      =         1.899844	     108.853020
	 B(15,18,20)      =         1.902451	     109.002405
	 B(15,18,21)      =         2.020955	     115.792200
	 B(16,15,17)      =         1.849218	     105.952385
	 B(16,15,18)      =         1.900264	     108.877130
	 B(17,15,18)      =         1.919548	     109.981984
	 B(18,21,22)      =         1.888651	     108.211738
	 B(18,21,23)      =         1.925743	     110.336946
	 B(18,21,24)      =         1.996079	     114.366927
	 B(19,18,20)      =         1.844549	     105.684864
	 B(19,18,21)      =         1.901165	     108.928707
	 B(20,18,21)      =         1.886853	     108.108739
	 B(21,24,25)      =         1.891455	     108.372403
	 B(21,24,26)      =         1.915683	     109.760532
	 B(22,21,23)      =         1.851135	     106.062213
	 B(22,21,24)      =         1.904617	     109.126515
	 B(23,21,24)      =         1.892084	     108.408410
	 B(25,24,26)      =         1.850107	     106.003296
	 D(1,9,15,16)     =         3.102938	     177.785224
	 D(1,9,15,17)     =         1.101272	      63.098265
	 D(1,9,15,18)     =        -1.060961	     -60.788608
	 D(2,1,9,10)      =        -0.969606	     -55.554345
	 D(2,1,9,11)      =        -2.992171	    -171.438797
	 D(2,1,9,15)      =         1.163512	      66.664342
	 D(3,1,9,10)      =        -3.069788	    -175.885893
	 D(3,1,9,11)      =         1.190832	      68.229655
	 D(3,1,9,15)      =        -0.936669	     -53.667207
	 D(4,1,9,10)      =         1.120386	      64.193391
	 D(4,1,9,11)      =        -0.902179	     -51.691061
	 D(4,1,9,15)      =        -3.029681	    -173.587922
	 D(5,12,24,21)    =         1.023423	      58.637843
	 D(5,12,24,25)    =        -1.095062	     -62.742435
	 D(5,12,24,26)    =        -3.106212	    -177.972809
	 D(6,5,12,13)     =        -1.071121	     -61.370709
	 D(6,5,12,14)     =         0.953388	      54.625096
	 D(6,5,12,24)     =         3.067837	     175.774116
	 D(7,5,12,13)     =         3.119097	     178.711100
	 D(7,5,12,14)     =        -1.139579	     -65.293095
	 D(7,5,12,24)     =         0.974870	      55.855926
	 D(8,5,12,13)     =         1.027263	      58.857861
	 D(8,5,12,14)     =         3.051772	     174.853666
	 D(8,5,12,24)     =        -1.116964	     -63.997314
	 D(9,15,18,19)    =        -0.550137	     -31.520550
	 D(9,15,18,20)    =        -2.554079	    -146.337943
	 D(9,15,18,21)    =         1.597906	      91.553298
	 D(10,9,15,16)    =        -1.042380	     -59.723977
	 D(10,9,15,17)    =        -3.044045	    -174.410935
	 D(10,9,15,18)    =         1.076906	      61.702192
	 D(11,9,15,16)    =         0.970284	      55.593153
	 D(11,9,15,17)    =        -1.031381	     -59.093806
	 D(11,9,15,18)    =         3.089570	     177.019321
	 D(12,24,21,18)   =         0.913548	      52.342417
	 D(12,24,21,22)   =        -1.204347	     -69.004020
	 D(12,24,21,23)   =         3.070116	     175.904712
	 D(13,12,24,21)   =        -1.120380	     -64.193031
	 D(13,12,24,25)   =         3.044320	     174.426691
	 D(13,12,24,26)   =         1.033171	      59.196317
	 D(14,12,24,21)   =        -3.139277	    -179.867304
	 D(14,12,24,25)   =         1.025423	      58.752419
	 D(14,12,24,26)   =        -0.985726	     -56.477956
	 D(15,18,21,22)   =        -3.134545	    -179.596226
	 D(15,18,21,23)   =        -1.116396	     -63.964786
	 D(15,18,21,24)   =         1.021975	      58.554873
	 D(16,15,18,19)   =         1.559173	      89.334055
	 D(16,15,18,20)   =        -0.444768	     -25.483339
	 D(16,15,18,21)   =        -2.575968	    -147.592098
	 D(17,15,18,19)   =        -2.704956	    -154.982572
	 D(17,15,18,20)   =         1.574288	      90.200035
	 D(17,15,18,21)   =        -0.556912	     -31.908724
	 D(18,21,24,25)   =         3.036371	     173.971247
	 D(18,21,24,26)   =        -1.233751	     -70.688729
	 D(19,18,21,22)   =        -0.987196	     -56.562179
	 D(19,18,21,23)   =         1.030953	      59.069261
	 D(19,18,21,24)   =        -3.113861	    -178.411080
	 D(20,18,21,22)   =         1.009172	      57.821320
	 D(20,18,21,23)   =         3.027322	     173.452761
	 D(20,18,21,24)   =        -1.117492	     -64.027580
	 D(22,21,24,25)   =         0.918476	      52.624811
	 D(22,21,24,26)   =         2.931539	     167.964835
	 D(23,21,24,25)   =        -1.090245	     -62.466458
	 D(23,21,24,26)   =         0.922818	      52.873567
	 R(1,21)          =         6.390600	       3.381760
	 R(5,18)          =         6.778627	       3.587095
	 R(12,15)         =         6.848000	       3.623805

	Current energy   :      -314.9797319289

	Generating empirical Hessian (Schlegel '84) for each fragment.
	Taking RFO optimization step.
	Going to follow RFO solution 1.
	Using RFO vector 1.
	Norm of target step-size    0.00054
	Projected energy change by RFO approximation:        -0.0000000038

	Back-transformation to cartesian coordinates...
	Successfully converged to displaced geometry.

	--- Internal Coordinate Step in ANG or DEG, aJ/ANG or AJ/DEG ---
	 ---------------------------------------------------------------------------
	   Coordinate                Previous        Force       Change         New 
	   ----------                --------       ------       ------       ------
	    1 R(1,2)          =      1.089147    -0.000008    -0.000002     1.089145
	    2 R(1,3)          =      1.091397    -0.000007    -0.000001     1.091395
	    3 R(1,4)          =      1.090046    -0.000005    -0.000001     1.090045
	    4 R(1,9)          =      1.524821     0.000003     0.000001     1.524822
	    5 R(5,6)          =      1.089762    -0.000010    -0.000002     1.089760
	    6 R(5,7)          =      1.091409    -0.000014    -0.000003     1.091407
	    7 R(5,8)          =      1.089922    -0.000013    -0.000002     1.089919
	    8 R(5,12)         =      1.524682    -0.000002    -0.000001     1.524681
	    9 R(9,10)         =      1.093627    -0.000005    -0.000001     1.093626
	   10 R(9,11)         =      1.092665    -0.000006    -0.000001     1.092664
	   11 R(9,15)         =      1.528431    -0.000008     0.000000     1.528431
	   12 R(12,13)        =      1.092820    -0.000023    -0.000004     1.092816
	   13 R(12,14)        =      1.092275    -0.000011    -0.000002     1.092273
	   14 R(12,24)        =      1.527459     0.000004     0.000001     1.527460
	   15 R(15,16)        =      1.092558    -0.000010    -0.000002     1.092556
	   16 R(15,17)        =      1.093256    -0.000015    -0.000003     1.093253
	   17 R(15,18)        =      1.535024    -0.000000     0.000002     1.535026
	   18 R(18,19)        =      1.094744    -0.000006    -0.000001     1.094743
	   19 R(18,20)        =      1.092420    -0.000011    -0.000002     1.092418
	   20 R(18,21)        =      1.532055    -0.000001     0.000001     1.532056
	   21 R(21,22)        =      1.093103    -0.000010    -0.000002     1.093101
	   22 R(21,23)        =      1.090728    -0.000010    -0.000002     1.090726
	   23 R(21,24)        =      1.530758    -0.000022    -0.000005     1.530754
	   24 R(24,25)        =      1.094108    -0.000020    -0.000004     1.094104
	   25 R(24,26)        =      1.092471    -0.000021    -0.000004     1.092467
	   26 B(1,9,10)       =    109.226284     0.000000     0.000145   109.226429
	   27 B(1,9,11)       =    109.095646     0.000000    -0.000315   109.095330
	   28 B(1,9,15)       =    114.556915    -0.000000     0.000537   114.557452
	   29 B(2,1,3)        =    107.937265    -0.000000    -0.000010   107.937255
	   30 B(2,1,4)        =    107.513030    -0.000000    -0.000036   107.512994
	   31 B(2,1,9)        =    111.461866     0.000000     0.000134   111.462001
	   32 B(3,1,4)        =    107.912178    -0.000000    -0.000040   107.912139
	   33 B(3,1,9)        =    110.963433    -0.000000    -0.000113   110.963320
	   34 B(4,1,9)        =    110.894120     0.000000     0.000060   110.894180
	   35 B(5,12,13)      =    109.709132    -0.000000    -0.000235   109.708897
	   36 B(5,12,14)      =    109.278467     0.000000     0.000214   109.278681
	   37 B(5,12,24)      =    113.044699    -0.000000    -0.000116   113.044582
	   38 B(6,5,7)        =    107.899405    -0.000000    -0.000018   107.899387
	   39 B(6,5,8)        =    107.652838    -0.000000    -0.000041   107.652797
	   40 B(6,5,12)       =    111.236832     0.000000     0.000142   111.236974
	   41 B(7,5,8)        =    107.674479     0.000000     0.000034   107.674514
	   42 B(7,5,12)       =    110.642727    -0.000000    -0.000091   110.642636
	   43 B(8,5,12)       =    111.568124    -0.000000    -0.000028   111.568096
	   44 B(9,15,16)      =    107.836401    -0.000000    -0.000329   107.836072
	   45 B(9,15,17)      =    109.186353    -0.000000    -0.000068   109.186284
	   46 B(9,15,18)      =    114.628593     0.000000     0.000825   114.629418
	   47 B(10,9,11)      =    106.367508    -0.000000    -0.000103   106.367405
	   48 B(10,9,15)      =    108.724945     0.000000    -0.000014   108.724931
	   49 B(11,9,15)      =    108.553607    -0.000000    -0.000297   108.553310
	   50 B(12,24,21)     =    114.440115     0.000000     0.000025   114.440140
	   51 B(12,24,25)     =    108.825104    -0.000000     0.000117   108.825221
	   52 B(12,24,26)     =    109.095701    -0.000000    -0.000004   109.095696
	   53 B(13,12,14)     =    106.149532    -0.000000    -0.000147   106.149384
	   54 B(13,12,24)     =    109.752869     0.000000    -0.000059   109.752810
	   55 B(14,12,24)     =    108.666318     0.000000     0.000348   108.666667
	   56 B(15,18,19)     =    108.853020     0.000000    -0.000032   108.852988
	   57 B(15,18,20)     =    109.002405    -0.000000    -0.000266   109.002139
	   58 B(15,18,21)     =    115.792200     0.000000     0.000617   115.792817
	   59 B(16,15,17)     =    105.952385     0.000000    -0.000172   105.952213
	   60 B(16,15,18)     =    108.877130    -0.000000    -0.000295   108.876835
	   61 B(17,15,18)     =    109.981984    -0.000000    -0.000043   109.981940
	   62 B(18,21,22)     =    108.211738     0.000000     0.000240   108.211978
	   63 B(18,21,23)     =    110.336946    -0.000000     0.000053   110.336999
	   64 B(18,21,24)     =    114.366927    -0.000000     0.000011   114.366938
	   65 B(19,18,20)     =    105.684864     0.000000    -0.000020   105.684845
	   66 B(19,18,21)     =    108.928707    -0.000000    -0.000332   108.928375
	   67 B(20,18,21)     =    108.108739     0.000000    -0.000020   108.108718
	   68 B(21,24,25)     =    108.372403    -0.000000    -0.000051   108.372352
	   69 B(21,24,26)     =    109.760532    -0.000000    -0.000012   109.760520
	   70 B(22,21,23)     =    106.062213    -0.000000    -0.000046   106.062167
	   71 B(22,21,24)     =    109.126515    -0.000000    -0.000248   109.126267
	   72 B(23,21,24)     =    108.408410    -0.000000    -0.000019   108.408391
	   73 B(25,24,26)     =    106.003296     0.000000    -0.000082   106.003214
	   74 D(1,9,15,16)    =    177.785224    -0.000000    -0.005789   177.779435
	   75 D(1,9,15,17)    =     63.098265    -0.000000    -0.005377    63.092888
	   76 D(1,9,15,18)    =    -60.788608     0.000000    -0.005866   -60.794474
	   77 D(2,1,9,10)     =    -55.554345     0.000000     0.000173   -55.554172
	   78 D(2,1,9,11)     =   -171.438797    -0.000000     0.000391  -171.438406
	   79 D(2,1,9,15)     =     66.664342     0.000000     0.000642    66.664983
	   80 D(3,1,9,10)     =   -175.885893     0.000000     0.000172  -175.885721
	   81 D(3,1,9,11)     =     68.229655    -0.000000     0.000389    68.230044
	   82 D(3,1,9,15)     =    -53.667207     0.000000     0.000640   -53.666566
	   83 D(4,1,9,10)     =     64.193391     0.000000     0.000257    64.193648
	   84 D(4,1,9,11)     =    -51.691061    -0.000000     0.000475   -51.690586
	   85 D(4,1,9,15)     =   -173.587922     0.000000     0.000726  -173.587196
	   86 D(5,12,24,21)   =     58.637843     0.000000     0.000651    58.638494
	   87 D(5,12,24,25)   =    -62.742435    -0.000000     0.000614   -62.741821
	   88 D(5,12,24,26)   =   -177.972809     0.000000     0.000650  -177.972159
	   89 D(6,5,12,13)    =    -61.370709     0.000000    -0.000167   -61.370877
	   90 D(6,5,12,14)    =     54.625096    -0.000000    -0.000355    54.624741
	   91 D(6,5,12,24)    =    175.774116     0.000000     0.000164   175.774279
	   92 D(7,5,12,13)    =    178.711100     0.000000    -0.000177   178.710923
	   93 D(7,5,12,14)    =    -65.293095    -0.000000    -0.000365   -65.293459
	   94 D(7,5,12,24)    =     55.855926     0.000000     0.000153    55.856079
	   95 D(8,5,12,13)    =     58.857861     0.000000    -0.000141    58.857720
	   96 D(8,5,12,14)    =    174.853666    -0.000000    -0.000329   174.853337
	   97 D(8,5,12,24)    =    -63.997314     0.000000     0.000189   -63.997125
	   98 D(9,15,18,19)   =    -31.520550    -0.000000    -0.007970   -31.528520
	   99 D(9,15,18,20)   =   -146.337943    -0.000000    -0.007787  -146.345730
	  100 D(9,15,18,21)   =     91.553298    -0.000000    -0.007989    91.545308
	  101 D(10,9,15,16)   =    -59.723977    -0.000000    -0.005238   -59.729215
	  102 D(10,9,15,17)   =   -174.410935     0.000000    -0.004827  -174.415761
	  103 D(10,9,15,18)   =     61.702192     0.000000    -0.005315    61.696877
	  104 D(11,9,15,16)   =     55.593153    -0.000000    -0.005525    55.587627
	  105 D(11,9,15,17)   =    -59.093806     0.000000    -0.005114   -59.098919
	  106 D(11,9,15,18)   =    177.019321     0.000000    -0.005602   177.013719
	  107 D(12,24,21,18)  =     52.342417     0.000000    -0.000505    52.341912
	  108 D(12,24,21,22)  =    -69.004020    -0.000000    -0.000639   -69.004658
	  109 D(12,24,21,23)  =    175.904712     0.000000    -0.000443   175.904270
	  110 D(13,12,24,21)  =    -64.193031     0.000000     0.001080   -64.191951
	  111 D(13,12,24,25)  =    174.426691     0.000000     0.001042   174.427733
	  112 D(13,12,24,26)  =     59.196317     0.000000     0.001079    59.197395
	  113 D(14,12,24,21)  =   -179.867304     0.000000     0.001093  -179.866211
	  114 D(14,12,24,25)  =     58.752419     0.000000     0.001055    58.753473
	  115 D(14,12,24,26)  =    -56.477956     0.000000     0.001091   -56.476864
	  116 D(15,18,21,22)  =   -179.596226    -0.000000    -0.002117  -179.598343
	  117 D(15,18,21,23)  =    -63.964786     0.000000    -0.002007   -63.966792
	  118 D(15,18,21,24)  =     58.554873    -0.000000    -0.001983    58.552890
	  119 D(16,15,18,19)  =     89.334055     0.000000    -0.008057    89.325998
	  120 D(16,15,18,20)  =    -25.483339     0.000000    -0.007874   -25.491213
	  121 D(16,15,18,21)  =   -147.592098    -0.000000    -0.008076  -147.600174
	  122 D(17,15,18,19)  =   -154.982572    -0.000000    -0.008454  -154.991026
	  123 D(17,15,18,20)  =     90.200035    -0.000000    -0.008272    90.191763
	  124 D(17,15,18,21)  =    -31.908724    -0.000000    -0.008474   -31.917198
	  125 D(18,21,24,25)  =    173.971247     0.000000    -0.000375   173.970872
	  126 D(18,21,24,26)  =    -70.688729     0.000000    -0.000508   -70.689236
	  127 D(19,18,21,22)  =    -56.562179    -0.000000    -0.001978   -56.564157
	  128 D(19,18,21,23)  =     59.069261     0.000000    -0.001867    59.067394
	  129 D(19,18,21,24)  =   -178.411080    -0.000000    -0.001844  -178.412923
	  130 D(20,18,21,22)  =     57.821320    -0.000000    -0.002182    57.819138
	  131 D(20,18,21,23)  =    173.452761     0.000000    -0.002072   173.450689
	  132 D(20,18,21,24)  =    -64.027580    -0.000000    -0.002048   -64.029629
	  133 D(22,21,24,25)  =     52.624811    -0.000000    -0.000509    52.624302
	  134 D(22,21,24,26)  =    167.964835    -0.000000    -0.000642   167.964194
	  135 D(23,21,24,25)  =    -62.466458     0.000000    -0.000313   -62.466770
	  136 D(23,21,24,26)  =     52.873567     0.000000    -0.000446    52.873121
	  137 R(1,21)         =      3.381760     0.000002    -0.000039     3.381721
	  138 R(5,18)         =      3.587095    -0.000003    -0.000001     3.587094
	  139 R(12,15)        =      3.623805    -0.000003    -0.000036     3.623769
	 ---------------------------------------------------------------------------

  ==> Convergence Check <==

  Measures of convergence in internal coordinates in au.
  Criteria marked as inactive (o), active & met (*), and active & unmet ( ).
  --------------------------------------------------------------------------------------------- ~
   Step     Total Energy     Delta E     MAX Force     RMS Force      MAX Disp      RMS Disp    ~
  --------------------------------------------------------------------------------------------- ~
    Convergence Criteria             o    2.00e-06 *    1.00e-06 *    6.00e-06 *    4.00e-06 *  ~
  --------------------------------------------------------------------------------------------- ~
      1    -314.97973193   -3.15e+02 o    2.78e-06      6.35e-07 *    1.48e-04      4.54e-05    ~
  ---------------------------------------------------------------------------------------------

	Writing optimization data to binary file.
	Structure for next step:
	Cartesian Geometry (in Angstrom)
	    C    -2.9812388288   0.6894430818  -0.2261783682
	    H    -2.4916188416   1.1626346461  -1.0762371280
	    H    -2.6652474613   1.2128880371   0.6778675183
	    H    -4.0549238928   0.8379960630  -0.3416336245
	    C     3.2828394478  -0.0411299524  -0.0744990979
	    H     4.0825699466  -0.7412136808   0.1661075847
	    H     3.7226915547   0.9540387602  -0.1601613099
	    H     2.8881678254  -0.3138419651  -1.0531647292
	    C    -2.6434650181  -0.7951814165  -0.1432287568
	    H    -2.9043892969  -1.2773023080  -1.0895350575
	    H    -3.2680119906  -1.2616273618   0.6224630301
	    C     2.1945397553  -0.0576976546   0.9932000910
	    H     1.7493289640  -1.0540824816   1.0502196003
	    H     2.6450882775   0.1301140541   1.9703356124
	    C    -1.1789567287  -1.0967040468   0.1736330483
	    H    -1.0686844025  -2.1812616221   0.2461161700
	    H    -0.9373839619  -0.7032327664   1.1646051515
	    C    -0.1777894367  -0.5637422653  -0.8607366696
	    H    -0.6501679341  -0.5740897114  -1.8482653662
	    H     0.6649994960  -1.2554008595  -0.9292384071
	    C     0.3775453993   0.8382464901  -0.5901349360
	    H     1.0661536516   1.0949920202  -1.3993138048
	    H    -0.4235385696   1.5774265697  -0.6296480976
	    C     1.1026714782   0.9824591909   0.7502385916
	    H     1.5493192588   1.9802355267   0.7950881616
	    H     0.3794981553   0.9391669597   1.5679372633
			--------------------------
			 OPTKING Finished Execution 
			--------------------------

    Structure for next step:
    Molecular point group: c1
    Full point group: C1

    Geometry (in Angstrom), charge = 0, multiplicity = 1:

    C           -2.981237293323     0.689444060916    -0.226169470019
    H           -2.491617306120     1.162635625230    -1.076228229810
    H           -2.665245925824     1.212889016195     0.677876416440
    H           -4.054922357327     0.837997042136    -0.341624726350
    C            3.282840983317    -0.041128973274    -0.074490199767
    H            4.082571482116    -0.741212701677     0.166116482908
    H            3.722693090193     0.954039739358    -0.160152411744
    H            2.888169360861    -0.313840985938    -1.053155831080
    C           -2.643463482644    -0.795180437378    -0.143219858686
    H           -2.904387761445    -1.277301328907    -1.089526159371
    H           -3.268010455135    -1.261626382640     0.622471928213
    C            2.194541290747    -0.057696675488     0.993208989117
    H            1.749330499479    -1.054081502465     1.050228498426
    H            2.645089813001     0.130115033282     1.970344510534
    C           -1.178955193183    -1.096703067615     0.173641946433
    H           -1.068682867040    -2.181260643008     0.246125068204
    H           -0.937382426379    -0.703231787219     1.164614049675
    C           -0.177787901235    -0.563741286141    -0.860727771464
    H           -0.650166398611    -0.574088732281    -1.848256468011
    H            0.665001031439    -1.255399880328    -0.929229508895
    C            0.377546934730     0.838247469223    -0.590126037884
    H            1.066155187091     1.094992999379    -1.399304906608
    H           -0.423537034152     1.577427548857    -0.629639199400
    C            1.102673013685     0.982460170045     0.750247489793
    H            1.549320794264     1.980236505820     0.795097059780
    H            0.379499690737     0.939167938870     1.567946161452

gradient() will perform analytic gradient computation.

*** tstart() called on wr40
*** at Thu Sep 22 00:07:49 2016


         ---------------------------------------------------------
                                   SCF
            by Justin Turney, Rob Parrish, and Andy Simmonett
                              RHF Reference
                       12 Threads,  60000 MiB Core
         ---------------------------------------------------------

  ==> Geometry <==

    Molecular point group: c1
    Full point group: C1

    Geometry (in Angstrom), charge = 0, multiplicity = 1:

       Center              X                  Y                   Z               Mass       
    ------------   -----------------  -----------------  -----------------  -----------------
           C         -2.981237293323     0.689444060916    -0.226169470019    12.000000000000
           H         -2.491617306120     1.162635625230    -1.076228229810     1.007825032070
           H         -2.665245925824     1.212889016195     0.677876416440     1.007825032070
           H         -4.054922357327     0.837997042136    -0.341624726350     1.007825032070
           C          3.282840983317    -0.041128973274    -0.074490199767    12.000000000000
           H          4.082571482116    -0.741212701677     0.166116482908     1.007825032070
           H          3.722693090193     0.954039739358    -0.160152411744     1.007825032070
           H          2.888169360861    -0.313840985938    -1.053155831080     1.007825032070
           C         -2.643463482644    -0.795180437378    -0.143219858686    12.000000000000
           H         -2.904387761445    -1.277301328907    -1.089526159371     1.007825032070
           H         -3.268010455135    -1.261626382640     0.622471928213     1.007825032070
           C          2.194541290747    -0.057696675488     0.993208989117    12.000000000000
           H          1.749330499479    -1.054081502465     1.050228498426     1.007825032070
           H          2.645089813001     0.130115033282     1.970344510534     1.007825032070
           C         -1.178955193183    -1.096703067615     0.173641946433    12.000000000000
           H         -1.068682867040    -2.181260643008     0.246125068204     1.007825032070
           H         -0.937382426379    -0.703231787219     1.164614049675     1.007825032070
           C         -0.177787901235    -0.563741286141    -0.860727771464    12.000000000000
           H         -0.650166398611    -0.574088732281    -1.848256468011     1.007825032070
           H          0.665001031439    -1.255399880328    -0.929229508895     1.007825032070
           C          0.377546934730     0.838247469223    -0.590126037884    12.000000000000
           H          1.066155187091     1.094992999379    -1.399304906608     1.007825032070
           H         -0.423537034152     1.577427548857    -0.629639199400     1.007825032070
           C          1.102673013685     0.982460170045     0.750247489793    12.000000000000
           H          1.549320794264     1.980236505820     0.795097059780     1.007825032070
           H          0.379499690737     0.939167938870     1.567946161452     1.007825032070

  Running in c1 symmetry.

  Rotational constants: A =      0.13743  B =      0.02945  C =      0.02816 [cm^-1]
  Rotational constants: A =   4119.94155  B =    882.76526  C =    844.09090 [MHz]
  Nuclear repulsion =  405.117323072824945

  Charge       = 0
  Multiplicity = 1
  Electrons    = 66
  Nalpha       = 33
  Nbeta        = 33

  ==> Algorithm <==

  SCF Algorithm Type is DF.
  DIIS enabled.
  MOM disabled.
  Fractional occupation disabled.
  Guess Type is READ.
  Energy threshold   = 1.00e-10
  Density threshold  = 1.00e-10
  Integral threshold = 0.00e+00

  ==> Primary Basis <==

  Basis Set: AUG-CC-PVTZ
    Number of shells: 274
    Number of basis function: 782
    Number of Cartesian functions: 890
    Spherical Harmonics?: true
    Max angular momentum: 3

  ==> Pre-Iterations <==

   -------------------------------------------------------
    Irrep   Nso     Nmo     Nalpha   Nbeta   Ndocc  Nsocc
   -------------------------------------------------------
     A        782     782       0       0       0       0
   -------------------------------------------------------
    Total     782     782      33      33      33       0
   -------------------------------------------------------

  ==> Integral Setup <==

  ==> DFJK: Density-Fitted J/K Matrices <==

    J tasked:                  Yes
    K tasked:                  Yes
    wK tasked:                  No
    OpenMP threads:             12
    Integrals threads:          12
    Memory (MB):             42915
    Algorithm:                Core
    Integral Cache:           NONE
    Schwarz Cutoff:          1E-12
    Fitting Condition:       1E-12

   => Auxiliary Basis Set <=

  Basis Set: 
    Number of shells: 492
    Number of basis function: 1660
    Number of Cartesian functions: 2038
    Spherical Harmonics?: true
    Max angular momentum: 4

  Minimum eigenvalue in the overlap matrix is 1.4451067399E-06.
  Using Symmetric Orthogonalization.
  SCF Guess: Reading in previously saved MOs, projecting if necessary.

  Using orbitals from previous SCF, no projection.
  Recomputing DOCC and SOCC from number of alpha and beta electrons from previous calculation.
              A 
    DOCC [    33 ]

  ==> Iterations <==

                           Total Energy        Delta E     RMS |[F,P]|

   @DF-RHF iter   0:  -313.53442364078688   -3.13534e+02   4.20547e-07 
   @DF-RHF iter   1:  -313.53437824631459    4.53945e-05   8.56933e-08 
   @DF-RHF iter   2:  -313.53437824990039   -3.58580e-09   3.62407e-08 DIIS
   @DF-RHF iter   3:  -313.53437825042903   -5.28644e-10   1.37216e-08 DIIS
   @DF-RHF iter   4:  -313.53437825053703   -1.08002e-10   1.61863e-09 DIIS
   @DF-RHF iter   5:  -313.53437825053908   -2.04636e-12   4.93639e-10 DIIS
   @DF-RHF iter   6:  -313.53437825053908    0.00000e+00   1.21311e-10 DIIS
   @DF-RHF iter   7:  -313.53437825053987   -7.95808e-13   3.65654e-11 DIIS

  ==> Post-Iterations <==

    Orbital Energies (a.u.)
    -----------------------

    Doubly Occupied:                                                      

       1A    -11.213058     2A    -11.211995     3A    -11.210466  
       4A    -11.209880     5A    -11.209720     6A    -11.208664  
       7A    -11.206896     8A    -11.206716     9A     -1.094800  
      10A     -1.057765    11A     -1.002242    12A     -0.947506  
      13A     -0.895930    14A     -0.835291    15A     -0.784506  
      16A     -0.741183    17A     -0.649873    18A     -0.634987  
      19A     -0.611053    20A     -0.599457    21A     -0.575452  
      22A     -0.549471    23A     -0.542291    24A     -0.534784  
      25A     -0.516450    26A     -0.510260    27A     -0.491196  
      28A     -0.470897    29A     -0.467943    30A     -0.461563  
      31A     -0.440720    32A     -0.435132    33A     -0.431793  

    Virtual:                                                              

      34A      0.029987    35A      0.033475    36A      0.034399  
      37A      0.034774    38A      0.045771    39A      0.048531  
      40A      0.049964    41A      0.054042    42A      0.054332  
      43A      0.065778    44A      0.069436    45A      0.073247  
      46A      0.074226    47A      0.077309    48A      0.085712  
      49A      0.090297    50A      0.093982    51A      0.099007  
      52A      0.114114    53A      0.116528    54A      0.123160  
      55A      0.125290    56A      0.127983    57A      0.133304  
      58A      0.135055    59A      0.136921    60A      0.139178  
      61A      0.139841    62A      0.141091    63A      0.149231  
      64A      0.152686    65A      0.157520    66A      0.159530  
      67A      0.162389    68A      0.170642    69A      0.173163  
      70A      0.178751    71A      0.180797    72A      0.181524  
      73A      0.186491    74A      0.187166    75A      0.193231  
      76A      0.199096    77A      0.211321    78A      0.220549  
      79A      0.225514    80A      0.230096    81A      0.237439  
      82A      0.247106    83A      0.255269    84A      0.261370  
      85A      0.267036    86A      0.273592    87A      0.282767  
      88A      0.285370    89A      0.289509    90A      0.297397  
      91A      0.300470    92A      0.304466    93A      0.311815  
      94A      0.318605    95A      0.321568    96A      0.324993  
      97A      0.327743    98A      0.330700    99A      0.333826  
     100A      0.334475   101A      0.340676   102A      0.346036  
     103A      0.347358   104A      0.350311   105A      0.356954  
     106A      0.358300   107A      0.362520   108A      0.367940  
     109A      0.370476   110A      0.373345   111A      0.374555  
     112A      0.377370   113A      0.381821   114A      0.387998  
     115A      0.391367   116A      0.391736   117A      0.403137  
     118A      0.405738   119A      0.414246   120A      0.415744  
     121A      0.422190   122A      0.427174   123A      0.433549  
     124A      0.435291   125A      0.436244   126A      0.440495  
     127A      0.446105   128A      0.451771   129A      0.453287  
     130A      0.457877   131A      0.462753   132A      0.468245  
     133A      0.472556   134A      0.474803   135A      0.475743  
     136A      0.478697   137A      0.480346   138A      0.483650  
     139A      0.489247   140A      0.495640   141A      0.496977  
     142A      0.499015   143A      0.502980   144A      0.504992  
     145A      0.511079   146A      0.517210   147A      0.518057  
     148A      0.524204   149A      0.529794   150A      0.537730  
     151A      0.541445   152A      0.544569   153A      0.551297  
     154A      0.556378   155A      0.559831   156A      0.563954  
     157A      0.564675   158A      0.568131   159A      0.576955  
     160A      0.580937   161A      0.584980   162A      0.586037  
     163A      0.594849   164A      0.597914   165A      0.601390  
     166A      0.604049   167A      0.606906   168A      0.615680  
     169A      0.623520   170A      0.628061   171A      0.628802  
     172A      0.633942   173A      0.639016   174A      0.642215  
     175A      0.650004   176A      0.651354   177A      0.655688  
     178A      0.665569   179A      0.666487   180A      0.667532  
     181A      0.675872   182A      0.680244   183A      0.684725  
     184A      0.687663   185A      0.695388   186A      0.699710  
     187A      0.709203   188A      0.710216   189A      0.713401  
     190A      0.723756   191A      0.729578   192A      0.735352  
     193A      0.742031   194A      0.751561   195A      0.752253  
     196A      0.760002   197A      0.769432   198A      0.773455  
     199A      0.780368   200A      0.789436   201A      0.794104  
     202A      0.800990   203A      0.809875   204A      0.827866  
     205A      0.833934   206A      0.838218   207A      0.852202  
     208A      0.854946   209A      0.860240   210A      0.866198  
     211A      0.869432   212A      0.874584   213A      0.878702  
     214A      0.880866   215A      0.891632   216A      0.894296  
     217A      0.903810   218A      0.910823   219A      0.915099  
     220A      0.922999   221A      0.927701   222A      0.929682  
     223A      0.931793   224A      0.938055   225A      0.943732  
     226A      0.952000   227A      0.955361   228A      0.957258  
     229A      0.960505   230A      0.968626   231A      0.973221  
     232A      0.979016   233A      0.984911   234A      0.991053  
     235A      0.996516   236A      0.999468   237A      1.001347  
     238A      1.003111   239A      1.008052   240A      1.012883  
     241A      1.015348   242A      1.024428   243A      1.034423  
     244A      1.036330   245A      1.044621   246A      1.050430  
     247A      1.053434   248A      1.056584   249A      1.065293  
     250A      1.070612   251A      1.078830   252A      1.083793  
     253A      1.089076   254A      1.094430   255A      1.102458  
     256A      1.104138   257A      1.108381   258A      1.110768  
     259A      1.118753   260A      1.124297   261A      1.129268  
     262A      1.130369   263A      1.136878   264A      1.145531  
     265A      1.146864   266A      1.159637   267A      1.163377  
     268A      1.166779   269A      1.172317   270A      1.177293  
     271A      1.180883   272A      1.188652   273A      1.195371  
     274A      1.200843   275A      1.205671   276A      1.213245  
     277A      1.220190   278A      1.222437   279A      1.229040  
     280A      1.232519   281A      1.238315   282A      1.243995  
[...]

	Back-transformation to cartesian coordinates...
	Successfully converged to displaced geometry.

	--- Internal Coordinate Step in ANG or DEG, aJ/ANG or AJ/DEG ---
	 ---------------------------------------------------------------------------
	   Coordinate                Previous        Force       Change         New 
	   ----------                --------       ------       ------       ------
	    1 R(1,2)          =      1.089145    -0.000000    -0.000000     1.089145
	    2 R(1,3)          =      1.091395    -0.000000     0.000000     1.091395
	    3 R(1,4)          =      1.090044    -0.000001    -0.000000     1.090044
	    4 R(1,9)          =      1.524821    -0.000002    -0.000000     1.524821
	    5 R(5,6)          =      1.089761     0.000003     0.000000     1.089761
	    6 R(5,7)          =      1.091408     0.000004     0.000000     1.091408
	    7 R(5,8)          =      1.089920     0.000004     0.000000     1.089920
	    8 R(5,12)         =      1.524681     0.000000     0.000000     1.524681
	    9 R(9,10)         =      1.093626     0.000000     0.000000     1.093626
	   10 R(9,11)         =      1.092664     0.000000     0.000000     1.092664
	   11 R(9,15)         =      1.528430     0.000004     0.000001     1.528430
	   12 R(12,13)        =      1.092817     0.000005    -0.000000     1.092817
	   13 R(12,14)        =      1.092274     0.000003     0.000000     1.092274
	   14 R(12,24)        =      1.527459    -0.000001    -0.000000     1.527459
	   15 R(15,16)        =      1.092556     0.000004     0.000000     1.092557
	   16 R(15,17)        =      1.093254     0.000005     0.000001     1.093254
	   17 R(15,18)        =      1.535023     0.000000     0.000000     1.535024
	   18 R(18,19)        =      1.094744     0.000001    -0.000000     1.094744
	   19 R(18,20)        =      1.092420     0.000002    -0.000000     1.092420
	   20 R(18,21)        =      1.532055    -0.000001    -0.000000     1.532055
	   21 R(21,22)        =      1.093103     0.000001    -0.000000     1.093103
	   22 R(21,23)        =      1.090728     0.000001    -0.000000     1.090728
	   23 R(21,24)        =      1.530752     0.000004     0.000000     1.530752
	   24 R(24,25)        =      1.094105     0.000003    -0.000000     1.094105
	   25 R(24,26)        =      1.092469     0.000003    -0.000000     1.092469
	   26 B(1,9,10)       =    109.226276    -0.000000     0.000021   109.226296
	   27 B(1,9,11)       =    109.095702     0.000000    -0.000017   109.095684
	   28 B(1,9,15)       =    114.557067    -0.000000    -0.000018   114.557049
	   29 B(2,1,3)        =    107.937283     0.000000     0.000006   107.937289
	   30 B(2,1,4)        =    107.512937     0.000000     0.000012   107.512949
	   31 B(2,1,9)        =    111.461968    -0.000000    -0.000025   111.461943
	   32 B(3,1,4)        =    107.912202     0.000000     0.000005   107.912207
	   33 B(3,1,9)        =    110.963364     0.000000     0.000000   110.963364
	   34 B(4,1,9)        =    110.894136    -0.000000     0.000002   110.894139
	   35 B(5,12,13)      =    109.709106     0.000000    -0.000001   109.709105
	   36 B(5,12,14)      =    109.278540    -0.000000    -0.000009   109.278531
	   37 B(5,12,24)      =    113.044590     0.000000     0.000009   113.044599
	   38 B(6,5,7)        =    107.899378    -0.000000    -0.000003   107.899375
	   39 B(6,5,8)        =    107.652824     0.000000    -0.000003   107.652822
	   40 B(6,5,12)       =    111.236912    -0.000000     0.000015   111.236927
	   41 B(7,5,8)        =    107.674516    -0.000000    -0.000006   107.674510
	   42 B(7,5,12)       =    110.642641     0.000000     0.000011   110.642652
	   43 B(8,5,12)       =    111.568133     0.000000    -0.000014   111.568118
	   44 B(9,15,16)      =    107.836297    -0.000000     0.000001   107.836298
	   45 B(9,15,17)      =    109.186319     0.000000    -0.000024   109.186295
	   46 B(9,15,18)      =    114.628980    -0.000000    -0.000033   114.628947
	   47 B(10,9,11)      =    106.367502    -0.000000     0.000003   106.367505
	   48 B(10,9,15)      =    108.724775    -0.000000     0.000011   108.724786
	   49 B(11,9,15)      =    108.553571     0.000000     0.000002   108.553574
	   50 B(12,24,21)     =    114.440331     0.000000    -0.000001   114.440330
	   51 B(12,24,25)     =    108.825156    -0.000000    -0.000005   108.825151
	   52 B(12,24,26)     =    109.095621     0.000000     0.000029   109.095650
	   53 B(13,12,14)     =    106.149391     0.000000     0.000007   106.149398
	   54 B(13,12,24)     =    109.752853    -0.000000     0.000018   109.752871
	   55 B(14,12,24)     =    108.666537    -0.000000    -0.000024   108.666513
	   56 B(15,18,19)     =    108.853136    -0.000000    -0.000012   108.853124
	   57 B(15,18,20)     =    109.002102     0.000000     0.000029   109.002131
	   58 B(15,18,21)     =    115.792840     0.000000    -0.000085   115.792755
	   59 B(16,15,17)     =    105.952353    -0.000000     0.000022   105.952375
	   60 B(16,15,18)     =    108.876868     0.000000     0.000047   108.876915
	   61 B(17,15,18)     =    109.981993     0.000000    -0.000007   109.981986
	   62 B(18,21,22)     =    108.211859    -0.000000     0.000001   108.211859
	   63 B(18,21,23)     =    110.337010     0.000000     0.000040   110.337049
	   64 B(18,21,24)     =    114.366732    -0.000000    -0.000072   114.366660
	   65 B(19,18,20)     =    105.684822    -0.000000     0.000010   105.684832
	   66 B(19,18,21)     =    108.928544     0.000000     0.000040   108.928583
	   67 B(20,18,21)     =    108.108431    -0.000000     0.000026   108.108457
	   68 B(21,24,25)     =    108.372396    -0.000000    -0.000025   108.372371
	   69 B(21,24,26)     =    109.760487    -0.000000     0.000006   109.760493
	   70 B(22,21,23)     =    106.062298    -0.000000    -0.000011   106.062287
	   71 B(22,21,24)     =    109.126316     0.000000     0.000033   109.126349
	   72 B(23,21,24)     =    108.408550     0.000000     0.000014   108.408564
	   73 B(25,24,26)     =    106.003133     0.000000    -0.000005   106.003128
	   74 D(1,9,15,16)    =    177.786962     0.000000    -0.000134   177.786828
	   75 D(1,9,15,17)    =     63.100113     0.000000    -0.000148    63.099965
	   76 D(1,9,15,18)    =    -60.787026     0.000000    -0.000095   -60.787122
	   77 D(2,1,9,10)     =    -55.554851     0.000000     0.000304   -55.554547
	   78 D(2,1,9,11)     =   -171.439323     0.000000     0.000299  -171.439024
	   79 D(2,1,9,15)     =     66.663714     0.000000     0.000322    66.664036
	   80 D(3,1,9,10)     =   -175.886444     0.000000     0.000313  -175.886130
	   81 D(3,1,9,11)     =     68.229085     0.000000     0.000308    68.229393
	   82 D(3,1,9,15)     =    -53.667878    -0.000000     0.000331   -53.667547
	   83 D(4,1,9,10)     =     64.192846     0.000000     0.000305    64.193151
	   84 D(4,1,9,11)     =    -51.691626    -0.000000     0.000300   -51.691326
	   85 D(4,1,9,15)     =   -173.588589    -0.000000     0.000323  -173.588266
	   86 D(5,12,24,21)   =     58.638189    -0.000000    -0.000086    58.638103
	   87 D(5,12,24,25)   =    -62.742264     0.000000    -0.000049   -62.742313
	   88 D(5,12,24,26)   =   -177.972430     0.000000    -0.000056  -177.972486
	   89 D(6,5,12,13)    =    -61.370920    -0.000000    -0.000283   -61.371203
	   90 D(6,5,12,14)    =     54.624742     0.000000    -0.000280    54.624462
	   91 D(6,5,12,24)    =    175.774020    -0.000000    -0.000311   175.773709
	   92 D(7,5,12,13)    =    178.710927    -0.000000    -0.000295   178.710632
	   93 D(7,5,12,14)    =    -65.293410     0.000000    -0.000292   -65.293703
	   94 D(7,5,12,24)    =     55.855868    -0.000000    -0.000323    55.855544
	   95 D(8,5,12,13)    =     58.857693    -0.000000    -0.000286    58.857407
	   96 D(8,5,12,14)    =    174.853356     0.000000    -0.000283   174.853072
	   97 D(8,5,12,24)    =    -63.997366    -0.000000    -0.000314   -63.997680
	   98 D(9,15,18,19)   =    -31.521280     0.000000     0.000195   -31.521085
	   99 D(9,15,18,20)   =   -146.338524     0.000000     0.000175  -146.338349
	  100 D(9,15,18,21)   =     91.552906     0.000000     0.000177    91.553083
	  101 D(10,9,15,16)   =    -59.722272     0.000000    -0.000111   -59.722383
	  102 D(10,9,15,17)   =   -174.409121     0.000000    -0.000125  -174.409246
	  103 D(10,9,15,18)   =     61.703740    -0.000000    -0.000073    61.703667
	  104 D(11,9,15,16)   =     55.594741     0.000000    -0.000101    55.594640
	  105 D(11,9,15,17)   =    -59.092108     0.000000    -0.000115   -59.092222
	  106 D(11,9,15,18)   =    177.020753    -0.000000    -0.000062   177.020690
	  107 D(12,24,21,18)  =     52.341875    -0.000000     0.000064    52.341939
	  108 D(12,24,21,22)  =    -69.004437     0.000000     0.000088   -69.004349
	  109 D(12,24,21,23)  =    175.904224     0.000000     0.000076   175.904300
	  110 D(13,12,24,21)  =    -64.192564    -0.000000    -0.000104   -64.192668
	  111 D(13,12,24,25)  =    174.426983    -0.000000    -0.000067   174.426916
	  112 D(13,12,24,26)  =     59.196817    -0.000000    -0.000074    59.196743
	  113 D(14,12,24,21)  =   -179.866782    -0.000000    -0.000109  -179.866891
	  114 D(14,12,24,25)  =     58.752765    -0.000000    -0.000072    58.752693
	  115 D(14,12,24,26)  =    -56.477401    -0.000000    -0.000079   -56.477480
	  116 D(15,18,21,22)  =   -179.596377     0.000000     0.000236  -179.596142
	  117 D(15,18,21,23)  =    -63.964731     0.000000     0.000244   -63.964487
	  118 D(15,18,21,24)  =     58.555019     0.000000     0.000240    58.555260
	  119 D(16,15,18,19)  =     89.333258    -0.000000     0.000208    89.333466
	  120 D(16,15,18,20)  =    -25.483986     0.000000     0.000188   -25.483798
	  121 D(16,15,18,21)  =   -147.592556     0.000000     0.000190  -147.592366
	  122 D(17,15,18,19)  =   -154.983550     0.000000     0.000258  -154.983292
	  123 D(17,15,18,20)  =     90.199206     0.000000     0.000237    90.199443
	  124 D(17,15,18,21)  =    -31.909364     0.000000     0.000239   -31.909124
	  125 D(18,21,24,25)  =    173.970911    -0.000000     0.000039   173.970950
	  126 D(18,21,24,26)  =    -70.689287    -0.000000     0.000022   -70.689265
	  127 D(19,18,21,22)  =    -56.561844     0.000000     0.000190   -56.561653
	  128 D(19,18,21,23)  =     59.069802     0.000000     0.000199    59.070001
	  129 D(19,18,21,24)  =   -178.410447     0.000000     0.000195  -178.410252
	  130 D(20,18,21,22)  =     57.821361     0.000000     0.000236    57.821597
	  131 D(20,18,21,23)  =    173.453006     0.000000     0.000245   173.453251
	  132 D(20,18,21,24)  =    -64.027243     0.000000     0.000241   -64.027002
	  133 D(22,21,24,25)  =     52.624600     0.000000     0.000062    52.624662
	  134 D(22,21,24,26)  =    167.964402     0.000000     0.000045   167.964447
	  135 D(23,21,24,25)  =    -62.466740     0.000000     0.000050   -62.466690
	  136 D(23,21,24,26)  =     52.873062    -0.000000     0.000033    52.873096
	  137 R(1,21)         =      3.381764     0.000001     0.000001     3.381766
	  138 R(5,18)         =      3.587089     0.000001    -0.000001     3.587088
	  139 R(12,15)        =      3.623799     0.000000     0.000002     3.623802
	 ---------------------------------------------------------------------------

  ==> Convergence Check <==

  Measures of convergence in internal coordinates in au.
  Criteria marked as inactive (o), active & met (*), and active & unmet ( ).
  ---------------------------------------------------------------------------------------------
   Step     Total Energy     Delta E     MAX Force     RMS Force      MAX Disp      RMS Disp   
  ---------------------------------------------------------------------------------------------
    Convergence Criteria             o    2.00e-06 *    1.00e-06 *    6.00e-06 *    4.00e-06 *
  ---------------------------------------------------------------------------------------------
     30    -314.97973193    2.29e-09 o    6.55e-07 *    1.66e-07 *    5.77e-06 *    2.51e-06 *  ~
  ---------------------------------------------------------------------------------------------


  **** Optimization is complete! (in 30 steps) ****

  ==> Optimization Summary <==

  Measures of convergence in internal coordinates in au.
  --------------------------------------------------------------------------------------------------------------- ~
   Step         Total Energy             Delta E       MAX Force       RMS Force        MAX Disp        RMS Disp  ~
  --------------------------------------------------------------------------------------------------------------- ~
      1    -314.979731928861   -314.979731928861      0.00000278      0.00000064      0.00014789      0.00004543  ~
      2    -314.979731931086     -0.000000002225      0.00000280      0.00000050      0.00013076      0.00003981  ~
      3    -314.979731927294      0.000000003792      0.00000256      0.00000060      0.00005906      0.00001682  ~
      4    -314.979731926342      0.000000000951      0.00000277      0.00000067      0.00006429      0.00001739  ~
      5    -314.979731932053     -0.000000005711      0.00000086      0.00000020      0.00008541      0.00003090  ~
      6    -314.979731931245      0.000000000809      0.00000176      0.00000046      0.00009425      0.00003529  ~
      7    -314.979731931430     -0.000000000185      0.00000203      0.00000042      0.00004832      0.00001950  ~
      8    -314.979731929444      0.000000001987      0.00000101      0.00000023      0.00003151      0.00001147  ~
      9    -314.979731929446     -0.000000000002      0.00000078      0.00000021      0.00001513      0.00000406  ~
     10    -314.979731928405      0.000000001041      0.00000114      0.00000024      0.00002192      0.00000577  ~
     11    -314.979731926824      0.000000001581      0.00000092      0.00000020      0.00003378      0.00000920  ~
     12    -314.979731931683     -0.000000004859      0.00000173      0.00000048      0.00008468      0.00001506  ~
     13    -314.979731929174      0.000000002509      0.00000366      0.00000096      0.00006323      0.00001306  ~
     14    -314.979731931534     -0.000000002360      0.00000194      0.00000045      0.00002878      0.00000747  ~
     15    -314.979731930402      0.000000001132      0.00000082      0.00000018      0.00001593      0.00000516  ~
     16    -314.979731929256      0.000000001146      0.00000036      0.00000008      0.00000938      0.00000302  ~
     17    -314.979731932185     -0.000000002929      0.00000035      0.00000008      0.00000852      0.00000281  ~
     18    -314.979731930980      0.000000001205      0.00000039      0.00000009      0.00001078      0.00000313  ~
     19    -314.979731932758     -0.000000001778      0.00000055      0.00000016      0.00002526      0.00000839  ~
     20    -314.979731929455      0.000000003303      0.00000134      0.00000032      0.00001692      0.00000605  ~
     21    -314.979731925928      0.000000003527      0.00000120      0.00000024      0.00001672      0.00000430  ~
     22    -314.979731930141     -0.000000004213      0.00000058      0.00000014      0.00000947      0.00000216  ~
     23    -314.979731927417      0.000000002724      0.00000030      0.00000008      0.00000692      0.00000236  ~
     24    -314.979731931457     -0.000000004040      0.00000136      0.00000030      0.00000909      0.00000228  ~
     25    -314.979731928584      0.000000002873      0.00000136      0.00000037      0.00001863      0.00000590  ~
     26    -314.979731927952      0.000000000632      0.00000204      0.00000050      0.00002152      0.00000646  ~
     27    -314.979731931253     -0.000000003301      0.00000074      0.00000013      0.00001765      0.00000609  ~
     28    -314.979731931347     -0.000000000094      0.00000127      0.00000029      0.00001479      0.00000584  ~
     29    -314.979731932610     -0.000000001264      0.00000056      0.00000013      0.00001228      0.00000448  ~
     30    -314.979731930321      0.000000002289      0.00000065      0.00000017      0.00000577      0.00000251  ~
  --------------------------------------------------------------------------------------------------------------- ~

	Writing optimization data to binary file.
	Final energy is   -314.9797319303208
	Final (previous) structure:
	Cartesian Geometry (in Angstrom)
	    C    -2.9813121587   0.6893814028  -0.2263930753
	    H    -2.4916859133   1.1624556179  -1.0765135363
	    H    -2.6653600151   1.2129768288   0.6775788765
	    H    -4.0549986000   0.8378823292  -0.3418995681
	    C     3.2828538118  -0.0411506955  -0.0745863643
	    H     4.0825884783  -0.7412603418   0.1659346611
	    H     3.7227160982   0.9540170379  -0.1602176863
	    H     2.8881207837  -0.3138014819  -1.0532453539
	    C    -2.6434945891  -0.7952191644  -0.1432048746
	    H    -2.9043932202  -1.2774948446  -1.0894396449
	    H    -3.2680309602  -1.2615684338   0.6225539926
	    C     2.1946166867  -0.0577632514   0.9931762243
	    H     1.7493914556  -1.0541446493   1.0501679786
	    H     2.6452282032   0.1299869668   1.9702951892
	    C    -1.1789774665  -1.0966372032   0.1737092407
	    H    -1.0686341294  -2.1811847131   0.2462350160
	    H    -0.9374558015  -0.7031105267   1.1646724260
	    C    -0.1778253215  -0.5636469309  -0.8606562633
	    H    -0.6502242745  -0.5739394643  -1.8481777042
	    H     0.6649512266  -1.2553190001  -0.9292076665
	    C     0.3775475289   0.8383157153  -0.5899984517
	    H     1.0661154554   1.0950986433  -1.3992020862
	    H    -0.4235277935   1.5775123309  -0.6294192632
	    C     1.1027526271   0.9824267877   0.7503417061
	    H     1.5494204472   1.9801931626   0.7952327991
	    H     0.3796240342   0.9390937452   1.5680798014
	Saving final (previous) structure.
			--------------------------
			 OPTKING Finished Execution 
			--------------------------

    Final optimized geometry and variables:
    Molecular point group: c1
    Full point group: C1

    Geometry (in Angstrom), charge = 0, multiplicity = 1:

    C           -2.981312158730     0.689381402763    -0.226393075317
    H           -2.491685913286     1.162455617863    -1.076513536349
    H           -2.665360015073     1.212976828784     0.677578876530
    H           -4.054998599950     0.837882329173    -0.341899568079
    C            3.282853811803    -0.041150695520    -0.074586364319
    H            4.082588478310    -0.741260341751     0.165934661051
    H            3.722716098228     0.954017037924    -0.160217686325
    H            2.888120783661    -0.313801481907    -1.053245353864
    C           -2.643494589074    -0.795219164395    -0.143204874615
    H           -2.904393220177    -1.277494844593    -1.089439644920
    H           -3.268030960235    -1.261568433806     0.622553992614
    C            2.194616686742    -0.057763251399     0.993176224303
    H            1.749391455627    -1.054144649300     1.050167978582
    H            2.645228203230     0.129986966769     1.970295189189
    C           -1.178977466524    -1.096637203212     0.173709240696
    H           -1.068634129442    -2.181184713115     0.246235016006
    H           -0.937455801480    -0.703110526691     1.164672425982
    C           -0.177825321503    -0.563646930897    -0.860656263331
    H           -0.650224274455    -0.573939464316    -1.848177704157
    H            0.664951226602    -1.255319000106    -0.929207666518
    C            0.377547528914     0.838315715291    -0.589998451718
    H            1.066115455436     1.095098643327    -1.399202086230
    H           -0.423527793469     1.577512330920    -0.629419263173
    C            1.102752627133     0.982426787722     0.750341706124
    H            1.549420447180     1.980193162630     0.795232799052
    H            0.379624034226     0.939093745198     1.568079801383

	Cleaning optimization helper files.

*** Psi4 exiting successfully. Buy a developer a beer!
