    -----------------------------------------------------------------------
          Psi4: An Open-Source Ab Initio Electronic Structure Package
                              Psi4 1.0.0 Driver

                          Git: Rev {master} 6a9a71b dirty

    J. M. Turney, A. C. Simmonett, R. M. Parrish, E. G. Hohenstein,
    F. A. Evangelista, J. T. Fermann, B. J. Mintz, L. A. Burns, J. J. Wilke,
    M. L. Abrams, N. J. Russ, M. L. Leininger, C. L. Janssen, E. T. Seidl,
    W. D. Allen, H. F. Schaefer, R. A. King, E. F. Valeev, C. D. Sherrill,
    and T. D. Crawford, WIREs Comput. Mol. Sci. 2, 556-565 (2012)
    (doi: 10.1002/wcms.93)

                         Additional Contributions by
    A. E. DePrince, U. Bozkaya, A. Yu. Sokolov, D. G. A. Smith, R. Di Remigio,
    R. M. Richard, J. F. Gonthier, H. R. McAlexander, M. Saitow, and
    B. P. Pritchard
    -----------------------------------------------------------------------


    Psi4 started on: Tue Sep 20 16:43:05 2016

    Process ID:  44528
    PSI4DATADIR: /usr/local/hpc5/psi4conda/share/psi4
    Memory level set to 256.000 MB

  ==> Input File <==

--------------------------------------------------------------------------
memory 30 Gb

molecule molecule_27_psi {
0 1
symmetry c1
    C            3.129180038101    -1.524866587104    -0.164968588996
    H            2.996180253040    -2.597578572293    -0.045022519233
    H            3.949543360439    -1.212560562732     0.478767020333
    H            3.425888626702    -1.336205678208    -1.195321732457
    C           -3.483496710222    -1.113443924663     0.220304791152
    H           -4.320633236171    -1.423403260565    -0.401001016467
    H           -3.885078679097    -0.621873126230     1.104576714322
    H           -2.958678995903    -2.008882330324     0.548488010118
    C            1.861515132111    -0.762058507225     0.173400119721
    H            1.565634005445    -0.972960989395     1.202780618139
    H            1.048636773253    -1.111894244883    -0.463234665306
    C           -2.543252852390    -0.186120553691    -0.526842505932
    H           -2.171046953784    -0.683019544428    -1.424515837007
    H           -3.086803962527     0.697906334324    -0.865021415212
    C            2.037373862656     0.735207772002    -0.000035987416
    H            2.289578558403     0.939447957382    -1.043825926925
    H            2.895206157541     1.058063980029     0.593959472867
    C            0.823081210364     1.568414341017     0.381323841615
    H            1.068958661498     2.619883919845     0.232654055022
    H            0.623965688651     1.445566445483     1.448593680947
    C           -0.439290968441     1.215482965091    -0.405463440437
    H           -1.003014478384     2.121936000686    -0.630178430002
    H           -0.155559442471     0.787162003374    -1.370535793724
    C           -1.363721715283     0.251453667903     0.318723360251
    H           -0.807138905509    -0.628255064109     0.643494140862
    H           -1.730300646046     0.734986619241     1.227713002484
}

set globals {
  reference rhf
  g_convergence gau_verytight
  basis aug-cc-pvtz
  freeze_core true
  scf_type df
  mp_type df
}
optimize('mp2')
--------------------------------------------------------------------------
/usr/local/hpc5/psi4conda/lib/python2.7/site-packages/v2rdm_casscf/v2rdm_casscf.so loaded.

  Memory set to  30.000 GiB by Python script.
gradient() will perform analytic gradient computation.

*** tstart() called on wr33
*** at Tue Sep 20 16:43:06 2016


         ---------------------------------------------------------
                                   SCF
            by Justin Turney, Rob Parrish, and Andy Simmonett
                              RHF Reference
                       12 Threads,  30000 MiB Core
         ---------------------------------------------------------

  ==> Geometry <==

    Molecular point group: c1
    Full point group: C1

    Geometry (in Angstrom), charge = 0, multiplicity = 1:

       Center              X                  Y                   Z               Mass       
    ------------   -----------------  -----------------  -----------------  -----------------
           C          3.129180038101    -1.524866587104    -0.164968588996    12.000000000000
           H          2.996180253040    -2.597578572293    -0.045022519233     1.007825032070
           H          3.949543360439    -1.212560562732     0.478767020333     1.007825032070
           H          3.425888626702    -1.336205678208    -1.195321732457     1.007825032070
           C         -3.483496710222    -1.113443924663     0.220304791152    12.000000000000
           H         -4.320633236171    -1.423403260565    -0.401001016467     1.007825032070
           H         -3.885078679097    -0.621873126230     1.104576714322     1.007825032070
           H         -2.958678995903    -2.008882330324     0.548488010118     1.007825032070
           C          1.861515132111    -0.762058507225     0.173400119721    12.000000000000
           H          1.565634005445    -0.972960989395     1.202780618139     1.007825032070
           H          1.048636773253    -1.111894244883    -0.463234665306     1.007825032070
           C         -2.543252852390    -0.186120553691    -0.526842505932    12.000000000000
           H         -2.171046953784    -0.683019544428    -1.424515837007     1.007825032070
           H         -3.086803962527     0.697906334324    -0.865021415212     1.007825032070
           C          2.037373862656     0.735207772002    -0.000035987416    12.000000000000
           H          2.289578558403     0.939447957382    -1.043825926925     1.007825032070
           H          2.895206157541     1.058063980029     0.593959472867     1.007825032070
           C          0.823081210364     1.568414341017     0.381323841615    12.000000000000
           H          1.068958661498     2.619883919845     0.232654055022     1.007825032070
           H          0.623965688651     1.445566445483     1.448593680947     1.007825032070
           C         -0.439290968441     1.215482965091    -0.405463440437    12.000000000000
           H         -1.003014478384     2.121936000686    -0.630178430002     1.007825032070
           H         -0.155559442471     0.787162003374    -1.370535793724     1.007825032070
           C         -1.363721715283     0.251453667903     0.318723360251    12.000000000000
           H         -0.807138905509    -0.628255064109     0.643494140862     1.007825032070
           H         -1.730300646046     0.734986619241     1.227713002484     1.007825032070

  Running in c1 symmetry.

  Rotational constants: A =      0.10110  B =      0.02775  C =      0.02329 [cm^-1]
  Rotational constants: A =   3030.99273  B =    831.95992  C =    698.16283 [MHz]
  Nuclear repulsion =  393.734343224313534

  Charge       = 0
  Multiplicity = 1
  Electrons    = 66
  Nalpha       = 33
  Nbeta        = 33

  ==> Algorithm <==

  SCF Algorithm Type is DF.
  DIIS enabled.
  MOM disabled.
  Fractional occupation disabled.
  Guess Type is SAD.
  Energy threshold   = 1.00e-10
  Density threshold  = 1.00e-10
  Integral threshold = 0.00e+00

  ==> Primary Basis <==

  Basis Set: AUG-CC-PVTZ
    Number of shells: 274
    Number of basis function: 782
    Number of Cartesian functions: 890
    Spherical Harmonics?: true
    Max angular momentum: 3

  ==> Pre-Iterations <==

   -------------------------------------------------------
    Irrep   Nso     Nmo     Nalpha   Nbeta   Ndocc  Nsocc
   -------------------------------------------------------
     A        782     782       0       0       0       0
   -------------------------------------------------------
    Total     782     782      33      33      33       0
   -------------------------------------------------------

  ==> Integral Setup <==

  ==> DFJK: Density-Fitted J/K Matrices <==

    J tasked:                  Yes
    K tasked:                  Yes
    wK tasked:                  No
    OpenMP threads:             12
    Integrals threads:          12
    Memory (MB):             21457
    Algorithm:                Core
    Integral Cache:           NONE
    Schwarz Cutoff:          1E-12
    Fitting Condition:       1E-12

   => Auxiliary Basis Set <=

  Basis Set: 
    Number of shells: 492
    Number of basis function: 1660
    Number of Cartesian functions: 2038
    Spherical Harmonics?: true
    Max angular momentum: 4

  Minimum eigenvalue in the overlap matrix is 1.8228073914E-06.
  Using Symmetric Orthogonalization.
  SCF Guess: Superposition of Atomic Densities via on-the-fly atomic UHF.

  ==> Iterations <==

                           Total Energy        Delta E     RMS |[F,P]|

   @DF-RHF iter   0:  -316.99387249038978   -3.16994e+02   7.05108e-03 
   @DF-RHF iter   1:  -313.27866619045415    3.71521e+00   7.49263e-04 
   @DF-RHF iter   2:  -313.50716143163640   -2.28495e-01   2.68614e-04 DIIS
   @DF-RHF iter   3:  -313.53520618329696   -2.80448e-02   1.02005e-04 DIIS
   @DF-RHF iter   4:  -313.54033443658830   -5.12825e-03   1.78984e-05 DIIS
   @DF-RHF iter   5:  -313.54053565501283   -2.01218e-04   5.20258e-06 DIIS
   @DF-RHF iter   6:  -313.54055029948529   -1.46445e-05   1.43437e-06 DIIS
   @DF-RHF iter   7:  -313.54055165102636   -1.35154e-06   2.89945e-07 DIIS
   @DF-RHF iter   8:  -313.54055171199832   -6.09720e-08   8.23459e-08 DIIS
   @DF-RHF iter   9:  -313.54055171612299   -4.12467e-09   2.35905e-08 DIIS
   @DF-RHF iter  10:  -313.54055171644120   -3.18209e-10   5.99698e-09 DIIS
   @DF-RHF iter  11:  -313.54055171646633   -2.51248e-11   1.37985e-09 DIIS
   @DF-RHF iter  12:  -313.54055171646735   -1.02318e-12   4.04095e-10 DIIS
   @DF-RHF iter  13:  -313.54055171646735    0.00000e+00   1.00973e-10 DIIS
   @DF-RHF iter  14:  -313.54055171646735    0.00000e+00   2.66528e-11 DIIS

  ==> Post-Iterations <==

    Orbital Energies (a.u.)
    -----------------------

    Doubly Occupied:                                                      

       1A    -11.210689     2A    -11.210206     3A    -11.209137  
       4A    -11.208564     5A    -11.208021     6A    -11.206707  
       7A    -11.205886     8A    -11.205554     9A     -1.097143  
      10A     -1.063047    11A     -1.012970    12A     -0.951308  
      13A     -0.880249    14A     -0.824502    15A     -0.786753  
      16A     -0.770420    17A     -0.653220    18A     -0.631576  
      19A     -0.605818    20A     -0.593585    21A     -0.575666  
      22A     -0.562757    23A     -0.548646    24A     -0.527699  
      25A     -0.520340    26A     -0.497817    27A     -0.485509  
      28A     -0.478917    29A     -0.464374    30A     -0.462774  
      31A     -0.453480    32A     -0.438877    33A     -0.431772  

    Virtual:                                                              

      34A      0.029197    35A      0.032837    36A      0.033403  
      37A      0.035244    38A      0.046314    39A      0.047816  
      40A      0.049965    41A      0.053624    42A      0.056569  
      43A      0.066624    44A      0.067486    45A      0.069632  
      46A      0.073390    47A      0.080832    48A      0.083954  
      49A      0.091865    50A      0.096750    51A      0.099309  
      52A      0.113820    53A      0.116114    54A      0.117800  
      55A      0.121934    56A      0.127281    57A      0.128477  
      58A      0.136657    59A      0.138168    60A      0.140888  
      61A      0.143574    62A      0.147247    63A      0.154208  
      64A      0.156020    65A      0.161219    66A      0.162877  
      67A      0.164965    68A      0.166821    69A      0.168891  
      70A      0.173042    71A      0.181041    72A      0.183519  
      73A      0.192292    74A      0.195831    75A      0.200997  
      76A      0.206226    77A      0.216920    78A      0.224673  
      79A      0.227403    80A      0.236952    81A      0.241180  
      82A      0.243796    83A      0.249331    84A      0.260063  
      85A      0.264093    86A      0.268059    87A      0.271228  
      88A      0.277281    89A      0.278066    90A      0.284903  
      91A      0.298091    92A      0.299830    93A      0.307344  
      94A      0.310322    95A      0.313925    96A      0.319289  
      97A      0.324719    98A      0.327530    99A      0.334810  
     100A      0.337911   101A      0.342295   102A      0.346593  
     103A      0.349277   104A      0.353711   105A      0.356094  
     106A      0.359429   107A      0.363904   108A      0.367978  
     109A      0.369822   110A      0.374491   111A      0.376942  
     112A      0.380483   113A      0.383883   114A      0.386112  
     115A      0.392674   116A      0.395451   117A      0.397113  
     118A      0.400998   119A      0.405211   120A      0.409427  
     121A      0.410786   122A      0.414600   123A      0.422677  
     124A      0.426604   125A      0.433165   126A      0.434888  
     127A      0.439793   128A      0.442072   129A      0.450092  
     130A      0.452654   131A      0.455059   132A      0.458482  
     133A      0.462451   134A      0.464221   135A      0.466846  
     136A      0.469223   137A      0.474008   138A      0.477444  
     139A      0.479259   140A      0.480050   141A      0.486092  
     142A      0.490043   143A      0.494526   144A      0.502278  
     145A      0.505651   146A      0.507385   147A      0.515039  
     148A      0.518579   149A      0.521164   150A      0.524509  
     151A      0.526063   152A      0.529496   153A      0.536835  
     154A      0.542821   155A      0.545266   156A      0.549084  
     157A      0.555712   158A      0.557388   159A      0.560184  
     160A      0.567012   161A      0.572905   162A      0.577199  
     163A      0.579697   164A      0.585902   165A      0.590563  
     166A      0.594123   167A      0.596535   168A      0.604216  
     169A      0.608794   170A      0.616398   171A      0.621137  
     172A      0.623708   173A      0.626201   174A      0.632006  
     175A      0.640085   176A      0.643005   177A      0.650871  
     178A      0.652882   179A      0.657821   180A      0.659078  
     181A      0.664633   182A      0.678357   183A      0.682597  
     184A      0.685682   185A      0.690725   186A      0.697693  
     187A      0.704934   188A      0.709688   189A      0.714735  
     190A      0.720265   191A      0.724695   192A      0.730326  
     193A      0.736338   194A      0.740737   195A      0.752190  
     196A      0.759225   197A      0.759887   198A      0.772475  
     199A      0.783523   200A      0.797908   201A      0.802138  
     202A      0.809899   203A      0.818386   204A      0.823051  
     205A      0.830464   206A      0.837741   207A      0.839452  
     208A      0.848423   209A      0.854031   210A      0.863987  
     211A      0.869528   212A      0.872024   213A      0.879124  
     214A      0.881060   215A      0.885665   216A      0.891872  
     217A      0.895185   218A      0.899768   219A      0.906686  
     220A      0.910436   221A      0.917417   222A      0.921595  
     223A      0.925462   224A      0.929934   225A      0.934335  
     226A      0.937031   227A      0.945459   228A      0.952087  
     229A      0.952914   230A      0.960441   231A      0.964440  
     232A      0.966773   233A      0.970474   234A      0.973039  
     235A      0.980374   236A      0.985408   237A      0.987709  
     238A      0.994554   239A      0.997478   240A      1.005876  
     241A      1.010536   242A      1.019214   243A      1.021342  
     244A      1.024352   245A      1.035004   246A      1.036924  
     247A      1.040952   248A      1.041961   249A      1.048795  
     250A      1.052935   251A      1.061457   252A      1.066848  
     253A      1.072963   254A      1.074288   255A      1.083210  
     256A      1.086314   257A      1.099205   258A      1.109450  
     259A      1.111470   260A      1.116026   261A      1.121258  
     262A      1.121952   263A      1.127790   264A      1.134430  
     265A      1.140520   266A      1.149070   267A      1.153285  
     268A      1.158034   269A      1.162074   270A      1.168015  
     271A      1.172122   272A      1.174092   273A      1.175140  
     274A      1.183554   275A      1.187606   276A      1.194140  
     277A      1.194802   278A      1.206137   279A      1.212262  
     280A      1.217820   281A      1.220009   282A      1.231502  
     283A      1.233561   284A      1.235588   285A      1.241352  
     286A      1.246421   287A      1.257164   288A      1.260460  
     289A      1.266082   290A      1.269183   291A      1.271383  
     292A      1.290642   293A      1.292167   294A      1.297048  
     295A      1.302227   296A      1.306780   297A      1.310192  
     298A      1.315915   299A      1.322458   300A      1.328221  
     301A      1.331191   302A      1.332662   303A      1.343190  
     304A      1.346977   305A      1.351819   306A      1.367039  
     307A      1.378654   308A      1.382759   309A      1.392282  
     310A      1.394846   311A      1.402934   312A      1.406311  
     313A      1.412110   314A      1.424563   315A      1.435655  
     316A      1.440589   317A      1.446507   318A      1.450708  
     319A      1.466844   320A      1.468767   321A      1.482294  
     322A      1.485034   323A      1.493015   324A      1.500535  
     325A      1.505490   326A      1.522137   327A      1.528816  
     328A      1.530353   329A      1.538213   330A      1.549009  
     331A      1.553783   332A      1.559857   333A      1.569186  
     334A      1.575779   335A      1.585226   336A      1.591103  
     337A      1.597523   338A      1.611227   339A      1.620040  
     340A      1.621045   341A      1.627681   342A      1.637984  
     343A      1.641342   344A      1.645333   345A      1.650688  
     346A      1.661438   347A      1.662536   348A      1.666957  
     349A      1.669566   350A      1.686831   351A      1.692273  
     352A      1.697998   353A      1.704958   354A      1.712728  
     355A      1.715597   356A      1.719423   357A      1.722875  
     358A      1.727744   359A      1.734227   360A      1.735909  
     361A      1.743497   362A      1.747932   363A      1.749167  
     364A      1.757557   365A      1.768763   366A      1.770043  
     367A      1.774586   368A      1.778965   369A      1.787251  
     370A      1.793469   371A      1.797480   372A      1.799972  
     373A      1.807342   374A      1.818514   375A      1.826278  
     376A      1.835422   377A      1.840253   378A      1.841473  
     379A      1.846050   380A      1.854166   381A      1.862287  
     382A      1.866817   383A      1.873297   384A      1.878411  
     385A      1.886659   386A      1.891101   387A      1.899827  
     388A      1.908966   389A      1.913050   390A      1.920106  
     391A      1.927966   392A      1.936668   393A      1.939961  
     394A      1.951817   395A      1.959980   396A      1.968714  
     397A      1.972767   398A      1.976994   399A      1.990643  
     400A      1.994991   401A      2.003312   402A      2.007611  
     403A      2.010159   404A      2.022051   405A      2.023379  
     406A      2.035362   407A      2.037866   408A      2.054957  
     409A      2.061032   410A      2.066492   411A      2.070749  
     412A      2.080529   413A      2.086606   414A      2.090448  
     415A      2.098698   416A      2.109796   417A      2.114946  
     418A      2.123044   419A      2.129997   420A      2.140088  
     421A      2.147352   422A      2.156767   423A      2.166065  
     424A      2.173202   425A      2.181951   426A      2.198072  
     427A      2.206376   428A      2.213694   429A      2.218687  
     430A      2.232297   431A      2.235050   432A      2.247864  
     433A      2.251555   434A      2.261975   435A      2.273186  
     436A      2.275268   437A      2.279887   438A      2.293326  
     439A      2.299706   440A      2.305715   441A      2.315913  
     442A      2.318551   443A      2.330354   444A      2.339235  
     445A      2.357905   446A      2.364266   447A      2.366135  
     448A      2.369861   449A      2.383693   450A      2.395002  
     451A      2.403984   452A      2.417191   453A      2.417589  
     454A      2.420622   455A      2.429637   456A      2.434203  
     457A      2.453184   458A      2.461893   459A      2.468178  
     460A      2.481708   461A      2.488904   462A      2.517973  
     463A      2.522059   464A      2.532329   465A      2.544258  
     466A      2.549663   467A      2.569085   468A      2.585635  
     469A      2.596257   470A      2.597367   471A      2.621732  
     472A      2.644247   473A      2.647945   474A      2.658245  
     475A      2.707796   476A      2.716982   477A      2.726719  
     478A      2.755200   479A      2.759583   480A      2.777768  
     481A      2.788451   482A      2.817750   483A      2.830462  
     484A      2.916681   485A      2.937874   486A      2.976914  
     487A      3.003119   488A      3.025601   489A      3.089512  
     490A      3.121445   491A      3.196180   492A      3.230825  
     493A      3.289272   494A      3.313122   495A      3.347516  
     496A      3.426069   497A      3.446931   498A      3.467100  
     499A      3.472913   500A      3.480307   501A      3.497016  
     502A      3.501825   503A      3.505155   504A      3.517465  
     505A      3.529532   506A      3.539120   507A      3.546690  
     508A      3.563403   509A      3.574563   510A      3.595008  
     511A      3.605142   512A      3.607287   513A      3.618689  
     514A      3.637007   515A      3.645593   516A      3.650374  
     517A      3.654492   518A      3.682363   519A      3.686870  
     520A      3.693578   521A      3.700680   522A      3.708444  
     523A      3.717472   524A      3.722645   525A      3.735539  
     526A      3.741904   527A      3.749984   528A      3.765094  
     529A      3.771019   530A      3.775691   531A      3.796431  
     532A      3.801119   533A      3.809160   534A      3.814535  
     535A      3.820710   536A      3.831979   537A      3.839967  
     538A      3.845087   539A      3.849571   540A      3.858653  
     541A      3.867436   542A      3.878871   543A      3.887141  
     544A      3.891067   545A      3.907731   546A      3.909004  
     547A      3.922908   548A      3.926846   549A      3.930968  
     550A      3.940846   551A      3.945359   552A      3.949803  
     553A      3.968570   554A      3.974443   555A      3.980357  
     556A      3.985494   557A      3.988775   558A      4.003664  
     559A      4.006414   560A      4.015733   561A      4.019771  
     562A      4.025736   563A      4.033624   564A      4.046234  
     565A      4.051819   566A      4.057407   567A      4.062480  
     568A      4.067980   569A      4.085352   570A      4.093157  
     571A      4.099548   572A      4.109614   573A      4.113241  
     574A      4.125425   575A      4.132138   576A      4.143702  
     577A      4.148212   578A      4.156135   579A      4.171886  
     580A      4.186879   581A      4.193552   582A      4.197902  
     583A      4.207273   584A      4.216934   585A      4.241832  
     586A      4.244965   587A      4.258672   588A      4.261328  
     589A      4.270523   590A      4.273665   591A      4.297021  
     592A      4.303835   593A      4.310360   594A      4.319245  
     595A      4.335002   596A      4.337912   597A      4.351464  
     598A      4.355052   599A      4.364533   600A      4.382297  
     601A      4.397969   602A      4.405858   603A      4.413027  
     604A      4.417183   605A      4.422195   606A      4.447675  
     607A      4.452130   608A      4.477029   609A      4.493496  
     610A      4.499190   611A      4.509511   612A      4.512423  
     613A      4.536387   614A      4.543670   615A      4.558682  
     616A      4.579580   617A      4.591385   618A      4.595205  
     619A      4.615521   620A      4.635250   621A      4.649999  
     622A      4.654112   623A      4.665050   624A      4.670055  
     625A      4.691435   626A      4.700894   627A      4.709254  
     628A      4.725688   629A      4.733520   630A      4.740753  
     631A      4.755154   632A      4.766847   633A      4.769927  
     634A      4.785582   635A      4.794757   636A      4.802854  
     637A      4.810257   638A      4.812882   639A      4.831023  
     640A      4.834580   641A      4.854136   642A      4.860302  
     643A      4.871903   644A      4.880708   645A      4.882719  
     646A      4.887398   647A      4.904227   648A      4.913145  
     649A      4.920977   650A      4.931992   651A      4.947012  
     652A      4.967726   653A      4.980179   654A      4.984481  
     655A      5.000230   656A      5.015874   657A      5.026526  
     658A      5.039119   659A      5.055374   660A      5.068944  
     661A      5.073731   662A      5.098804   663A      5.120047  
     664A      5.128229   665A      5.138185   666A      5.144824  
     667A      5.166660   668A      5.169488   669A      5.184682  
     670A      5.202095   671A      5.214980   672A      5.223644  
     673A      5.235959   674A      5.248997   675A      5.251653  
     676A      5.258405   677A      5.274488   678A      5.283111  
     679A      5.289376   680A      5.296431   681A      5.307597  
     682A      5.323170   683A      5.331387   684A      5.343777  
     685A      5.349397   686A      5.364768   687A      5.378152  
     688A      5.387911   689A      5.394631   690A      5.403000  
     691A      5.410951   692A      5.417968   693A      5.434764  
     694A      5.445697   695A      5.457921   696A      5.461112  
     697A      5.473350   698A      5.482566   699A      5.491331  
     700A      5.513546   701A      5.522648   702A      5.540291  
     703A      5.553499   704A      5.561831   705A      5.569699  
     706A      5.580116   707A      5.592482   708A      5.609034  
     709A      5.628219   710A      5.652809   711A      5.662533  
     712A      5.668014   713A      5.675864   714A      5.697255  
     715A      5.710668   716A      5.716990   717A      5.735901  
     718A      5.746493   719A      5.758181   720A      5.760669  
     721A      5.774701   722A      5.778351   723A      5.797309  
     724A      5.821810   725A      5.831790   726A      5.840633  
     727A      5.859961   728A      5.878747   729A      5.901728  
     730A      5.911266   731A      5.939693   732A      5.974108  
     733A      5.996648   734A      6.005680   735A      6.036788  
     736A      6.059910   737A      6.074597   738A      6.098495  
     739A      6.109114   740A      6.138242   741A      6.161215  
     742A      6.197245   743A      6.214267   744A      6.224138  
     745A      6.230392   746A      6.241431   747A      6.265328  
     748A      6.275022   749A      6.291963   750A      6.300516  
     751A      6.323544   752A      6.334894   753A      6.336098  
     754A      6.355006   755A      6.386665   756A      6.404108  
     757A      6.439250   758A      6.497615   759A      6.576732  
     760A      6.632117   761A      6.660543   762A      6.691534  
     763A      6.748770   764A      6.792908   765A      6.804291  
     766A      6.812056   767A      6.872499   768A      6.881934  
     769A      6.906839   770A      6.918233   771A      7.005759  
     772A      7.043262   773A      7.099004   774A      7.146853  
     775A     18.164393   776A     18.359951   777A     18.435384  
     778A     18.641111   779A     18.690128   780A     19.122397  
     781A     19.763887   782A     19.947190  

    Final Occupation by Irrep:
              A 
    DOCC [    33 ]

  Energy converged.

  @DF-RHF Final Energy:  -313.54055171646735

   => Energetics <=

    Nuclear Repulsion Energy =            393.7343432243135339
    One-Electron Energy =               -1202.5818200648943730
    Two-Electron Energy =                 495.3069251241137181
    DFT Exchange-Correlation Energy =       0.0000000000000000
    Empirical Dispersion Energy =           0.0000000000000000
    PCM Polarization Energy =               0.0000000000000000
    EFP Energy =                            0.0000000000000000
    Total Energy =                       -313.5405517164671210


  Saving occupied orbitals to File 180.

*** tstop() called on wr33 at Tue Sep 20 16:44:38 2016
Module time:
	user time   =     971.68 seconds =      16.19 minutes
	system time =      14.82 seconds =       0.25 minutes
	total time  =         92 seconds =       1.53 minutes
Total time:
	user time   =     971.68 seconds =      16.19 minutes
	system time =      14.82 seconds =       0.25 minutes
	total time  =         92 seconds =       1.53 minutes


Properties will be evaluated at   0.000000,   0.000000,   0.000000 Bohr

Properties computed using the SCF density matrix

  Nuclear Dipole Moment: (a.u.)
     X:    -0.2387      Y:    -2.0546      Z:     0.0397

  Electronic Dipole Moment: (a.u.)
     X:     0.2354      Y:     2.0827      Z:    -0.0424

  Dipole Moment: (a.u.)
     X:    -0.0033      Y:     0.0281      Z:    -0.0027     Total:     0.0284

  Dipole Moment: (Debye)
     X:    -0.0084      Y:     0.0713      Z:    -0.0069     Total:     0.0722


  //>>>>>>>>>>>>>>>>>>>>>>>>>>>>>>>>>>>//
  //               DFMP2               //
  //<<<<<<<<<<<<<<<<<<<<<<<<<<<<<<<<<<<//


*** tstart() called on wr33
*** at Tue Sep 20 16:44:38 2016


*** tstop() called on wr33 at Tue Sep 20 16:44:38 2016
Module time:
	user time   =       2.90 seconds =       0.05 minutes
	system time =       0.11 seconds =       0.00 minutes
	total time  =          0 seconds =       0.00 minutes
Total time:
	user time   =     975.94 seconds =      16.27 minutes
	system time =      14.96 seconds =       0.25 minutes
	total time  =         92 seconds =       1.53 minutes
	 --------------------------------------------------------
	                          DF-MP2                         
	      2nd-Order Density-Fitted Moller-Plesset Theory     
	              RMP2 Wavefunction,  12 Threads             
	                                                         
	        Rob Parrish, Justin Turney, Andy Simmonett,      
	           Ed Hohenstein, and C. David Sherrill          
	 --------------------------------------------------------

   => Auxiliary Basis Set <=

  Basis Set: 
    Number of shells: 476
    Number of basis function: 1676
    Number of Cartesian functions: 2078
    Spherical Harmonics?: true
    Max angular momentum: 4

	 --------------------------------------------------------
	                 NBF =   782, NAUX =  1676
	 --------------------------------------------------------
	   CLASS    FOCC     OCC    AOCC    AVIR     VIR    FVIR
	   PAIRS       8      33      25     749     749       0
	 --------------------------------------------------------

DGAS Warning! /src/lib/libfock/apps.cc:80 is not currently checking restricted

         ------------------------------------------------------------
                                     CPHF                           
                                  Rob Parrish                       
         ------------------------------------------------------------

  ==> Geometry <==

    Molecular point group: c1
    Full point group: C1

    Geometry (in Angstrom), charge = 0, multiplicity = 1:

       Center              X                  Y                   Z               Mass       
    ------------   -----------------  -----------------  -----------------  -----------------
           C          3.129180038101    -1.524866587104    -0.164968588996    12.000000000000
           H          2.996180253040    -2.597578572293    -0.045022519233     1.007825032070
           H          3.949543360439    -1.212560562732     0.478767020333     1.007825032070
           H          3.425888626702    -1.336205678208    -1.195321732457     1.007825032070
           C         -3.483496710222    -1.113443924663     0.220304791152    12.000000000000
           H         -4.320633236171    -1.423403260565    -0.401001016467     1.007825032070
           H         -3.885078679097    -0.621873126230     1.104576714322     1.007825032070
           H         -2.958678995903    -2.008882330324     0.548488010118     1.007825032070
           C          1.861515132111    -0.762058507225     0.173400119721    12.000000000000
           H          1.565634005445    -0.972960989395     1.202780618139     1.007825032070
           H          1.048636773253    -1.111894244883    -0.463234665306     1.007825032070
           C         -2.543252852390    -0.186120553691    -0.526842505932    12.000000000000
           H         -2.171046953784    -0.683019544428    -1.424515837007     1.007825032070
           H         -3.086803962527     0.697906334324    -0.865021415212     1.007825032070
           C          2.037373862656     0.735207772002    -0.000035987416    12.000000000000
           H          2.289578558403     0.939447957382    -1.043825926925     1.007825032070
           H          2.895206157541     1.058063980029     0.593959472867     1.007825032070
           C          0.823081210364     1.568414341017     0.381323841615    12.000000000000
           H          1.068958661498     2.619883919845     0.232654055022     1.007825032070
           H          0.623965688651     1.445566445483     1.448593680947     1.007825032070
           C         -0.439290968441     1.215482965091    -0.405463440437    12.000000000000
           H         -1.003014478384     2.121936000686    -0.630178430002     1.007825032070
           H         -0.155559442471     0.787162003374    -1.370535793724     1.007825032070
           C         -1.363721715283     0.251453667903     0.318723360251    12.000000000000
           H         -0.807138905509    -0.628255064109     0.643494140862     1.007825032070
           H         -1.730300646046     0.734986619241     1.227713002484     1.007825032070

  Nuclear repulsion =  393.734343224313534
  Reference energy  = -313.540551716467348

  ==> Basis Set <==

  Basis Set: AUG-CC-PVTZ
    Number of shells: 274
    Number of basis function: 782
    Number of Cartesian functions: 890
    Spherical Harmonics?: true
    Max angular momentum: 3

  ==> CGRSolver (by Rob Parrish) <==

   Number of roots    =         1
   Preconditioning    =    JACOBI
   Convergence cutoff =     1E-06
   Maximum iterations =       100

  ==> CPHFRHamiltonian (by Rob Parrish) <== 

  ==> DFJK: Density-Fitted J/K Matrices <==

    J tasked:                  Yes
    K tasked:                  Yes
    wK tasked:                  No
    OpenMP threads:             12
    Integrals threads:          12
    Memory (MB):             21457
    Algorithm:                Core
    Integral Cache:           NONE
    Schwarz Cutoff:          1E-12
    Fitting Condition:       1E-12

   => Auxiliary Basis Set <=

  Basis Set: 
    Number of shells: 492
    Number of basis function: 1660
    Number of Cartesian functions: 2038
    Spherical Harmonics?: true
    Max angular momentum: 4

  ==> CPHF Iterations <==

  => Iterations <=

             Iter  Converged  Remaining    Residual
  CGR           1          0          1   8.937E-02
  CGR           2          0          1   1.286E-02
  CGR           3          0          1   3.733E-03
  CGR           4          0          1   8.432E-04
  CGR           5          0          1   1.787E-04
  CGR           6          0          1   4.504E-05
  CGR           7          0          1   1.261E-05
  CGR           8          0          1   3.222E-06
  CGR           9          1          0   8.784E-07

    CGRSolver converged.

  ==> DFCorrGrad: Density-Fitted Correlated Gradients <==

    OpenMP threads:             12
    Integrals threads:          12
    Memory (MB):             21457
    Schwarz Cutoff:          0E+00
    Fitting Condition:       1E-12

   => Auxiliary Basis Set <=

  Basis Set: 
    Number of shells: 492
    Number of basis function: 1660
    Number of Cartesian functions: 2038
    Spherical Harmonics?: true
    Max angular momentum: 4

	-----------------------------------------------------------
	 ==================> DF-MP2 Energies <==================== 
	-----------------------------------------------------------
	 Reference Energy          =    -313.5405517164673483 [Eh]
	 Singles Energy            =      -0.0000000000000000 [Eh]
	 Same-Spin Energy          =      -0.3162450189030357 [Eh]
	 Opposite-Spin Energy      =      -1.1245666158694876 [Eh]
	 Correlation Energy        =      -1.4408116347725233 [Eh]
	 Total Energy              =    -314.9813633512398496 [Eh]
	-----------------------------------------------------------
	 ================> DF-SCS-MP2 Energies <================== 
	-----------------------------------------------------------
	 SCS Same-Spin Scale       =       0.3333333333333333 [-]
	 SCS Opposite-Spin Scale   =       1.2000000000000000 [-]
	 SCS Same-Spin Energy      =      -0.1054150063010119 [Eh]
	 SCS Opposite-Spin Energy  =      -1.3494799390433851 [Eh]
	 SCS Correlation Energy    =      -1.4548949453443971 [Eh]
	 SCS Total Energy          =    -314.9954466618117408 [Eh]
	-----------------------------------------------------------


  -Total Gradient:
     Atom            X                  Y                   Z
    ------   -----------------  -----------------  -----------------
       1       -0.001225350444     0.000804840316     0.000346762562
       2       -0.000105894758     0.001458054273    -0.000098262414
       3       -0.001277076145    -0.000202473803    -0.000751329276
       4       -0.000636930816    -0.000070794099     0.001357231232
       5        0.000960801536     0.000922639402    -0.000729907089
       6        0.001165269410     0.000532060149     0.000619832433
       7        0.000724946459    -0.000429792931    -0.001269214623
       8       -0.000464753938     0.001361870576    -0.000553166317
       9        0.001508633351     0.000965865955    -0.000744589536
      10        0.000480126580     0.000450882694    -0.001333426166
      11        0.001180939555     0.000699835286     0.000728102670
      12        0.000523108967    -0.000721435962     0.002105565740
      13       -0.000293143175     0.000493165021     0.001378273087
      14        0.000781759459    -0.000993386100     0.000773669338
      15       -0.001777360775    -0.000953282059     0.000788967416
      16       -0.000628577834    -0.000299234794     0.001311794345
      17       -0.001248143806    -0.000505425925    -0.000546161999
      18        0.000200038458    -0.001415499612    -0.001442077344
      19       -0.000428579191    -0.001237566811    -0.000065874084
      20        0.000259051870    -0.000418695928    -0.001481668047
      21        0.000126568400    -0.000809790432     0.001716899989
      22        0.000857294654    -0.001041248672     0.000492858005
      23       -0.000320015232     0.000187970470     0.001507505908
      24       -0.000173522222     0.000330312028    -0.002098149785
      25       -0.000595548741     0.001229676010    -0.000639990567
      26        0.000406358383    -0.000338545050    -0.001373645476


			-----------------------------------------
			 OPTKING 2.0: for geometry optimizations 
			  - R.A. King,  Bethel University        
			-----------------------------------------

	Internal coordinates to be generated automatically.
	Detected frag 1 with atoms:  1 2 3 4 5 6 7 8 9 10 11 12 13 14 15 16 17 18 19 20
	 21 22 23 24 25 26
	---Fragment 1 Bond Connectivity---
	 1 : 2 3 4 9
	 2 : 1
	 3 : 1
	 4 : 1
	 5 : 6 7 8 12
	 6 : 5
	 7 : 5
	 8 : 5
	 9 : 1 10 11 15
	 10 : 9
	 11 : 9
	 12 : 5 13 14 24
	 13 : 12
	 14 : 12
	 15 : 9 16 17 18
	 16 : 15
	 17 : 15
	 18 : 15 19 20 21
	 19 : 18
	 20 : 18
	 21 : 18 22 23 24
	 22 : 21
	 23 : 21
	 24 : 12 21 25 26
	 25 : 24
	 26 : 24

	---Fragment 1 Geometry and Gradient---
	 C           5.9132932925       -2.8815802388       -0.3117454537
	 H           5.6619601230       -4.9087121103       -0.0850802312
	 H           7.4635553012       -2.2914073831        0.9047385499
	 H           6.4739912662       -2.5250627890       -2.2588307150
	 C          -6.5828547671       -2.1041040819        0.4163157210
	 H          -8.1648135370       -2.6898423391       -0.7577821001
	 H          -7.3417347082       -1.1751698980        2.0873474828
	 H          -5.5910930174       -3.7962374375        1.0364921263
	 C           3.5177537919       -1.4400818759        0.3276787377
	 H           2.9586194946       -1.8386298079        2.2729259662
	 H           1.9816363143       -2.1011756116       -0.8753866527
	 C          -4.8060513777       -0.3517168742       -0.9955880514
	 H          -4.1026841643       -1.2907198824       -2.6919448039
	 H          -5.8332141151        1.3188518383       -1.6346535738
	 C           3.8500786307        1.3893413399       -0.0000680064
	 H           4.3266764351        1.7752993556       -1.9725451323
	 H           5.4711467360        1.9994511533        1.1224207378
	 C           1.5553980727        2.9638735674        0.7205976286
	 H           2.0200391176        4.9508631085        0.4396524477
	 H           1.1791242679        2.7317246889        2.7374453348
	 C          -0.8301396230        2.2969299232       -0.7662148593
	 H          -1.8954226715        4.0098779128       -1.1908646476
	 H          -0.2939647437        1.4875206086       -2.5899373055
	 C          -2.5770605634        0.4751785674        0.6022998630
	 H          -1.5252714826       -1.1872300128        1.2160276943
	 H          -3.2697943486        1.3889234217        2.3200413445
	            -0.0012253504        0.0008048403        0.0003467626
	            -0.0001058948        0.0014580543       -0.0000982624
	            -0.0012770761       -0.0002024738       -0.0007513293
	            -0.0006369308       -0.0000707941        0.0013572312
	             0.0009608015        0.0009226394       -0.0007299071
	             0.0011652694        0.0005320601        0.0006198324
	             0.0007249465       -0.0004297929       -0.0012692146
	            -0.0004647539        0.0013618706       -0.0005531663
	             0.0015086334        0.0009658660       -0.0007445895
	             0.0004801266        0.0004508827       -0.0013334262
	             0.0011809396        0.0006998353        0.0007281027
	             0.0005231090       -0.0007214360        0.0021055657
	            -0.0002931432        0.0004931650        0.0013782731
	             0.0007817595       -0.0009933861        0.0007736693
	            -0.0017773608       -0.0009532821        0.0007889674
	            -0.0006285778       -0.0002992348        0.0013117943
	            -0.0012481438       -0.0005054259       -0.0005461620
	             0.0002000385       -0.0014154996       -0.0014420773
	            -0.0004285792       -0.0012375668       -0.0000658741
	             0.0002590519       -0.0004186959       -0.0014816680
	             0.0001265684       -0.0008097904        0.0017169000
	             0.0008572947       -0.0010412487        0.0004928580
	            -0.0003200152        0.0001879705        0.0015075059
	            -0.0001735222        0.0003303120       -0.0020981498
	            -0.0005955487        0.0012296760       -0.0006399906
	             0.0004063584       -0.0003385451       -0.0013736455

	Previous optimization step data not found.  Starting new optimization.

	---Fragment 1 Intrafragment Coordinates---
	 - Coordinate -           - BOHR/RAD -       - ANG/DEG -
	 R(1,2)           =         2.055191	       1.087560
	 R(1,3)           =         2.057049	       1.088543
	 R(1,4)           =         2.057335	       1.088695
	 R(1,9)           =         2.867994	       1.517677
	 R(5,6)           =         2.055283	       1.087609
	 R(5,7)           =         2.056979	       1.088507
	 R(5,8)           =         2.057067	       1.088553
	 R(5,12)          =         2.867292	       1.517306
	 R(9,10)          =         2.062876	       1.091627
	 R(9,11)          =         2.060114	       1.090165
	 R(9,15)          =         2.867663	       1.517502
	 R(12,13)         =         2.062542	       1.091450
	 R(12,14)         =         2.062588	       1.091474
	 R(12,24)         =         2.864507	       1.515832
	 R(15,16)         =         2.065617	       1.093078
	 R(15,17)         =         2.063995	       1.092219
	 R(15,18)         =         2.874729	       1.521241
	 R(18,19)         =         2.059842	       1.090021
	 R(18,20)         =         2.064740	       1.092613
	 R(18,21)         =         2.888982	       1.528783
	 R(21,22)         =         2.061394	       1.090843
	 R(21,23)         =         2.066057	       1.093310
	 R(21,24)         =         2.871122	       1.519332
	 R(24,25)         =         2.060710	       1.090481
	 R(24,26)         =         2.065296	       1.092907
	 B(1,9,10)        =         1.917212	     109.848171
	 B(1,9,11)        =         1.908503	     109.349185
	 B(1,9,15)        =         1.953721	     111.939996
	 B(2,1,3)         =         1.885913	     108.054830
	 B(2,1,4)         =         1.884552	     107.976859
	 B(2,1,9)         =         1.948749	     111.655067
	 B(3,1,4)         =         1.880286	     107.732443
	 B(3,1,9)         =         1.932038	     110.697611
	 B(4,1,9)         =         1.930018	     110.581877
	 B(5,12,13)       =         1.915666	     109.759595
	 B(5,12,14)       =         1.916624	     109.814478
	 B(5,12,24)       =         1.964857	     112.578031
	 B(6,5,7)         =         1.884738	     107.987557
	 B(6,5,8)         =         1.884818	     107.992128
	 B(6,5,12)        =         1.949643	     111.706314
	 B(7,5,8)         =         1.880143	     107.724241
	 B(7,5,12)        =         1.931188	     110.648949
	 B(8,5,12)        =         1.930968	     110.636325
	 B(9,15,16)       =         1.896771	     108.676997
	 B(9,15,17)       =         1.897071	     108.694173
	 B(9,15,18)       =         2.003422	     114.787613
	 B(10,9,11)       =         1.861449	     106.653176
	 B(10,9,15)       =         1.906896	     109.257120
	 B(11,9,15)       =         1.913771	     109.650986
	 B(12,24,21)      =         1.972225	     113.000194
	 B(12,24,25)      =         1.907548	     109.294437
	 B(12,24,26)      =         1.907805	     109.309149
	 B(13,12,14)      =         1.858483	     106.483258
	 B(13,12,24)      =         1.901646	     108.956268
	 B(14,12,24)      =         1.903439	     109.059007
	 B(15,18,19)      =         1.890299	     108.306177
	 B(15,18,20)      =         1.905786	     109.193508
	 B(15,18,21)      =         1.986312	     113.807298
	 B(16,15,17)      =         1.857585	     106.431769
	 B(16,15,18)      =         1.897814	     108.736714
	 B(17,15,18)      =         1.905712	     109.189266
	 B(18,21,22)      =         1.918677	     109.932081
	 B(18,21,23)      =         1.907560	     109.295158
	 B(18,21,24)      =         1.986234	     113.802806
	 B(19,18,20)      =         1.857502	     106.427028
	 B(19,18,21)      =         1.916396	     109.801421
	 B(20,18,21)      =         1.903157	     109.042839
	 B(21,24,25)      =         1.921197	     110.076477
	 B(21,24,26)      =         1.896309	     108.650489
	 B(22,21,23)      =         1.852317	     106.129958
	 B(22,21,24)      =         1.887056	     108.120334
	 B(23,21,24)      =         1.907167	     109.272624
	 B(25,24,26)      =         1.855014	     106.284446
	 D(1,9,15,16)     =         1.057689	      60.601130
	 D(1,9,15,17)     =        -0.957166	     -54.841568
	 D(1,9,15,18)     =        -3.096582	    -177.421055
	 D(2,1,9,10)      =         1.026070	      58.789504
	 D(2,1,9,11)      =        -1.011127	     -57.933313
	 D(2,1,9,15)      =        -3.135462	    -179.648726
	 D(3,1,9,10)      =        -1.075822	     -61.640075
	 D(3,1,9,11)      =        -3.113020	    -178.362892
	 D(3,1,9,15)      =         1.045831	      59.921695
	 D(4,1,9,10)      =         3.124864	     179.041545
	 D(4,1,9,11)      =         1.087667	      62.318728
	 D(4,1,9,15)      =        -1.036668	     -59.396685
	 D(5,12,24,21)    =        -3.109680	    -178.171542
	 D(5,12,24,25)    =         1.027850	      58.891475
	 D(5,12,24,26)    =        -0.995721	     -57.050598
	 D(6,5,12,13)     =        -1.013933	     -58.094079
	 D(6,5,12,14)     =         1.023507	      58.642640
	 D(6,5,12,24)     =        -3.135320	    -179.640582
	 D(7,5,12,13)     =        -3.114357	    -178.439530
	 D(7,5,12,14)     =        -1.076917	     -61.702811
	 D(7,5,12,24)     =         1.047441	      60.013967
	 D(8,5,12,13)     =         1.086442	      62.248559
	 D(8,5,12,14)     =         3.123882	     178.985278
	 D(8,5,12,24)     =        -1.034944	     -59.297944
	 D(9,15,18,19)    =         3.125562	     179.081486
	 D(9,15,18,20)    =         1.109643	      63.577841
	 D(9,15,18,21)    =        -1.021168	     -58.508603
	 D(10,9,15,16)    =        -3.097918	    -177.497637
	 D(10,9,15,17)    =         1.170412	      67.059665
	 D(10,9,15,18)    =        -0.969004	     -55.519822
	 D(11,9,15,16)    =        -1.063617	     -60.940756
	 D(11,9,15,17)    =        -3.078472	    -176.383454
	 D(11,9,15,18)    =         1.065298	      61.037058
	 D(12,24,21,18)   =        -3.048617	    -174.672862
	 D(12,24,21,22)   =         1.097615	      62.888700
	 D(12,24,21,23)   =        -0.911140	     -52.204493
	 D(13,12,24,21)   =         1.044166	      59.826298
	 D(13,12,24,25)   =        -1.101489	     -63.110684
	 D(13,12,24,26)   =        -3.125060	    -179.052757
	 D(14,12,24,21)   =        -0.977855	     -56.026979
	 D(14,12,24,25)   =        -3.123510	    -178.963961
	 D(14,12,24,26)   =         1.136104	      65.093965
	 D(15,18,21,22)   =        -2.479528	    -142.066468
	 D(15,18,21,23)   =        -0.453062	     -25.958556
	 D(15,18,21,24)   =         1.684198	      96.497419
	 D(16,15,18,19)   =        -1.029275	     -58.973107
	 D(16,15,18,20)   =        -3.045194	    -174.476753
	 D(16,15,18,21)   =         1.107181	      63.436803
	 D(17,15,18,19)   =         0.990811	      56.769265
	 D(17,15,18,20)   =        -1.025108	     -58.734381
	 D(17,15,18,21)   =         3.127267	     179.179175
	 D(18,21,24,25)   =        -0.910562	     -52.171375
	 D(18,21,24,26)   =         1.114108	      63.833711
	 D(19,18,21,22)   =        -0.357498	     -20.483152
	 D(19,18,21,23)   =         1.668967	      95.624760
	 D(19,18,21,24)   =        -2.476958	    -141.919265
	 D(20,18,21,22)   =         1.671396	      95.763920
	 D(20,18,21,23)   =        -2.585324	    -148.128168
	 D(20,18,21,24)   =        -0.448064	     -25.672193
	 D(22,21,24,25)   =        -3.047516	    -174.609813
	 D(22,21,24,26)   =        -1.022845	     -58.604727
	 D(23,21,24,25)   =         1.226914	      70.296994
	 D(23,21,24,26)   =        -3.031601	    -173.697920
	 R(9,24)          =         6.394560	       3.383856

	Current energy   :      -314.9813633512

	Generating empirical Hessian (Schlegel '84) for each fragment.
	Taking RFO optimization step.
	Going to follow RFO solution 1.
	Using RFO vector 1.
	Norm of target step-size    0.14124
	Projected energy change by RFO approximation:         0.0000337968

	Back-transformation to cartesian coordinates...
	Could not converge backtransformation.
	Using first guess instead.

	--- Internal Coordinate Step in ANG or DEG, aJ/ANG or AJ/DEG ---
	 ---------------------------------------------------------------------------
	   Coordinate                Previous        Force       Change         New 
	   ----------                --------       ------       ------       ------
	    1 R(1,2)          =      1.087560     0.011831     0.002549     1.090109
	    2 R(1,3)          =      1.088543     0.012069     0.002648     1.091191
	    3 R(1,4)          =      1.088695     0.012114     0.002667     1.091362
	    4 R(1,9)          =      1.517677     0.032140     0.006743     1.524420
	    5 R(5,6)          =      1.087609     0.011556     0.002523     1.090132
	    6 R(5,7)          =      1.088507     0.012297     0.003298     1.091805
	    7 R(5,8)          =      1.088553     0.012450     0.003278     1.091831
	    8 R(5,12)         =      1.517306     0.032041     0.007038     1.524344
	    9 R(9,10)         =      1.091627     0.012149     0.002685     1.094312
	   10 R(9,11)         =      1.090165     0.012608     0.002836     1.093002
	   11 R(9,15)         =      1.517502     0.032139     0.007517     1.525019
	   12 R(12,13)        =      1.091450     0.012013     0.003285     1.094735
	   13 R(12,14)        =      1.091474     0.011811     0.003090     1.094565
	   14 R(12,24)        =      1.515832     0.035240     0.007884     1.523716
	   15 R(15,16)        =      1.093078     0.011976     0.002619     1.095696
	   16 R(15,17)        =      1.092219     0.011754     0.002608     1.094828
	   17 R(15,18)        =      1.521241     0.028828     0.007479     1.528720
	   18 R(18,19)        =      1.090021     0.010558     0.001988     1.092009
	   19 R(18,20)        =      1.092613     0.011925     0.002302     1.094915
	   20 R(18,21)        =      1.528783     0.028419     0.007255     1.536039
	   21 R(21,22)        =      1.090843     0.011615     0.002526     1.093369
	   22 R(21,23)        =      1.093310     0.012254     0.002770     1.096080
	   23 R(21,24)        =      1.519332     0.030988     0.007367     1.526700
	   24 R(24,25)        =      1.090481     0.012247     0.003119     1.093599
	   25 R(24,26)        =      1.092907     0.011770     0.003169     1.096076
	   26 B(1,9,10)       =    109.848171    -0.000003    -0.050040   109.798131
	   27 B(1,9,11)       =    109.349185    -0.000004    -0.029087   109.320098
	   28 B(1,9,15)       =    111.939996    -0.000004    -0.003405   111.936591
	   29 B(2,1,3)        =    108.054830    -0.000024    -0.114918   107.939912
	   30 B(2,1,4)        =    107.976859    -0.000023    -0.093506   107.883353
	   31 B(2,1,9)        =    111.655067     0.000020     0.078246   111.733313
	   32 B(3,1,4)        =    107.732443    -0.000022    -0.090642   107.641801
	   33 B(3,1,9)        =    110.697611     0.000022     0.095493   110.793103
	   34 B(4,1,9)        =    110.581877     0.000023     0.109862   110.691740
	   35 B(5,12,13)      =    109.759595     0.000001    -0.003524   109.756070
	   36 B(5,12,14)      =    109.814478    -0.000001     0.002048   109.816527
	   37 B(5,12,24)      =    112.578031    -0.000009    -0.036604   112.541427
	   38 B(6,5,7)        =    107.987557    -0.000022    -0.091407   107.896151
	   39 B(6,5,8)        =    107.992128    -0.000022    -0.094799   107.897329
	   40 B(6,5,12)       =    111.706314     0.000014     0.010047   111.716361
	   41 B(7,5,8)        =    107.724241    -0.000023    -0.087787   107.636454
	   42 B(7,5,12)       =    110.648949     0.000024     0.128186   110.777135
	   43 B(8,5,12)       =    110.636325     0.000024     0.121978   110.758303
	   44 B(9,15,16)      =    108.676997     0.000021     0.049302   108.726299
	   45 B(9,15,17)      =    108.694173     0.000027    -0.070535   108.623638
	   46 B(9,15,18)      =    114.787613    -0.000077     0.173456   114.961069
	   47 B(10,9,11)      =    106.653176    -0.000008    -0.102109   106.551066
	   48 B(10,9,15)      =    109.257120     0.000007     0.057880   109.315000
	   49 B(11,9,15)      =    109.650986     0.000012     0.122319   109.773305
	   50 B(12,24,21)     =    113.000194     0.000004     0.010366   113.010560
	   51 B(12,24,25)     =    109.294437    -0.000003    -0.007012   109.287425
	   52 B(12,24,26)     =    109.309149    -0.000005    -0.005813   109.303336
	   53 B(13,12,14)     =    106.483258    -0.000014    -0.187846   106.295412
	   54 B(13,12,24)     =    108.956268     0.000009     0.084504   109.040772
	   55 B(14,12,24)     =    109.059007     0.000014     0.133953   109.192960
	   56 B(15,18,19)     =    108.306177     0.000030    -0.170547   108.135630
	   57 B(15,18,20)     =    109.193508     0.000018     0.157061   109.350569
	   58 B(15,18,21)     =    113.807298    -0.000074     0.212109   114.019407
	   59 B(16,15,17)     =    106.431769    -0.000023    -0.194774   106.236995
	   60 B(16,15,18)     =    108.736714     0.000031     0.081424   108.818138
	   61 B(17,15,18)     =    109.189266     0.000024    -0.067654   109.121612
	   62 B(18,21,22)     =    109.932081     0.000015    -0.034144   109.897937
	   63 B(18,21,23)     =    109.295158     0.000011     0.042201   109.337359
	   64 B(18,21,24)     =    113.802806    -0.000031     0.179985   113.982791
	   65 B(19,18,20)     =    106.427028    -0.000027    -0.275211   106.151817
	   66 B(19,18,21)     =    109.801421     0.000030    -0.093551   109.707870
	   67 B(20,18,21)     =    109.042839     0.000025     0.134208   109.177047
	   68 B(21,24,25)     =    110.076477     0.000005     0.071655   110.148132
	   69 B(21,24,26)     =    108.650489     0.000008     0.089234   108.739723
	   70 B(22,21,23)     =    106.129958    -0.000017    -0.218661   105.911298
	   71 B(22,21,24)     =    108.120334     0.000018    -0.115587   108.004747
	   72 B(23,21,24)     =    109.272624     0.000005     0.116327   109.388950
	   73 B(25,24,26)     =    106.284446    -0.000011    -0.170085   106.114360
	   74 D(1,9,15,16)    =     60.601130    -0.000000    -0.160818    60.440312
	   75 D(1,9,15,17)    =    -54.841568     0.000000     0.080969   -54.760599
	   76 D(1,9,15,18)    =   -177.421055     0.000000     0.102340  -177.318715
	   77 D(2,1,9,10)     =     58.789504    -0.000002    -0.050515    58.738989
	   78 D(2,1,9,11)     =    -57.933313     0.000002     0.118349   -57.814964
	   79 D(2,1,9,15)     =   -179.648726    -0.000001    -0.014057  -179.662782
	   80 D(3,1,9,10)     =    -61.640075    -0.000001    -0.022589   -61.662664
	   81 D(3,1,9,11)     =   -178.362892     0.000002     0.146275  -178.216617
	   82 D(3,1,9,15)     =     59.921695    -0.000000     0.013870    59.935564
	   83 D(4,1,9,10)     =    179.041545    -0.000001    -0.041953   178.999592
	   84 D(4,1,9,11)     =     62.318728     0.000002     0.126911    62.445639
	   85 D(4,1,9,15)     =    -59.396685    -0.000000    -0.005494   -59.402179
	   86 D(5,12,24,21)   =   -178.171542    -0.000000    -0.151000  -178.322543
	   87 D(5,12,24,25)   =     58.891475    -0.000002    -0.245370    58.646106
	   88 D(5,12,24,26)   =    -57.050598     0.000002    -0.034481   -57.085079
	   89 D(6,5,12,13)    =    -58.094079     0.000002     0.061757   -58.032321
	   90 D(6,5,12,14)    =     58.642640    -0.000002    -0.166781    58.475859
	   91 D(6,5,12,24)    =   -179.640582     0.000000    -0.018883  -179.659465
	   92 D(7,5,12,13)    =   -178.439530     0.000002     0.083457  -178.356073
	   93 D(7,5,12,14)    =    -61.702811    -0.000002    -0.145081   -61.847892
	   94 D(7,5,12,24)    =     60.013967     0.000001     0.002817    60.016784
	   95 D(8,5,12,13)    =     62.248559     0.000001     0.031500    62.280060
	   96 D(8,5,12,14)    =    178.985278    -0.000003    -0.197038   178.788240
	   97 D(8,5,12,24)    =    -59.297944    -0.000000    -0.049140   -59.347084
	   98 D(9,15,18,19)   =    179.081486    -0.000001    -1.445984   177.635503
	   99 D(9,15,18,20)   =     63.577841     0.000000    -1.110658    62.467183
	  100 D(9,15,18,21)   =    -58.508603     0.000002    -1.548865   -60.057469
	  101 D(10,9,15,16)   =   -177.497637    -0.000001    -0.186341  -177.683977
	  102 D(10,9,15,17)   =     67.059665    -0.000000     0.055446    67.115111
	  103 D(10,9,15,18)   =    -55.519822     0.000000     0.076817   -55.443005
	  104 D(11,9,15,16)   =    -60.940756    -0.000000    -0.206401   -61.147157
	  105 D(11,9,15,17)   =   -176.383454     0.000000     0.035386  -176.348069
	  106 D(11,9,15,18)   =     61.037058     0.000000     0.056757    61.093815
	  107 D(12,24,21,18)  =   -174.672862     0.000000    -1.092584  -175.765446
	  108 D(12,24,21,22)  =     62.888700    -0.000002    -1.084419    61.804281
	  109 D(12,24,21,23)  =    -52.204493    -0.000001    -0.824576   -53.029069
	  110 D(13,12,24,21)  =     59.826298    -0.000001    -0.181745    59.644554
	  111 D(13,12,24,25)  =    -63.110684    -0.000003    -0.276114   -63.386798
	  112 D(13,12,24,26)  =   -179.052757     0.000001    -0.065226  -179.117983
	  113 D(14,12,24,21)  =    -56.026979     0.000000    -0.077976   -56.104955
	  114 D(14,12,24,25)  =   -178.963961    -0.000001    -0.172345  -179.136307
	  115 D(14,12,24,26)  =     65.093965     0.000002     0.038543    65.132508
	  116 D(15,18,21,22)  =   -142.066468    -0.000004    -1.624656  -143.691125
	  117 D(15,18,21,23)  =    -25.958556    -0.000005    -1.883276   -27.841832
	  118 D(15,18,21,24)  =     96.497419    -0.000007    -1.574687    94.922731
	  119 D(16,15,18,19)  =    -58.973107    -0.000002    -1.199954   -60.173061
	  120 D(16,15,18,20)  =   -174.476753    -0.000000    -0.864629  -175.341382
	  121 D(16,15,18,21)  =     63.436803     0.000001    -1.302836    62.133967
	  122 D(17,15,18,19)  =     56.769265    -0.000001    -1.423888    55.345376
	  123 D(17,15,18,20)  =    -58.734381     0.000000    -1.088563   -59.822944
	  124 D(17,15,18,21)  =    179.179175     0.000001    -1.526770   177.652405
	  125 D(18,21,24,25)  =    -52.171375     0.000001    -1.041539   -53.212914
	  126 D(18,21,24,26)  =     63.833711    -0.000000    -1.154986    62.678725
	  127 D(19,18,21,22)  =    -20.483152    -0.000002    -1.767755   -22.250907
	  128 D(19,18,21,23)  =     95.624760    -0.000003    -2.026375    93.598385
	  129 D(19,18,21,24)  =   -141.919265    -0.000004    -1.717786  -143.637051
	  130 D(20,18,21,22)  =     95.763920    -0.000002    -2.074623    93.689297
	  131 D(20,18,21,23)  =   -148.128168    -0.000003    -2.333243  -150.461411
	  132 D(20,18,21,24)  =    -25.672193    -0.000005    -2.024655   -27.696847
	  133 D(22,21,24,25)  =   -174.609813    -0.000002    -1.033374  -175.643188
	  134 D(22,21,24,26)  =    -58.604727    -0.000003    -1.146821   -59.751549
	  135 D(23,21,24,25)  =     70.296994     0.000000    -0.773531    69.523463
	  136 D(23,21,24,26)  =   -173.697920    -0.000001    -0.886978  -174.584898
	  137 R(9,24)         =      3.383856     0.009067     0.012361     3.396216
	 ---------------------------------------------------------------------------

  ==> Convergence Check <==

  Measures of convergence in internal coordinates in au.
  Criteria marked as inactive (o), active & met (*), and active & unmet ( ).
  --------------------------------------------------------------------------------------------- ~
   Step     Total Energy     Delta E     MAX Force     RMS Force      MAX Disp      RMS Disp    ~
  --------------------------------------------------------------------------------------------- ~
    Convergence Criteria             o    2.00e-06 *    1.00e-06 *    6.00e-06 *    4.00e-06 *  ~
  --------------------------------------------------------------------------------------------- ~
      1    -314.98136335   -3.15e+02 o    4.28e-03      1.04e-03      4.07e-02      1.21e-02    ~
  ---------------------------------------------------------------------------------------------

	Writing optimization data to binary file.
	Structure for next step:
	Cartesian Geometry (in Angstrom)
	    C     3.1492680309  -1.5346754811  -0.1444735665
	    H     3.0256104860  -2.6076522123   0.0030641312
	    H     3.9820199050  -1.2035680795   0.4780939187
	    H     3.4291839525  -1.3697095268  -1.1863486169
	    C    -3.4982169361  -1.1235725608   0.2098986044
	    H    -4.3529275563  -1.4108049643  -0.4027629792
	    H    -3.8798265310  -0.6638195399   1.1237029664
	    H    -2.9680535261  -2.0346466079   0.4944418687
	    C     1.8777990013  -0.7673388940   0.1996459563
	    H     1.6008272130  -0.9570212802   1.2411953443
	    H     1.0536067548  -1.1392484770  -0.4143921295
	    C    -2.5700567779  -0.1670348655  -0.5298162671
	    H    -2.2207250533  -0.6331177403  -1.4567353267
	    H    -3.1219510076   0.7304806574  -0.8263811188
	    C     2.0430739621   0.7337091905  -0.0130094642
	    H     2.2793379776   0.9157157066  -1.0673353029
	    H     2.9124589911   1.0742000584   0.5587274119
	    C     0.8281792139   1.5775721822   0.3728804522
	    H     1.0809347735   2.6284487055   0.2171319308
	    H     0.6349525263   1.4664141952   1.4448627842
	    C    -0.4478893852   1.2304194750  -0.4084955974
	    H    -1.0220101157   2.1396414082  -0.6063736471
	    H    -0.1739666403   0.8282853114  -1.3906593390
	    C    -1.3636810662   0.2404086906   0.3070571215
	    H    -0.8024963215  -0.6541477010   0.5913102979
	    H    -1.7087270889   0.6934514100   1.2435815357
			--------------------------
			 OPTKING Finished Execution 
			--------------------------

    Structure for next step:
    Molecular point group: c1
    Full point group: C1

    Geometry (in Angstrom), charge = 0, multiplicity = 1:

    C            3.149548462577    -1.535197308252    -0.144208312606
    H            3.025890917687    -2.608174039495     0.003329385094
    H            3.982300336709    -1.204089906684     0.478359172592
    H            3.429464384211    -1.370231353967    -1.186083363006
    C           -3.497936504476    -1.124094387978     0.210163858274
    H           -4.352647124638    -1.411326791442    -0.402497725344
    H           -3.879546099356    -0.664341367068     1.123968220243
    H           -2.967773094390    -2.035168435042     0.494707122566
    C            1.878079432970    -0.767860721185     0.199911210174
    H            1.601107644643    -0.957543107341     1.241460598171
    H            1.053887186468    -1.139770304141    -0.414126875622
    C           -2.569776346187    -0.167556692683    -0.529551013213
    H           -2.220444621643    -0.633639567476    -1.456470072807
    H           -3.121670575896     0.729958830211    -0.826115864898
    C            2.043354393793     0.733187363299    -0.012744210299
    H            2.279618409238     0.915193879394    -1.067070049059
    H            2.912739422819     1.073678231253     0.558992665757
    C            0.828459645534     1.577050355023     0.373145706112
    H            1.081215205181     2.627926878346     0.217397184672
    H            0.635232957995     1.465892368001     1.445128038108
    C           -0.447608953567     1.229897647797    -0.408230343465
    H           -1.021729684074     2.139119581026    -0.606108393225
    H           -0.173686208636     0.827763484226    -1.390394085132
    C           -1.363400634524     0.239886863381     0.307322375422
    H           -0.802215889833    -0.654669528143     0.591575551739
    H           -1.708446657182     0.692929582794     1.243846789568

gradient() will perform analytic gradient computation.

*** tstart() called on wr33
*** at Tue Sep 20 16:51:48 2016


         ---------------------------------------------------------
                                   SCF
            by Justin Turney, Rob Parrish, and Andy Simmonett
                              RHF Reference
                       12 Threads,  30000 MiB Core
         ---------------------------------------------------------

  ==> Geometry <==

    Molecular point group: c1
    Full point group: C1

    Geometry (in Angstrom), charge = 0, multiplicity = 1:

       Center              X                  Y                   Z               Mass       
    ------------   -----------------  -----------------  -----------------  -----------------
           C          3.149548462577    -1.535197308252    -0.144208312606    12.000000000000
           H          3.025890917687    -2.608174039495     0.003329385094     1.007825032070
           H          3.982300336709    -1.204089906684     0.478359172592     1.007825032070
           H          3.429464384211    -1.370231353967    -1.186083363006     1.007825032070
           C         -3.497936504476    -1.124094387978     0.210163858274    12.000000000000
           H         -4.352647124638    -1.411326791442    -0.402497725344     1.007825032070
           H         -3.879546099356    -0.664341367068     1.123968220243     1.007825032070
           H         -2.967773094390    -2.035168435042     0.494707122566     1.007825032070
           C          1.878079432970    -0.767860721185     0.199911210174    12.000000000000
           H          1.601107644643    -0.957543107341     1.241460598171     1.007825032070
           H          1.053887186468    -1.139770304141    -0.414126875622     1.007825032070
           C         -2.569776346187    -0.167556692683    -0.529551013213    12.000000000000
           H         -2.220444621643    -0.633639567476    -1.456470072807     1.007825032070
           H         -3.121670575896     0.729958830211    -0.826115864898     1.007825032070
           C          2.043354393793     0.733187363299    -0.012744210299    12.000000000000
           H          2.279618409238     0.915193879394    -1.067070049059     1.007825032070
           H          2.912739422819     1.073678231253     0.558992665757     1.007825032070
           C          0.828459645534     1.577050355023     0.373145706112    12.000000000000
           H          1.081215205181     2.627926878346     0.217397184672     1.007825032070
           H          0.635232957995     1.465892368001     1.445128038108     1.007825032070
           C         -0.447608953567     1.229897647797    -0.408230343465    12.000000000000
           H         -1.021729684074     2.139119581026    -0.606108393225     1.007825032070
           H         -0.173686208636     0.827763484226    -1.390394085132     1.007825032070
           C         -1.363400634524     0.239886863381     0.307322375422    12.000000000000
           H         -0.802215889833    -0.654669528143     0.591575551739     1.007825032070
           H         -1.708446657182     0.692929582794     1.243846789568     1.007825032070

  Running in c1 symmetry.

  Rotational constants: A =      0.10009  B =      0.02744  C =      0.02301 [cm^-1]
  Rotational constants: A =   3000.50798  B =    822.58297  C =    689.77884 [MHz]
  Nuclear repulsion =  391.810949076201439

  Charge       = 0
  Multiplicity = 1
  Electrons    = 66
  Nalpha       = 33
  Nbeta        = 33

  ==> Algorithm <==

  SCF Algorithm Type is DF.
  DIIS enabled.
  MOM disabled.
  Fractional occupation disabled.
  Guess Type is READ.
  Energy threshold   = 1.00e-10
  Density threshold  = 1.00e-10
  Integral threshold = 0.00e+00

  ==> Primary Basis <==

  Basis Set: AUG-CC-PVTZ
    Number of shells: 274
    Number of basis function: 782
    Number of Cartesian functions: 890
    Spherical Harmonics?: true
    Max angular momentum: 3

  ==> Pre-Iterations <==

   -------------------------------------------------------
    Irrep   Nso     Nmo     Nalpha   Nbeta   Ndocc  Nsocc
   -------------------------------------------------------
     A        782     782       0       0       0       0
   -------------------------------------------------------
    Total     782     782      33      33      33       0
   -------------------------------------------------------

  ==> Integral Setup <==

  ==> DFJK: Density-Fitted J/K Matrices <==

    J tasked:                  Yes
    K tasked:                  Yes
    wK tasked:                  No
    OpenMP threads:             12
    Integrals threads:          12
    Memory (MB):             21457
    Algorithm:                Core
    Integral Cache:           NONE
    Schwarz Cutoff:          1E-12
    Fitting Condition:       1E-12

   => Auxiliary Basis Set <=

  Basis Set: 
    Number of shells: 492
    Number of basis function: 1660
    Number of Cartesian functions: 2038
    Spherical Harmonics?: true
    Max angular momentum: 4

  Minimum eigenvalue in the overlap matrix is 1.9486736336E-06.
  Using Symmetric Orthogonalization.
  SCF Guess: Reading in previously saved MOs, projecting if necessary.

  Using orbitals from previous SCF, no projection.
  Recomputing DOCC and SOCC from number of alpha and beta electrons from previous calculation.
              A 
    DOCC [    33 ]

  ==> Iterations <==

                           Total Energy        Delta E     RMS |[F,P]|

   @DF-RHF iter   0:  -313.47720374154682   -3.13477e+02   1.24647e-04 
   @DF-RHF iter   1:  -313.54013067515717   -6.29269e-02   3.05176e-05 
   @DF-RHF iter   2:  -313.54063702145237   -5.06346e-04   1.34185e-05 DIIS
   @DF-RHF iter   3:  -313.54071872717833   -8.17057e-05   5.08924e-06 DIIS
   @DF-RHF iter   4:  -313.54073769685880   -1.89697e-05   6.39900e-07 DIIS
   @DF-RHF iter   5:  -313.54073797090444   -2.74046e-07   2.22932e-07 DIIS
   @DF-RHF iter   6:  -313.54073799615747   -2.52530e-08   4.14915e-08 DIIS
   @DF-RHF iter   7:  -313.54073799733118   -1.17370e-09   1.02111e-08 DIIS
   @DF-RHF iter   8:  -313.54073799739041   -5.92308e-11   3.26772e-09 DIIS
   @DF-RHF iter   9:  -313.54073799739632   -5.91172e-12   7.66348e-10 DIIS
   @DF-RHF iter  10:  -313.54073799739587    4.54747e-13   1.91950e-10 DIIS
   @DF-RHF iter  11:  -313.54073799739734   -1.47793e-12   4.80609e-11 DIIS

  ==> Post-Iterations <==

    Orbital Energies (a.u.)
    -----------------------

    Doubly Occupied:                                                      

       1A    -11.212871     2A    -11.212655     3A    -11.211428  
       4A    -11.210918     5A    -11.210421     6A    -11.209068  
       7A    -11.207547     8A    -11.207490     9A     -1.093083  
      10A     -1.059664    11A     -1.010420    12A     -0.949351  
      13A     -0.879369    14A     -0.823632    15A     -0.785774  
      16A     -0.770158    17A     -0.650606    18A     -0.628588  
      19A     -0.603928    20A     -0.591422    21A     -0.573745  
      22A     -0.561163    23A     -0.547852    24A     -0.526388  
      25A     -0.519296    26A     -0.497721    27A     -0.485221  
      28A     -0.478364    29A     -0.464185    30A     -0.462082  
      31A     -0.454029    32A     -0.438050    33A     -0.431245  

    Virtual:                                                              

      34A      0.029222    35A      0.032843    36A      0.033473  
      37A      0.035335    38A      0.046282    39A      0.047764  
      40A      0.049993    41A      0.053549    42A      0.056678  
      43A      0.066263    44A      0.067460    45A      0.069487  
      46A      0.073552    47A      0.080512    48A      0.084309  
      49A      0.091542    50A      0.096436    51A      0.100103  
      52A      0.113450    53A      0.116269    54A      0.117906  
      55A      0.122270    56A      0.127323    57A      0.128308  
      58A      0.136737    59A      0.138462    60A      0.140734  
      61A      0.143455    62A      0.147401    63A      0.154387  
      64A      0.156324    65A      0.161104    66A      0.163248  
      67A      0.164744    68A      0.167355    69A      0.168389  
      70A      0.173025    71A      0.181144    72A      0.182813  
      73A      0.191241    74A      0.195344    75A      0.201039  
      76A      0.206065    77A      0.216088    78A      0.224496  
      79A      0.227200    80A      0.236821    81A      0.240485  
      82A      0.243879    83A      0.249617    84A      0.259526  
      85A      0.264287    86A      0.267414    87A      0.271125  
      88A      0.276246    89A      0.276971    90A      0.284313  
      91A      0.296368    92A      0.299867    93A      0.306677  
      94A      0.310366    95A      0.313912    96A      0.318299  
      97A      0.323498    98A      0.327112    99A      0.335322  
     100A      0.338023   101A      0.341937   102A      0.346458  
     103A      0.350247   104A      0.354009   105A      0.354725  
     106A      0.359023   107A      0.363160   108A      0.367485  
     109A      0.368202   110A      0.375009   111A      0.375790  
     112A      0.379429   113A      0.383050   114A      0.385670  
     115A      0.391712   116A      0.394464   117A      0.396365  
     118A      0.400278   119A      0.404200   120A      0.408942  
     121A      0.409807   122A      0.413924   123A      0.421803  
     124A      0.425888   125A      0.431480   126A      0.433178  
     127A      0.437815   128A      0.440988   129A      0.448738  
     130A      0.452588   131A      0.453834   132A      0.457022  
     133A      0.460560   134A      0.463350   135A      0.464653  
     136A      0.467974   137A      0.472820   138A      0.476208  
     139A      0.477325   140A      0.478504   141A      0.484737  
     142A      0.489475   143A      0.493468   144A      0.500746  
     145A      0.504485   146A      0.506081   147A      0.512802  
     148A      0.517040   149A      0.519734   150A      0.523924  
     151A      0.524958   152A      0.527512   153A      0.535814  
     154A      0.540855   155A      0.543721   156A      0.549082  
     157A      0.553565   158A      0.556043   159A      0.557895  
     160A      0.566814   161A      0.571113   162A      0.576290  
     163A      0.578963   164A      0.584558   165A      0.588700  
     166A      0.592411   167A      0.593380   168A      0.603753  
     169A      0.607042   170A      0.614738   171A      0.618619  
     172A      0.622964   173A      0.623733   174A      0.631651  
     175A      0.639730   176A      0.640456   177A      0.648503  
     178A      0.651291   179A      0.654879   180A      0.656102  
     181A      0.663863   182A      0.675367   183A      0.681808  
     184A      0.683199   185A      0.689329   186A      0.697829  
     187A      0.703340   188A      0.707639   189A      0.711686  
     190A      0.717151   191A      0.723869   192A      0.728358  
     193A      0.735152   194A      0.738888   195A      0.752297  
     196A      0.755817   197A      0.760737   198A      0.772643  
     199A      0.784288   200A      0.795586   201A      0.801051  
     202A      0.809451   203A      0.816498   204A      0.824868  
     205A      0.827606   206A      0.837200   207A      0.839476  
     208A      0.846688   209A      0.852314   210A      0.862430  
     211A      0.868411   212A      0.870771   213A      0.878218  
     214A      0.880191   215A      0.882661   216A      0.892340  
     217A      0.893659   218A      0.898129   219A      0.906123  
     220A      0.907824   221A      0.916786   222A      0.921279  
     223A      0.923713   224A      0.927954   225A      0.933071  
     226A      0.933612   227A      0.943888   228A      0.949365  
     229A      0.952315   230A      0.959807   231A      0.961013  
     232A      0.965637   233A      0.967574   234A      0.972373  
     235A      0.977412   236A      0.984781   237A      0.986149  
     238A      0.992183   239A      0.995593   240A      1.004044  
     241A      1.007188   242A      1.017184   243A      1.020151  
     244A      1.020638   245A      1.033615   246A      1.036031  
     247A      1.038880   248A      1.040648   249A      1.046203  
     250A      1.050071   251A      1.059987   252A      1.063018  
     253A      1.071961   254A      1.073753   255A      1.082368  
     256A      1.085648   257A      1.096145   258A      1.107188  
     259A      1.109276   260A      1.113892   261A      1.119872  
     262A      1.120608   263A      1.124561   264A      1.131860  
     265A      1.139597   266A      1.147363   267A      1.150299  
     268A      1.153867   269A      1.161511   270A      1.165429  
     271A      1.170134   272A      1.171686   273A      1.172630  
[...]
	   Coordinate                Previous        Force       Change         New 
	   ----------                --------       ------       ------       ------
	    1 R(1,2)          =      1.089712    -0.000000    -0.000000     1.089712
	    2 R(1,3)          =      1.090696    -0.000000    -0.000000     1.090696
	    3 R(1,4)          =      1.090847    -0.000001    -0.000000     1.090847
	    4 R(1,9)          =      1.524128     0.000000     0.000000     1.524128
	    5 R(5,6)          =      1.089727     0.000002     0.000000     1.089727
	    6 R(5,7)          =      1.090692     0.000002     0.000000     1.090693
	    7 R(5,8)          =      1.090739     0.000002     0.000000     1.090739
	    8 R(5,12)         =      1.523750     0.000001     0.000000     1.523750
	    9 R(9,10)         =      1.093692     0.000001     0.000000     1.093692
	   10 R(9,11)         =      1.092328     0.000000     0.000000     1.092328
	   11 R(9,15)         =      1.524100     0.000001     0.000000     1.524100
	   12 R(12,13)        =      1.093478     0.000002     0.000000     1.093478
	   13 R(12,14)        =      1.093448     0.000002     0.000000     1.093449
	   14 R(12,24)        =      1.522995    -0.000000    -0.000000     1.522995
	   15 R(15,16)        =      1.095109     0.000001     0.000000     1.095109
	   16 R(15,17)        =      1.094337     0.000000     0.000000     1.094338
	   17 R(15,18)        =      1.528158     0.000001     0.000000     1.528158
	   18 R(18,19)        =      1.092073     0.000000     0.000000     1.092073
	   19 R(18,20)        =      1.094662     0.000002     0.000000     1.094662
	   20 R(18,21)        =      1.535008    -0.000001    -0.000000     1.535008
	   21 R(21,22)        =      1.093065     0.000001     0.000000     1.093065
	   22 R(21,23)        =      1.095446     0.000000     0.000000     1.095446
	   23 R(21,24)        =      1.526001    -0.000001    -0.000000     1.526001
	   24 R(24,25)        =      1.092631     0.000002     0.000000     1.092632
	   25 R(24,26)        =      1.094906     0.000002     0.000000     1.094906
	   26 B(1,9,10)       =    109.827563     0.000000     0.000001   109.827564
	   27 B(1,9,11)       =    109.334554    -0.000000    -0.000046   109.334507
	   28 B(1,9,15)       =    111.821303    -0.000000    -0.000013   111.821291
	   29 B(2,1,3)        =    107.971100     0.000000     0.000001   107.971101
	   30 B(2,1,4)        =    107.914857    -0.000000    -0.000002   107.914855
	   31 B(2,1,9)        =    111.694537    -0.000000    -0.000006   111.694532
	   32 B(3,1,4)        =    107.687123     0.000000     0.000004   107.687128
	   33 B(3,1,9)        =    110.754328    -0.000000    -0.000005   110.754323
	   34 B(4,1,9)        =    110.667270     0.000000     0.000007   110.667277
	   35 B(5,12,13)      =    109.743120     0.000000     0.000023   109.743143
	   36 B(5,12,14)      =    109.799773     0.000000     0.000008   109.799781
	   37 B(5,12,24)      =    112.459757    -0.000000    -0.000018   112.459739
	   38 B(6,5,7)        =    107.918394    -0.000000    -0.000009   107.918385
	   39 B(6,5,8)        =    107.919782     0.000000     0.000005   107.919787
	   40 B(6,5,12)       =    111.708736    -0.000000    -0.000023   111.708713
	   41 B(7,5,8)        =    107.688669    -0.000000    -0.000006   107.688663
	   42 B(7,5,12)       =    110.730749     0.000000     0.000014   110.730764
	   43 B(8,5,12)       =    110.720706     0.000000     0.000019   110.720725
	   44 B(9,15,16)      =    108.687898    -0.000000    -0.000003   108.687895
	   45 B(9,15,17)      =    108.630323    -0.000000    -0.000002   108.630321
	   46 B(9,15,18)      =    115.029307     0.000000     0.000025   115.029333
	   47 B(10,9,11)      =    106.647441     0.000000     0.000014   106.647454
	   48 B(10,9,15)      =    109.336879     0.000000     0.000032   109.336912
	   49 B(11,9,15)      =    109.736738     0.000000     0.000013   109.736751
	   50 B(12,24,21)     =    112.888611     0.000000     0.000034   112.888645
	   51 B(12,24,25)     =    109.238697    -0.000000     0.000003   109.238700
	   52 B(12,24,26)     =    109.269629    -0.000000    -0.000015   109.269614
	   53 B(13,12,14)     =    106.409223    -0.000000    -0.000024   106.409199
	   54 B(13,12,24)     =    109.060988     0.000000     0.000001   109.060988
	   55 B(14,12,24)     =    109.181641     0.000000     0.000010   109.181651
	   56 B(15,18,19)     =    108.029575    -0.000000    -0.000027   108.029547
	   57 B(15,18,20)     =    109.387693     0.000000     0.000018   109.387711
	   58 B(15,18,21)     =    114.095163     0.000000     0.000017   114.095180
	   59 B(16,15,17)     =    106.316104    -0.000000    -0.000019   106.316085
	   60 B(16,15,18)     =    108.778513    -0.000000    -0.000008   108.778505
	   61 B(17,15,18)     =    109.048268    -0.000000     0.000002   109.048270
	   62 B(18,21,22)     =    109.786428     0.000000     0.000004   109.786432
	   63 B(18,21,23)     =    109.314354     0.000000     0.000009   109.314363
	   64 B(18,21,24)     =    114.048882    -0.000000    -0.000053   114.048829
	   65 B(19,18,20)     =    106.253975     0.000000    -0.000002   106.253973
	   66 B(19,18,21)     =    109.621206    -0.000000    -0.000016   109.621190
	   67 B(20,18,21)     =    109.157276    -0.000000     0.000009   109.157285
	   68 B(21,24,25)     =    110.231527    -0.000000    -0.000017   110.231510
	   69 B(21,24,26)     =    108.744936    -0.000000    -0.000009   108.744927
	   70 B(22,21,23)     =    106.048155    -0.000000     0.000001   106.048156
	   71 B(22,21,24)     =    107.911502     0.000000     0.000058   107.911560
	   72 B(23,21,24)     =    109.419568     0.000000    -0.000015   109.419553
	   73 B(25,24,26)     =    106.245481     0.000000     0.000002   106.245483
	   74 D(1,9,15,16)    =     61.009756    -0.000000    -0.000129    61.009626
	   75 D(1,9,15,17)    =    -54.267815    -0.000000    -0.000105   -54.267920
	   76 D(1,9,15,18)    =   -176.782917    -0.000000    -0.000124  -176.783041
	   77 D(2,1,9,10)     =     58.882499    -0.000000    -0.000011    58.882488
	   78 D(2,1,9,11)     =    -57.813056     0.000000    -0.000001   -57.813057
	   79 D(2,1,9,15)     =   -179.548340     0.000000     0.000022  -179.548317
	   80 D(3,1,9,10)     =    -61.506112    -0.000000    -0.000005   -61.506117
	   81 D(3,1,9,11)     =   -178.201666     0.000000     0.000005  -178.201661
	   82 D(3,1,9,15)     =     60.063050     0.000000     0.000028    60.063078
	   83 D(4,1,9,10)     =    179.140409    -0.000000    -0.000012   179.140398
	   84 D(4,1,9,11)     =     62.444855     0.000000    -0.000002    62.444853
	   85 D(4,1,9,15)     =    -59.290429     0.000000     0.000021   -59.290407
	   86 D(5,12,24,21)   =   -178.522937     0.000000     0.000330  -178.522607
	   87 D(5,12,24,25)   =     58.458396     0.000000     0.000326    58.458723
	   88 D(5,12,24,26)   =    -57.383800     0.000000     0.000330   -57.383470
	   89 D(6,5,12,13)    =    -58.183038    -0.000000    -0.000099   -58.183138
	   90 D(6,5,12,14)    =     58.445750    -0.000000    -0.000111    58.445639
	   91 D(6,5,12,24)    =   -179.771577    -0.000000    -0.000104  -179.771681
	   92 D(7,5,12,13)    =   -178.498213     0.000000    -0.000082  -178.498295
	   93 D(7,5,12,14)    =    -61.869425     0.000000    -0.000093   -61.869518
	   94 D(7,5,12,24)    =     59.913248     0.000000    -0.000087    59.913161
	   95 D(8,5,12,13)    =     62.127043    -0.000000    -0.000096    62.126947
	   96 D(8,5,12,14)    =    178.755831    -0.000000    -0.000107   178.755724
	   97 D(8,5,12,24)    =    -59.461496    -0.000000    -0.000101   -59.461596
	   98 D(9,15,18,19)   =    178.463935     0.000000     0.000109   178.464045
	   99 D(9,15,18,20)   =     63.212681     0.000000     0.000117    63.212798
	  100 D(9,15,18,21)   =    -59.367430     0.000000     0.000080   -59.367350
	  101 D(10,9,15,16)   =   -177.138571    -0.000000    -0.000114  -177.138685
	  102 D(10,9,15,17)   =     67.583858    -0.000000    -0.000090    67.583769
	  103 D(10,9,15,18)   =    -54.931244    -0.000000    -0.000109   -54.931353
	  104 D(11,9,15,16)   =    -60.493744     0.000000    -0.000071   -60.493815
	  105 D(11,9,15,17)   =   -175.771314     0.000000    -0.000047  -175.771361
	  106 D(11,9,15,18)   =     61.713584     0.000000    -0.000066    61.713517
	  107 D(12,24,21,18)  =   -176.453734    -0.000000    -0.000236  -176.453969
	  108 D(12,24,21,22)  =     61.283188    -0.000000    -0.000248    61.282939
	  109 D(12,24,21,23)  =    -53.677532    -0.000000    -0.000273   -53.677805
	  110 D(13,12,24,21)  =     59.500781     0.000000     0.000313    59.501094
	  111 D(13,12,24,25)  =    -63.517886     0.000000     0.000309   -63.517577
	  112 D(13,12,24,26)  =   -179.360082     0.000000     0.000313  -179.359769
	  113 D(14,12,24,21)  =    -56.389569     0.000000     0.000335   -56.389234
	  114 D(14,12,24,25)  =   -179.408236     0.000000     0.000331  -179.407905
	  115 D(14,12,24,26)  =     64.749567     0.000000     0.000335    64.749903
	  116 D(15,18,21,22)  =   -143.167136     0.000000     0.000128  -143.167009
	  117 D(15,18,21,23)  =    -27.229225     0.000000     0.000136   -27.229089
	  118 D(15,18,21,24)  =     95.604353    -0.000000     0.000086    95.604439
	  119 D(16,15,18,19)  =    -59.377568     0.000000     0.000117   -59.377451
	  120 D(16,15,18,20)  =   -174.628823     0.000000     0.000125  -174.628698
	  121 D(16,15,18,21)  =     62.791067     0.000000     0.000088    62.791155
	  122 D(17,15,18,19)  =     56.173512    -0.000000     0.000092    56.173604
	  123 D(17,15,18,20)  =    -59.077743     0.000000     0.000099   -59.077643
	  124 D(17,15,18,21)  =    178.342147    -0.000000     0.000063   178.342209
	  125 D(18,21,24,25)  =    -53.988982    -0.000000    -0.000220   -53.989203
	  126 D(18,21,24,26)  =     62.109719    -0.000000    -0.000232    62.109487
	  127 D(19,18,21,22)  =    -21.876100     0.000000     0.000092   -21.876007
	  128 D(19,18,21,23)  =     94.061812     0.000000     0.000101    94.061912
	  129 D(19,18,21,24)  =   -143.104610    -0.000000     0.000051  -143.104559
	  130 D(20,18,21,22)  =     94.126983    -0.000000     0.000086    94.127068
	  131 D(20,18,21,23)  =   -149.935106     0.000000     0.000094  -149.935012
	  132 D(20,18,21,24)  =    -27.101528    -0.000000     0.000044   -27.101484
	  133 D(22,21,24,25)  =   -176.252061     0.000000    -0.000233  -176.252294
	  134 D(22,21,24,26)  =    -60.153359     0.000000    -0.000245   -60.153604
	  135 D(23,21,24,25)  =     68.787219    -0.000000    -0.000257    68.786962
	  136 D(23,21,24,26)  =   -175.114079    -0.000000    -0.000269  -175.114348
	  137 R(9,24)         =      3.406037     0.000000     0.000001     3.406038
	 ---------------------------------------------------------------------------

  ==> Convergence Check <==

  Measures of convergence in internal coordinates in au.
  Criteria marked as inactive (o), active & met (*), and active & unmet ( ).
  ---------------------------------------------------------------------------------------------
   Step     Total Energy     Delta E     MAX Force     RMS Force      MAX Disp      RMS Disp   
  ---------------------------------------------------------------------------------------------
    Convergence Criteria             o    2.00e-06 *    1.00e-06 *    6.00e-06 *    4.00e-06 *
  ---------------------------------------------------------------------------------------------
     33    -314.98162987    4.92e-09 o    2.78e-07 *    6.89e-08 *    5.85e-06 *    2.05e-06 *  ~
  ---------------------------------------------------------------------------------------------


  **** Optimization is complete! (in 33 steps) ****

  ==> Optimization Summary <==

  Measures of convergence in internal coordinates in au.
  --------------------------------------------------------------------------------------------------------------- ~
   Step         Total Energy             Delta E       MAX Force       RMS Force        MAX Disp        RMS Disp  ~
  --------------------------------------------------------------------------------------------------------------- ~
      1    -314.981363351240   -314.981363351240      0.00427741      0.00103508      0.04072278      0.01212469  ~
      2    -314.981599358723     -0.000236007483      0.00093370      0.00024921      0.03816158      0.01356833  ~
      3    -314.981587783200      0.000011575523      0.00067531      0.00017078      0.02537044      0.00823336  ~
      4    -314.981629440025     -0.000041656825      0.00010595      0.00002223      0.00218030      0.00082491  ~
      5    -314.981629825832     -0.000000385807      0.00002650      0.00000590      0.00105533      0.00035966  ~
      6    -314.981629865873     -0.000000040042      0.00000720      0.00000182      0.00031645      0.00008927  ~
      7    -314.981629871286     -0.000000005413      0.00000586      0.00000084      0.00013711      0.00003753  ~
      8    -314.981629870505      0.000000000782      0.00000195      0.00000037      0.00006202      0.00001677  ~
      9    -314.981629873739     -0.000000003235      0.00000209      0.00000037      0.00005003      0.00001259  ~
     10    -314.981629866675      0.000000007064      0.00000088      0.00000022      0.00001353      0.00000472  ~
     11    -314.981629865582      0.000000001093      0.00000070      0.00000014      0.00002397      0.00000668  ~
     12    -314.981629872312     -0.000000006731      0.00000123      0.00000029      0.00002145      0.00000563  ~
     13    -314.981629868066      0.000000004246      0.00000277      0.00000071      0.00003556      0.00001141  ~
     14    -314.981629872731     -0.000000004665      0.00000089      0.00000021      0.00000978      0.00000371  ~
     15    -314.981629869934      0.000000002797      0.00000227      0.00000061      0.00002508      0.00000957  ~
     16    -314.981629870250     -0.000000000316      0.00000297      0.00000072      0.00003387      0.00001236  ~
     17    -314.981629865680      0.000000004570      0.00000043      0.00000009      0.00001166      0.00000417  ~
     18    -314.981629869584     -0.000000003904      0.00000217      0.00000045      0.00001555      0.00000567  ~
     19    -314.981629870276     -0.000000000693      0.00000158      0.00000040      0.00002408      0.00000845  ~
     20    -314.981629869660      0.000000000616      0.00000116      0.00000030      0.00001404      0.00000469  ~
     21    -314.981629865772      0.000000003888      0.00000076      0.00000015      0.00000703      0.00000243  ~
     22    -314.981629870614     -0.000000004842      0.00000249      0.00000061      0.00003413      0.00001131  ~
     23    -314.981629871549     -0.000000000935      0.00000137      0.00000035      0.00002928      0.00001082  ~
     24    -314.981629869586      0.000000001963      0.00000267      0.00000053      0.00002368      0.00000752  ~
     25    -314.981629869453      0.000000000134      0.00000102      0.00000026      0.00001315      0.00000523  ~
     26    -314.981629871614     -0.000000002161      0.00000078      0.00000015      0.00001671      0.00000492  ~
     27    -314.981629868328      0.000000003285      0.00000072      0.00000017      0.00001271      0.00000468  ~
     28    -314.981629873027     -0.000000004699      0.00000158      0.00000041      0.00003215      0.00000915  ~
     29    -314.981629868874      0.000000004153      0.00000144      0.00000034      0.00002281      0.00000826  ~
     30    -314.981629873097     -0.000000004223      0.00000063      0.00000014      0.00001732      0.00000408  ~
     31    -314.981629870148      0.000000002949      0.00000068      0.00000015      0.00001420      0.00000460  ~
     32    -314.981629873478     -0.000000003329      0.00000043      0.00000008      0.00000962      0.00000270  ~
     33    -314.981629868562      0.000000004916      0.00000028      0.00000007      0.00000585      0.00000205  ~
  --------------------------------------------------------------------------------------------------------------- ~

	Writing optimization data to binary file.
	Final energy is   -314.9816298685618
	Final (previous) structure:
	Cartesian Geometry (in Angstrom)
	    C     3.1698686392  -1.5173575278  -0.1532134643
	    H     3.0532354800  -2.5921284576  -0.0163341892
	    H     3.9898338785  -1.1839783192   0.4840723563
	    H     3.4624057179  -1.3408265885  -1.1891701074
	    C    -3.5049604233  -1.1224762864   0.2352539995
	    H    -4.3660268430  -1.4060535013  -0.3694387046
	    H    -3.8756055241  -0.6605335374   1.1511364901
	    H    -2.9760632341  -2.0345703189   0.5146527084
	    C     1.8870021754  -0.7645643381   0.1792333710
	    H     1.5982073215  -0.9631562676   1.2152454270
	    H     1.0752828242  -1.1381931637  -0.4490135610
	    C    -2.5798391456  -0.1704711110  -0.5128431821
	    H    -2.2392891260  -0.6390012831  -1.4403122025
	    H    -3.1304147822   0.7280303003  -0.8047173058
	    C     2.0435828812   0.7380773772  -0.0218388771
	    H     2.2822757729   0.9283716508  -1.0735414637
	    H     2.9075778177   1.0799912418   0.5562459925
	    C     0.8231476928   1.5727062441   0.3644236841
	    H     1.0678814288   2.6245541289   0.2021104038
	    H     0.6334569440   1.4642539431   1.4370560973
	    C    -0.4520302662   1.2145177711  -0.4113796463
	    H    -1.0271704466   2.1210748132  -0.6167077528
	    H    -0.1778656160   0.8020206062  -1.3884577061
	    C    -1.3668982455   0.2327983677   0.3152031759
	    H    -0.8101843058  -0.6636720911   0.5984927110
	    H    -1.7041653832   0.6921227100   1.2501312277
	Saving final (previous) structure.
			--------------------------
			 OPTKING Finished Execution 
			--------------------------

    Final optimized geometry and variables:
    Molecular point group: c1
    Full point group: C1

    Geometry (in Angstrom), charge = 0, multiplicity = 1:

    C            3.169868639209    -1.517357527848    -0.153213464318
    H            3.053235479989    -2.592128457560    -0.016334189156
    H            3.989833878508    -1.183978319226     0.484072356260
    H            3.462405717854    -1.340826588484    -1.189170107433
    C           -3.504960423291    -1.122476286426     0.235253999547
    H           -4.366026843010    -1.406053501344    -0.369438704557
    H           -3.875605524117    -0.660533537354     1.151136490077
    H           -2.976063234064    -2.034570318926     0.514652708442
    C            1.887002175432    -0.764564338102     0.179233370973
    H            1.598207321470    -0.963156267642     1.215245426978
    H            1.075282824158    -1.138193163706    -0.449013561035
    C           -2.579839145554    -0.170471111027    -0.512843182140
    H           -2.239289126021    -0.639001283117    -1.440312202532
    H           -3.130414782164     0.728030300323    -0.804717305764
    C            2.043582881236     0.738077377158    -0.021838877129
    H            2.282275772918     0.928371650809    -1.073541463686
    H            2.907577817696     1.079991241772     0.556245992550
    C            0.823147692766     1.572706244122     0.364423684115
    H            1.067881428753     2.624554128885     0.202110403841
    H            0.633456944043     1.464253943141     1.437056097332
    C           -0.452030266168     1.214517771104    -0.411379646278
    H           -1.027170446632     2.121074813192    -0.616707752825
    H           -0.177865616047     0.802020606247    -1.388457706108
    C           -1.366898245468     0.232798367739     0.315203175850
    H           -0.810184305764    -0.663672091127     0.598492710983
    H           -1.704165383220     0.692122710045     1.250131227680

	Cleaning optimization helper files.

*** Psi4 exiting successfully. Buy a developer a beer!
