    -----------------------------------------------------------------------
          Psi4: An Open-Source Ab Initio Electronic Structure Package
                              Psi4 1.0.0 Driver

                          Git: Rev {master} 6a9a71b dirty

    J. M. Turney, A. C. Simmonett, R. M. Parrish, E. G. Hohenstein,
    F. A. Evangelista, J. T. Fermann, B. J. Mintz, L. A. Burns, J. J. Wilke,
    M. L. Abrams, N. J. Russ, M. L. Leininger, C. L. Janssen, E. T. Seidl,
    W. D. Allen, H. F. Schaefer, R. A. King, E. F. Valeev, C. D. Sherrill,
    and T. D. Crawford, WIREs Comput. Mol. Sci. 2, 556-565 (2012)
    (doi: 10.1002/wcms.93)

                         Additional Contributions by
    A. E. DePrince, U. Bozkaya, A. Yu. Sokolov, D. G. A. Smith, R. Di Remigio,
    R. M. Richard, J. F. Gonthier, H. R. McAlexander, M. Saitow, and
    B. P. Pritchard
    -----------------------------------------------------------------------


    Psi4 started on: Wed Sep 21 04:57:33 2016

    Process ID:  16258
    PSI4DATADIR: /usr/local/hpc5/psi4conda/share/psi4
    Memory level set to 256.000 MB

  ==> Input File <==

--------------------------------------------------------------------------
memory 60 Gb

molecule molecule_10_psi {
0 1
C           -2.262097364716     0.126223976438    -1.545979779119
H           -2.618883578503     1.154650354798    -1.625447862368
H           -2.778017582758    -0.467016358368    -2.300586120938
H           -1.200786756601     0.123867955806    -1.794814787404
C            2.264701866932    -0.127367051407    -1.542009105709
H            1.203811509764    -0.125095023522    -1.792636494278
H            2.621527239303    -1.155884861683    -1.620126509048
H            2.781949902314     0.465277473253    -2.296176141215
C           -2.509569158353    -0.425371713591    -0.146404371243
H           -2.112583789484    -1.440369081357    -0.076661441201
H           -3.585319516221    -0.506670315982     0.024375595651
C            2.509865587980     0.425228142593    -0.142421196809
H            3.585335940934     0.506546833189     0.030109393015
H            2.112865545935     1.440317370718    -0.074087886159
C           -1.905178827064     0.443501227085     0.956276977077
H           -2.122491476220    -0.010479265148     1.927415263808
H           -2.402536442547     1.417929842973     0.948632536919
C           -0.395911628470     0.652378339849     0.837015001290
H           -0.057574748583     1.271563074494     1.673743305419
H           -0.174536887676     1.220875196707    -0.069437354072
C            0.394470256074    -0.651733132771     0.838165768586
H            0.054690096256    -1.270308211757     1.674759760832
H            0.174641642408    -1.220889531550    -0.068250757880
C            1.903537688575    -0.442779420803     0.959880061709
H            2.119176786144     0.011949604266     1.931043143517
H            2.400894146079    -1.417221977610     0.953853509441
}

set globals {
  reference rhf
  g_convergence gau_verytight
  basis aug-cc-pvtz
  freeze_core true
  scf_type df
  mp_type df
}
optimize('mp2')
--------------------------------------------------------------------------
/usr/local/hpc5/psi4conda/lib/python2.7/site-packages/v2rdm_casscf/v2rdm_casscf.so loaded.

  Memory set to  60.000 GiB by Python script.
gradient() will perform analytic gradient computation.

*** tstart() called on wr42
*** at Wed Sep 21 04:57:34 2016


         ---------------------------------------------------------
                                   SCF
            by Justin Turney, Rob Parrish, and Andy Simmonett
                              RHF Reference
                       12 Threads,  60000 MiB Core
         ---------------------------------------------------------

  ==> Geometry <==

    Molecular point group: c1
    Full point group: C1

    Geometry (in Angstrom), charge = 0, multiplicity = 1:

       Center              X                  Y                   Z               Mass       
    ------------   -----------------  -----------------  -----------------  -----------------
           C         -2.262097364716     0.126223976438    -1.545979779119    12.000000000000
           H         -2.618883578503     1.154650354798    -1.625447862368     1.007825032070
           H         -2.778017582758    -0.467016358368    -2.300586120938     1.007825032070
           H         -1.200786756601     0.123867955806    -1.794814787404     1.007825032070
           C          2.264701866932    -0.127367051407    -1.542009105709    12.000000000000
           H          1.203811509764    -0.125095023522    -1.792636494278     1.007825032070
           H          2.621527239303    -1.155884861683    -1.620126509048     1.007825032070
           H          2.781949902314     0.465277473253    -2.296176141215     1.007825032070
           C         -2.509569158353    -0.425371713591    -0.146404371243    12.000000000000
           H         -2.112583789484    -1.440369081357    -0.076661441201     1.007825032070
           H         -3.585319516221    -0.506670315982     0.024375595651     1.007825032070
           C          2.509865587980     0.425228142593    -0.142421196809    12.000000000000
           H          3.585335940934     0.506546833189     0.030109393015     1.007825032070
           H          2.112865545935     1.440317370718    -0.074087886159     1.007825032070
           C         -1.905178827064     0.443501227085     0.956276977077    12.000000000000
           H         -2.122491476220    -0.010479265148     1.927415263808     1.007825032070
           H         -2.402536442547     1.417929842973     0.948632536919     1.007825032070
           C         -0.395911628470     0.652378339849     0.837015001290    12.000000000000
           H         -0.057574748583     1.271563074494     1.673743305419     1.007825032070
           H         -0.174536887676     1.220875196707    -0.069437354072     1.007825032070
           C          0.394470256074    -0.651733132771     0.838165768586    12.000000000000
           H          0.054690096256    -1.270308211757     1.674759760832     1.007825032070
           H          0.174641642408    -1.220889531550    -0.068250757880     1.007825032070
           C          1.903537688575    -0.442779420803     0.959880061709    12.000000000000
           H          2.119176786144     0.011949604266     1.931043143517     1.007825032070
           H          2.400894146079    -1.417221977610     0.953853509441     1.007825032070

  Running in c1 symmetry.

  Rotational constants: A =      0.09822  B =      0.03435  C =      0.02871 [cm^-1]
  Rotational constants: A =   2944.47784  B =   1029.87729  C =    860.76905 [MHz]
  Nuclear repulsion =  404.723376359550343

  Charge       = 0
  Multiplicity = 1
  Electrons    = 66
  Nalpha       = 33
  Nbeta        = 33

  ==> Algorithm <==

  SCF Algorithm Type is DF.
  DIIS enabled.
  MOM disabled.
  Fractional occupation disabled.
  Guess Type is SAD.
  Energy threshold   = 1.00e-10
  Density threshold  = 1.00e-10
  Integral threshold = 0.00e+00

  ==> Primary Basis <==

  Basis Set: AUG-CC-PVTZ
    Number of shells: 274
    Number of basis function: 782
    Number of Cartesian functions: 890
    Spherical Harmonics?: true
    Max angular momentum: 3

  ==> Pre-Iterations <==

   -------------------------------------------------------
    Irrep   Nso     Nmo     Nalpha   Nbeta   Ndocc  Nsocc
   -------------------------------------------------------
     A        782     782       0       0       0       0
   -------------------------------------------------------
    Total     782     782      33      33      33       0
   -------------------------------------------------------

  ==> Integral Setup <==

  ==> DFJK: Density-Fitted J/K Matrices <==

    J tasked:                  Yes
    K tasked:                  Yes
    wK tasked:                  No
    OpenMP threads:             12
    Integrals threads:          12
    Memory (MB):             42915
    Algorithm:                Core
    Integral Cache:           NONE
    Schwarz Cutoff:          1E-12
    Fitting Condition:       1E-12

   => Auxiliary Basis Set <=

  Basis Set: 
    Number of shells: 492
    Number of basis function: 1660
    Number of Cartesian functions: 2038
    Spherical Harmonics?: true
    Max angular momentum: 4

  Minimum eigenvalue in the overlap matrix is 1.6157115328E-06.
  Using Symmetric Orthogonalization.
  SCF Guess: Superposition of Atomic Densities via on-the-fly atomic UHF.

  ==> Iterations <==

                           Total Energy        Delta E     RMS |[F,P]|

   @DF-RHF iter   0:  -317.04521177508730   -3.17045e+02   7.04391e-03 
   @DF-RHF iter   1:  -313.29925139011118    3.74596e+00   7.07432e-04 
   @DF-RHF iter   2:  -313.50841320017003   -2.09162e-01   2.56432e-04 DIIS
   @DF-RHF iter   3:  -313.53410515989412   -2.56920e-02   1.04466e-04 DIIS
   @DF-RHF iter   4:  -313.53921595230076   -5.11079e-03   1.64032e-05 DIIS
   @DF-RHF iter   5:  -313.53940685975954   -1.90907e-04   4.31606e-06 DIIS
   @DF-RHF iter   6:  -313.53941808484194   -1.12251e-05   1.36123e-06 DIIS
   @DF-RHF iter   7:  -313.53941909885418   -1.01401e-06   2.23751e-07 DIIS
   @DF-RHF iter   8:  -313.53941914046118   -4.16070e-08   5.34674e-08 DIIS
   @DF-RHF iter   9:  -313.53941914227994   -1.81876e-09   1.74349e-08 DIIS
   @DF-RHF iter  10:  -313.53941914246082   -1.80876e-10   4.31389e-09 DIIS
   @DF-RHF iter  11:  -313.53941914247400   -1.31877e-11   1.09799e-09 DIIS
   @DF-RHF iter  12:  -313.53941914247332    6.82121e-13   3.09548e-10 DIIS
   @DF-RHF iter  13:  -313.53941914247343   -1.13687e-13   8.94827e-11 DIIS

  ==> Post-Iterations <==

    Orbital Energies (a.u.)
    -----------------------

    Doubly Occupied:                                                      

       1A    -11.212148     2A    -11.212147     3A    -11.210712  
       4A    -11.210687     5A    -11.209481     6A    -11.208879  
       7A    -11.207323     8A    -11.207322     9A     -1.096084  
      10A     -1.060256    11A     -1.003510    12A     -0.947513  
      13A     -0.887967    14A     -0.842963    15A     -0.781969  
      16A     -0.743604    17A     -0.648205    18A     -0.634973  
      19A     -0.613144    20A     -0.604648    21A     -0.568739  
      22A     -0.550009    23A     -0.542986    24A     -0.537791  
      25A     -0.522788    26A     -0.501200    27A     -0.495270  
      28A     -0.471659    29A     -0.462663    30A     -0.459125  
      31A     -0.444415    32A     -0.438342    33A     -0.435803  

    Virtual:                                                              

      34A      0.029451    35A      0.032358    36A      0.034532  
      37A      0.035131    38A      0.046889    39A      0.047190  
      40A      0.051065    41A      0.053867    42A      0.054315  
      43A      0.067816    44A      0.071214    45A      0.071579  
      46A      0.074960    47A      0.079185    48A      0.084912  
      49A      0.090144    50A      0.101248    51A      0.105087  
      52A      0.115238    53A      0.118260    54A      0.119111  
      55A      0.125902    56A      0.128481    57A      0.129144  
      58A      0.133385    59A      0.133487    60A      0.140107  
      61A      0.143638    62A      0.145716    63A      0.151887  
      64A      0.155396    65A      0.158154    66A      0.159587  
      67A      0.163935    68A      0.165411    69A      0.170491  
      70A      0.176856    71A      0.177633    72A      0.187280  
      73A      0.190779    74A      0.191260    75A      0.193757  
      76A      0.208429    77A      0.213942    78A      0.220826  
      79A      0.224909    80A      0.228278    81A      0.239706  
      82A      0.242253    83A      0.248244    84A      0.260808  
      85A      0.269762    86A      0.279469    87A      0.283420  
      88A      0.286513    89A      0.286666    90A      0.296790  
      91A      0.298307    92A      0.307113    93A      0.307534  
      94A      0.310123    95A      0.316639    96A      0.319578  
      97A      0.324886    98A      0.326132    99A      0.331877  
     100A      0.336395   101A      0.342030   102A      0.345094  
     103A      0.346648   104A      0.349506   105A      0.350844  
     106A      0.360497   107A      0.365170   108A      0.369426  
     109A      0.373206   110A      0.376294   111A      0.377436  
     112A      0.381811   113A      0.385158   114A      0.388123  
     115A      0.391947   116A      0.397921   117A      0.398213  
     118A      0.402377   119A      0.414273   120A      0.414838  
     121A      0.422296   122A      0.427914   123A      0.431498  
     124A      0.431557   125A      0.436504   126A      0.439868  
     127A      0.444832   128A      0.445671   129A      0.447732  
     130A      0.452125   131A      0.458156   132A      0.468187  
     133A      0.470193   134A      0.470301   135A      0.477895  
     136A      0.482515   137A      0.482781   138A      0.487846  
     139A      0.491817   140A      0.496263   141A      0.497477  
     142A      0.498161   143A      0.505304   144A      0.512568  
     145A      0.515530   146A      0.519239   147A      0.524145  
     148A      0.524881   149A      0.533268   150A      0.534730  
     151A      0.536671   152A      0.544445   153A      0.546655  
     154A      0.554242   155A      0.559828   156A      0.564544  
     157A      0.564881   158A      0.570077   159A      0.571013  
     160A      0.573591   161A      0.582516   162A      0.586978  
     163A      0.590002   164A      0.590899   165A      0.599193  
     166A      0.603343   167A      0.607632   168A      0.608562  
     169A      0.612491   170A      0.622029   171A      0.632530  
     172A      0.632614   173A      0.642505   174A      0.643428  
     175A      0.654160   176A      0.656284   177A      0.659920  
     178A      0.662480   179A      0.668094   180A      0.670654  
     181A      0.675481   182A      0.688346   183A      0.692694  
     184A      0.698221   185A      0.705875   186A      0.705879  
     187A      0.709756   188A      0.720300   189A      0.722596  
     190A      0.726663   191A      0.737720   192A      0.749416  
     193A      0.751541   194A      0.751746   195A      0.758946  
     196A      0.768229   197A      0.773408   198A      0.773955  
     199A      0.779500   200A      0.788941   201A      0.802890  
     202A      0.804076   203A      0.809233   204A      0.820003  
     205A      0.826873   206A      0.843546   207A      0.844886  
     208A      0.846653   209A      0.849611   210A      0.862779  
     211A      0.870927   212A      0.875518   213A      0.884260  
     214A      0.887599   215A      0.893552   216A      0.895310  
     217A      0.903037   218A      0.906457   219A      0.916755  
     220A      0.922016   221A      0.925990   222A      0.935072  
     223A      0.936849   224A      0.945333   225A      0.947676  
     226A      0.959022   227A      0.962727   228A      0.966284  
     229A      0.972105   230A      0.974604   231A      0.978864  
     232A      0.982789   233A      0.984356   234A      0.991250  
     235A      0.991765   236A      0.993732   237A      1.004249  
     238A      1.008465   239A      1.018776   240A      1.024941  
     241A      1.028172   242A      1.032083   243A      1.036604  
     244A      1.039446   245A      1.044712   246A      1.048417  
     247A      1.056026   248A      1.059691   249A      1.061905  
     250A      1.075313   251A      1.081247   252A      1.081639  
     253A      1.094561   254A      1.098621   255A      1.101447  
     256A      1.108399   257A      1.114626   258A      1.127092  
     259A      1.133135   260A      1.138162   261A      1.141677  
     262A      1.144881   263A      1.148927   264A      1.162554  
     265A      1.165361   266A      1.166405   267A      1.170675  
     268A      1.173204   269A      1.182583   270A      1.185687  
     271A      1.189617   272A      1.195050   273A      1.197820  
     274A      1.204509   275A      1.207169   276A      1.210353  
     277A      1.214484   278A      1.221591   279A      1.226141  
     280A      1.235828   281A      1.247208   282A      1.248369  
     283A      1.253633   284A      1.256793   285A      1.258758  
     286A      1.263968   287A      1.267947   288A      1.268454  
     289A      1.282899   290A      1.293154   291A      1.295843  
     292A      1.301134   293A      1.305654   294A      1.311734  
     295A      1.315137   296A      1.316897   297A      1.322366  
     298A      1.329269   299A      1.336840   300A      1.343748  
     301A      1.350647   302A      1.358408   303A      1.359283  
     304A      1.382047   305A      1.389009   306A      1.390986  
     307A      1.391518   308A      1.400435   309A      1.410422  
     310A      1.415530   311A      1.429724   312A      1.432908  
     313A      1.443205   314A      1.457207   315A      1.461039  
     316A      1.465473   317A      1.468309   318A      1.471200  
     319A      1.485482   320A      1.490911   321A      1.501964  
     322A      1.502546   323A      1.505048   324A      1.513283  
     325A      1.516600   326A      1.525948   327A      1.535680  
     328A      1.544128   329A      1.544131   330A      1.562675  
     331A      1.566892   332A      1.576207   333A      1.591707  
     334A      1.593249   335A      1.601249   336A      1.603911  
     337A      1.609542   338A      1.609903   339A      1.630522  
     340A      1.632716   341A      1.635426   342A      1.637342  
     343A      1.646873   344A      1.655554   345A      1.660757  
     346A      1.664002   347A      1.674218   348A      1.675233  
     349A      1.681909   350A      1.689368   351A      1.691854  
     352A      1.693916   353A      1.709170   354A      1.723443  
     355A      1.724423   356A      1.737050   357A      1.737369  
     358A      1.753809   359A      1.756754   360A      1.760371  
     361A      1.767822   362A      1.768676   363A      1.777388  
     364A      1.784737   365A      1.788942   366A      1.795335  
     367A      1.816310   368A      1.817317   369A      1.818005  
     370A      1.824130   371A      1.826532   372A      1.839364  
     373A      1.841276   374A      1.850784   375A      1.853100  
     376A      1.868564   377A      1.874752   378A      1.875588  
     379A      1.884041   380A      1.887453   381A      1.889695  
     382A      1.897677   383A      1.904991   384A      1.906456  
     385A      1.911968   386A      1.926681   387A      1.928090  
     388A      1.937776   389A      1.941995   390A      1.951426  
     391A      1.958057   392A      1.970970   393A      1.987355  
     394A      1.990570   395A      2.001648   396A      2.003834  
     397A      2.007449   398A      2.009896   399A      2.011534  
     400A      2.018472   401A      2.019853   402A      2.028142  
     403A      2.034559   404A      2.042016   405A      2.048010  
     406A      2.059889   407A      2.067600   408A      2.069111  
     409A      2.076411   410A      2.078503   411A      2.093510  
     412A      2.095876   413A      2.103914   414A      2.112923  
     415A      2.121976   416A      2.126161   417A      2.130345  
     418A      2.136499   419A      2.150883   420A      2.157272  
     421A      2.164676   422A      2.171110   423A      2.176979  
     424A      2.193888   425A      2.203402   426A      2.213736  
     427A      2.215011   428A      2.223958   429A      2.245397  
     430A      2.246888   431A      2.264420   432A      2.264728  
     433A      2.275197   434A      2.276266   435A      2.287921  
     436A      2.300208   437A      2.316212   438A      2.323657  
     439A      2.328705   440A      2.349678   441A      2.350219  
     442A      2.352801   443A      2.368876   444A      2.371625  
     445A      2.378902   446A      2.385509   447A      2.390776  
     448A      2.404855   449A      2.409021   450A      2.417561  
     451A      2.442680   452A      2.443275   453A      2.455134  
     454A      2.466312   455A      2.469340   456A      2.480028  
     457A      2.489392   458A      2.505382   459A      2.511646  
     460A      2.516903   461A      2.528358   462A      2.547517  
     463A      2.556953   464A      2.565534   465A      2.580014  
     466A      2.591172   467A      2.598492   468A      2.609569  
     469A      2.611873   470A      2.630352   471A      2.641473  
     472A      2.659946   473A      2.664473   474A      2.678068  
     475A      2.690716   476A      2.697766   477A      2.708806  
     478A      2.729963   479A      2.731251   480A      2.749869  
     481A      2.774535   482A      2.796210   483A      2.819617  
     484A      2.876240   485A      2.918642   486A      2.987909  
     487A      2.990028   488A      3.048129   489A      3.116800  
     490A      3.133410   491A      3.243320   492A      3.264414  
     493A      3.270462   494A      3.366429   495A      3.405376  
     496A      3.427854   497A      3.436642   498A      3.451348  
     499A      3.462363   500A      3.492701   501A      3.511152  
     502A      3.511978   503A      3.517271   504A      3.534220  
     505A      3.537691   506A      3.573495   507A      3.581191  
     508A      3.592369   509A      3.599099   510A      3.605885  
     511A      3.618404   512A      3.623942   513A      3.651798  
     514A      3.663350   515A      3.673142   516A      3.681684  
     517A      3.691022   518A      3.696588   519A      3.702896  
     520A      3.715824   521A      3.722731   522A      3.733999  
     523A      3.744847   524A      3.749939   525A      3.767514  
     526A      3.770473   527A      3.786424   528A      3.790807  
     529A      3.799016   530A      3.804316   531A      3.811957  
     532A      3.821094   533A      3.833315   534A      3.835741  
     535A      3.841056   536A      3.861575   537A      3.864171  
     538A      3.864233   539A      3.872915   540A      3.886911  
     541A      3.890176   542A      3.903730   543A      3.921607  
     544A      3.931039   545A      3.938453   546A      3.943162  
     547A      3.948016   548A      3.958265   549A      3.965459  
     550A      3.969051   551A      3.972469   552A      3.990346  
     553A      3.996502   554A      4.003012   555A      4.012234  
     556A      4.022682   557A      4.025189   558A      4.033612  
     559A      4.038604   560A      4.050430   561A      4.055696  
     562A      4.056533   563A      4.072788   564A      4.073990  
     565A      4.080683   566A      4.088304   567A      4.096668  
     568A      4.101997   569A      4.106709   570A      4.111733  
     571A      4.118207   572A      4.137842   573A      4.151781  
     574A      4.155517   575A      4.161023   576A      4.162359  
     577A      4.179850   578A      4.181294   579A      4.187358  
     580A      4.188185   581A      4.196110   582A      4.198691  
     583A      4.240211   584A      4.245052   585A      4.249956  
     586A      4.251037   587A      4.256323   588A      4.257345  
     589A      4.271706   590A      4.286963   591A      4.293673  
     592A      4.297576   593A      4.309030   594A      4.324818  
     595A      4.324865   596A      4.347991   597A      4.357399  
     598A      4.371104   599A      4.377993   600A      4.392607  
     601A      4.402727   602A      4.406871   603A      4.415931  
     604A      4.437137   605A      4.440247   606A      4.457565  
     607A      4.465512   608A      4.472451   609A      4.490668  
     610A      4.490904   611A      4.501163   612A      4.514466  
     613A      4.516667   614A      4.561989   615A      4.571690  
     616A      4.581831   617A      4.616567   618A      4.626445  
     619A      4.633726   620A      4.641633   621A      4.643335  
     622A      4.660146   623A      4.667063   624A      4.689580  
     625A      4.691998   626A      4.700134   627A      4.711009  
     628A      4.731216   629A      4.732075   630A      4.741764  
     631A      4.744372   632A      4.744595   633A      4.769911  
     634A      4.784212   635A      4.798734   636A      4.808557  
     637A      4.823570   638A      4.823699   639A      4.838659  
     640A      4.846263   641A      4.854807   642A      4.872265  
     643A      4.878487   644A      4.894449   645A      4.905862  
     646A      4.908713   647A      4.917091   648A      4.925755  
     649A      4.950751   650A      4.957746   651A      4.966786  
     652A      4.990947   653A      4.992079   654A      5.000961  
     655A      5.001200   656A      5.022113   657A      5.032450  
     658A      5.061457   659A      5.071233   660A      5.082808  
     661A      5.101730   662A      5.119530   663A      5.133050  
     664A      5.133835   665A      5.150997   666A      5.158932  
     667A      5.163914   668A      5.164685   669A      5.199307  
     670A      5.203664   671A      5.218066   672A      5.239707  
     673A      5.258037   674A      5.258488   675A      5.272054  
     676A      5.278935   677A      5.282068   678A      5.294812  
     679A      5.311383   680A      5.329266   681A      5.334569  
     682A      5.343374   683A      5.356545   684A      5.370042  
     685A      5.375456   686A      5.385326   687A      5.396881  
     688A      5.399950   689A      5.408931   690A      5.415434  
     691A      5.422835   692A      5.427263   693A      5.438278  
     694A      5.441600   695A      5.459198   696A      5.472945  
     697A      5.483112   698A      5.514341   699A      5.523200  
     700A      5.525655   701A      5.540269   702A      5.556619  
     703A      5.572145   704A      5.592814   705A      5.595159  
     706A      5.626368   707A      5.629122   708A      5.631616  
     709A      5.638803   710A      5.645635   711A      5.657038  
     712A      5.669595   713A      5.680608   714A      5.695444  
     715A      5.708580   716A      5.712579   717A      5.730008  
     718A      5.740369   719A      5.750845   720A      5.758162  
     721A      5.784343   722A      5.784830   723A      5.795497  
     724A      5.807148   725A      5.844371   726A      5.857448  
     727A      5.881030   728A      5.898582   729A      5.918110  
     730A      5.925284   731A      5.955220   732A      5.977761  
     733A      5.992889   734A      6.001187   735A      6.030986  
     736A      6.034231   737A      6.057728   738A      6.086570  
     739A      6.096596   740A      6.116356   741A      6.145444  
     742A      6.152769   743A      6.176459   744A      6.180337  
     745A      6.198373   746A      6.249053   747A      6.268715  
     748A      6.306135   749A      6.321181   750A      6.323451  
     751A      6.347564   752A      6.348974   753A      6.366910  
     754A      6.367478   755A      6.391755   756A      6.392595  
     757A      6.450766   758A      6.492879   759A      6.609137  
     760A      6.650049   761A      6.663770   762A      6.712424  
     763A      6.755829   764A      6.766913   765A      6.839204  
     766A      6.885237   767A      6.923355   768A      6.932734  
     769A      6.992374   770A      7.024684   771A      7.029377  
     772A      7.086237   773A      7.086948   774A      7.191075  
     775A     18.061967   776A     18.070594   777A     18.390738  
     778A     18.519686   779A     18.662171   780A     19.187296  
     781A     19.717699   782A     19.890808  

    Final Occupation by Irrep:
              A 
    DOCC [    33 ]

  Energy converged.

  @DF-RHF Final Energy:  -313.53941914247343

   => Energetics <=

    Nuclear Repulsion Energy =            404.7233763595503433
    One-Electron Energy =               -1224.5769457244318801
    Two-Electron Energy =                 506.3141502224076476
    DFT Exchange-Correlation Energy =       0.0000000000000000
    Empirical Dispersion Energy =           0.0000000000000000
    PCM Polarization Energy =               0.0000000000000000
    EFP Energy =                            0.0000000000000000
    Total Energy =                       -313.5394191424738892


  Saving occupied orbitals to File 180.

*** tstop() called on wr42 at Wed Sep 21 04:58:41 2016
Module time:
	user time   =     721.68 seconds =      12.03 minutes
	system time =       8.42 seconds =       0.14 minutes
	total time  =         67 seconds =       1.12 minutes
Total time:
	user time   =     721.68 seconds =      12.03 minutes
	system time =       8.42 seconds =       0.14 minutes
	total time  =         67 seconds =       1.12 minutes


Properties will be evaluated at   0.000000,   0.000000,   0.000000 Bohr

Properties computed using the SCF density matrix

  Nuclear Dipole Moment: (a.u.)
     X:     0.0020      Y:    -0.0009      Z:    -2.3946

  Electronic Dipole Moment: (a.u.)
     X:    -0.0021      Y:     0.0009      Z:     2.4323

  Dipole Moment: (a.u.)
     X:    -0.0000      Y:     0.0000      Z:     0.0377     Total:     0.0377

  Dipole Moment: (Debye)
     X:    -0.0001      Y:     0.0000      Z:     0.0958     Total:     0.0958


  //>>>>>>>>>>>>>>>>>>>>>>>>>>>>>>>>>>>//
  //               DFMP2               //
  //<<<<<<<<<<<<<<<<<<<<<<<<<<<<<<<<<<<//


*** tstart() called on wr42
*** at Wed Sep 21 04:58:41 2016


*** tstop() called on wr42 at Wed Sep 21 04:58:42 2016
Module time:
	user time   =       3.63 seconds =       0.06 minutes
	system time =       0.20 seconds =       0.00 minutes
	total time  =          1 seconds =       0.02 minutes
Total time:
	user time   =     726.29 seconds =      12.10 minutes
	system time =       8.68 seconds =       0.14 minutes
	total time  =         68 seconds =       1.13 minutes
	 --------------------------------------------------------
	                          DF-MP2                         
	      2nd-Order Density-Fitted Moller-Plesset Theory     
	              RMP2 Wavefunction,  12 Threads             
	                                                         
	        Rob Parrish, Justin Turney, Andy Simmonett,      
	           Ed Hohenstein, and C. David Sherrill          
	 --------------------------------------------------------

   => Auxiliary Basis Set <=

  Basis Set: 
    Number of shells: 476
    Number of basis function: 1676
    Number of Cartesian functions: 2078
    Spherical Harmonics?: true
    Max angular momentum: 4

	 --------------------------------------------------------
	                 NBF =   782, NAUX =  1676
	 --------------------------------------------------------
	   CLASS    FOCC     OCC    AOCC    AVIR     VIR    FVIR
	   PAIRS       8      33      25     749     749       0
	 --------------------------------------------------------

DGAS Warning! /src/lib/libfock/apps.cc:80 is not currently checking restricted

         ------------------------------------------------------------
                                     CPHF                           
                                  Rob Parrish                       
         ------------------------------------------------------------

  ==> Geometry <==

    Molecular point group: c1
    Full point group: C1

    Geometry (in Angstrom), charge = 0, multiplicity = 1:

       Center              X                  Y                   Z               Mass       
    ------------   -----------------  -----------------  -----------------  -----------------
           C         -2.262097364716     0.126223976438    -1.545979779119    12.000000000000
           H         -2.618883578503     1.154650354798    -1.625447862368     1.007825032070
           H         -2.778017582758    -0.467016358368    -2.300586120938     1.007825032070
           H         -1.200786756601     0.123867955806    -1.794814787404     1.007825032070
           C          2.264701866932    -0.127367051407    -1.542009105709    12.000000000000
           H          1.203811509764    -0.125095023522    -1.792636494278     1.007825032070
           H          2.621527239303    -1.155884861683    -1.620126509048     1.007825032070
           H          2.781949902314     0.465277473253    -2.296176141215     1.007825032070
           C         -2.509569158353    -0.425371713591    -0.146404371243    12.000000000000
           H         -2.112583789484    -1.440369081357    -0.076661441201     1.007825032070
           H         -3.585319516221    -0.506670315982     0.024375595651     1.007825032070
           C          2.509865587980     0.425228142593    -0.142421196809    12.000000000000
           H          3.585335940934     0.506546833189     0.030109393015     1.007825032070
           H          2.112865545935     1.440317370718    -0.074087886159     1.007825032070
           C         -1.905178827064     0.443501227085     0.956276977077    12.000000000000
           H         -2.122491476220    -0.010479265148     1.927415263808     1.007825032070
           H         -2.402536442547     1.417929842973     0.948632536919     1.007825032070
           C         -0.395911628470     0.652378339849     0.837015001290    12.000000000000
           H         -0.057574748583     1.271563074494     1.673743305419     1.007825032070
           H         -0.174536887676     1.220875196707    -0.069437354072     1.007825032070
           C          0.394470256074    -0.651733132771     0.838165768586    12.000000000000
           H          0.054690096256    -1.270308211757     1.674759760832     1.007825032070
           H          0.174641642408    -1.220889531550    -0.068250757880     1.007825032070
           C          1.903537688575    -0.442779420803     0.959880061709    12.000000000000
           H          2.119176786144     0.011949604266     1.931043143517     1.007825032070
           H          2.400894146079    -1.417221977610     0.953853509441     1.007825032070

  Nuclear repulsion =  404.723376359550343
  Reference energy  = -313.539419142473434

  ==> Basis Set <==

  Basis Set: AUG-CC-PVTZ
    Number of shells: 274
    Number of basis function: 782
    Number of Cartesian functions: 890
    Spherical Harmonics?: true
    Max angular momentum: 3

  ==> CGRSolver (by Rob Parrish) <==

   Number of roots    =         1
   Preconditioning    =    JACOBI
   Convergence cutoff =     1E-06
   Maximum iterations =       100

  ==> CPHFRHamiltonian (by Rob Parrish) <== 

  ==> DFJK: Density-Fitted J/K Matrices <==

    J tasked:                  Yes
    K tasked:                  Yes
    wK tasked:                  No
    OpenMP threads:             12
    Integrals threads:          12
    Memory (MB):             42915
    Algorithm:                Core
    Integral Cache:           NONE
    Schwarz Cutoff:          1E-12
    Fitting Condition:       1E-12

   => Auxiliary Basis Set <=

  Basis Set: 
    Number of shells: 492
    Number of basis function: 1660
    Number of Cartesian functions: 2038
    Spherical Harmonics?: true
    Max angular momentum: 4

  ==> CPHF Iterations <==

  => Iterations <=

             Iter  Converged  Remaining    Residual
  CGR           1          0          1   9.418E-02
  CGR           2          0          1   1.354E-02
  CGR           3          0          1   3.866E-03
  CGR           4          0          1   8.307E-04
  CGR           5          0          1   2.040E-04
  CGR           6          0          1   4.726E-05
  CGR           7          0          1   1.189E-05
  CGR           8          0          1   3.230E-06
  CGR           9          1          0   8.295E-07

    CGRSolver converged.

  ==> DFCorrGrad: Density-Fitted Correlated Gradients <==

    OpenMP threads:             12
    Integrals threads:          12
    Memory (MB):             42915
    Schwarz Cutoff:          0E+00
    Fitting Condition:       1E-12

   => Auxiliary Basis Set <=

  Basis Set: 
    Number of shells: 492
    Number of basis function: 1660
    Number of Cartesian functions: 2038
    Spherical Harmonics?: true
    Max angular momentum: 4

	-----------------------------------------------------------
	 ==================> DF-MP2 Energies <==================== 
	-----------------------------------------------------------
	 Reference Energy          =    -313.5394191424734345 [Eh]
	 Singles Energy            =      -0.0000000000000005 [Eh]
	 Same-Spin Energy          =      -0.3175584444029134 [Eh]
	 Opposite-Spin Energy      =      -1.1269664941591588 [Eh]
	 Correlation Energy        =      -1.4445249385620726 [Eh]
	 Total Energy              =    -314.9839440810355313 [Eh]
	-----------------------------------------------------------
	 ================> DF-SCS-MP2 Energies <================== 
	-----------------------------------------------------------
	 SCS Same-Spin Scale       =       0.3333333333333333 [-]
	 SCS Opposite-Spin Scale   =       1.2000000000000000 [-]
	 SCS Same-Spin Energy      =      -0.1058528148009711 [Eh]
	 SCS Opposite-Spin Energy  =      -1.3523597929909905 [Eh]
	 SCS Correlation Energy    =      -1.4582126077919622 [Eh]
	 SCS Total Energy          =    -314.9976317502653842 [Eh]
	-----------------------------------------------------------


  -Total Gradient:
     Atom            X                  Y                   Z
    ------   -----------------  -----------------  -----------------
       1       -0.000000239075     0.000000259106    -0.000001302933
       2        0.000000351334    -0.000000966660     0.000000094557
       3        0.000000478306     0.000000696019     0.000000477722
       4       -0.000001007697    -0.000000157213     0.000000243235
       5        0.000000243219    -0.000000148747    -0.000001032735
       6        0.000000167494     0.000000176474     0.000000043438
       7       -0.000000066967     0.000000379501     0.000000051557
       8       -0.000000345507    -0.000000288836     0.000000143232
       9        0.000000062764    -0.000001258116     0.000000243899
      10        0.000000067700     0.000000818917    -0.000000267535
      11        0.000000695086    -0.000000319194     0.000000072682
      12        0.000001331708     0.000000221356     0.000000283266
      13       -0.000000206491     0.000000014641    -0.000000362627
      14        0.000000768606    -0.000000057285     0.000000347524
      15        0.000000266473     0.000001921260     0.000000345020
      16        0.000000669843     0.000000952522    -0.000001047342
      17        0.000000651048    -0.000000954134     0.000000063699
      18       -0.000001127682     0.000000601872     0.000000683622
      19       -0.000000100564    -0.000000218552    -0.000000435200
      20       -0.000001463515    -0.000000834303     0.000001522804
      21       -0.000002020852    -0.000001384456    -0.000000498960
      22       -0.000000135227     0.000000411078    -0.000001033658
      23       -0.000000646444    -0.000000074661     0.000000686223
      24        0.000001203963    -0.000000090526     0.000000702378
      25       -0.000000077685    -0.000000130722    -0.000000299484
      26        0.000000480160     0.000000430657     0.000000275617


			-----------------------------------------
			 OPTKING 2.0: for geometry optimizations 
			  - R.A. King,  Bethel University        
			-----------------------------------------

	Internal coordinates to be generated automatically.
	Detected frag 1 with atoms:  1 2 3 4 5 6 7 8 9 10 11 12 13 14 15 16 17 18 19 20
	 21 22 23 24 25 26
	---Fragment 1 Bond Connectivity---
	 1 : 2 3 4 9
	 2 : 1
	 3 : 1
	 4 : 1
	 5 : 6 7 8 12
	 6 : 5
	 7 : 5
	 8 : 5
	 9 : 1 10 11 15
	 10 : 9
	 11 : 9
	 12 : 5 13 14 24
	 13 : 12
	 14 : 12
	 15 : 9 16 17 18
	 16 : 15
	 17 : 15
	 18 : 15 19 20 21
	 19 : 18
	 20 : 18
	 21 : 18 22 23 24
	 22 : 21
	 23 : 21
	 24 : 12 21 25 26
	 25 : 24
	 26 : 24

	---Fragment 1 Geometry and Gradient---
	 C          -4.2747445052        0.2385287469       -2.9214783895
	 H          -4.9489727373        2.1819729498       -3.0716513032
	 H          -5.2496924238       -0.8825330169       -4.3474777137
	 H          -2.2691581140        0.2340765131       -3.3917084074
	 C           4.2796663011       -0.2406888455       -2.9139749042
	 H           2.2748740691       -0.2363953350       -3.3875920300
	 H           4.9539685322       -2.1843058297       -3.0615954027
	 H           5.2571234308        0.8792470002       -4.3391440598
	 C          -4.7423984208       -0.8038360434       -0.2766641663
	 H          -3.9922047949       -2.7219030940       -0.1448691288
	 H          -6.7752719845       -0.9574681369        0.0460632001
	 C           4.7429585916        0.8035647335       -0.2691370575
	 H           6.7753030228        0.9572347882        0.0568985068
	 H           3.9927372374        2.7218053751       -0.1400058146
	 C          -3.6002662173        0.8380958588        1.8071015939
	 H          -4.0109276094       -0.0198029412        3.6422869929
	 H          -4.5401359007        2.6794990789        1.7926556955
	 C          -0.7481645506        1.2328163973        1.5817291216
	 H          -0.1088005070        2.4029059715        3.1629164640
	 H          -0.3298269178        2.3071197642       -0.1312175826
	 C           0.7454407515       -1.2315971327        1.5839037566
	 H           0.1033493041       -2.4005346246        3.1648372863
	 H           0.3300248755       -2.3071468531       -0.1289752408
	 C           3.5971649150       -0.8367318426        1.8139104370
	 H           4.0046637530        0.0225814795        3.6491426920
	 H           4.5370324101       -2.6781614072        1.8025219037
	            -0.0000002391        0.0000002591       -0.0000013029
	             0.0000003513       -0.0000009667        0.0000000946
	             0.0000004783        0.0000006960        0.0000004777
	            -0.0000010077       -0.0000001572        0.0000002432
	             0.0000002432       -0.0000001487       -0.0000010327
	             0.0000001675        0.0000001765        0.0000000434
	            -0.0000000670        0.0000003795        0.0000000516
	            -0.0000003455       -0.0000002888        0.0000001432
	             0.0000000628       -0.0000012581        0.0000002439
	             0.0000000677        0.0000008189       -0.0000002675
	             0.0000006951       -0.0000003192        0.0000000727
	             0.0000013317        0.0000002214        0.0000002833
	            -0.0000002065        0.0000000146       -0.0000003626
	             0.0000007686       -0.0000000573        0.0000003475
	             0.0000002665        0.0000019213        0.0000003450
	             0.0000006698        0.0000009525       -0.0000010473
	             0.0000006510       -0.0000009541        0.0000000637
	            -0.0000011277        0.0000006019        0.0000006836
	            -0.0000001006       -0.0000002186       -0.0000004352
	            -0.0000014635       -0.0000008343        0.0000015228
	            -0.0000020209       -0.0000013845       -0.0000004990
	            -0.0000001352        0.0000004111       -0.0000010337
	            -0.0000006464       -0.0000000747        0.0000006862
	             0.0000012040       -0.0000000905        0.0000007024
	            -0.0000000777       -0.0000001307       -0.0000002995
	             0.0000004802        0.0000004307        0.0000002756

	Previous optimization step data not found.  Starting new optimization.

	---Fragment 1 Intrafragment Coordinates---
	 - Coordinate -           - BOHR/RAD -       - ANG/DEG -
	 R(1,2)           =         2.062550	       1.091454
	 R(1,3)           =         2.059315	       1.089742
	 R(1,4)           =         2.059979	       1.090094
	 R(1,9)           =         2.881018	       1.524569
	 R(5,6)           =         2.059981	       1.090095
	 R(5,7)           =         2.062552	       1.091456
	 R(5,8)           =         2.059317	       1.089744
	 R(5,12)          =         2.881019	       1.524570
	 R(9,10)          =         2.063769	       1.092099
	 R(9,11)          =         2.064057	       1.092252
	 R(9,15)          =         2.888336	       1.528442
	 R(12,13)         =         2.064059	       1.092253
	 R(12,14)         =         2.063772	       1.092101
	 R(12,24)         =         2.888339	       1.528443
	 R(15,16)         =         2.067012	       1.093816
	 R(15,17)         =         2.067445	       1.094045
	 R(15,18)         =         2.888093	       1.528313
	 R(18,19)         =         2.068345	       1.094521
	 R(18,20)         =         2.064781	       1.092635
	 R(18,21)         =         2.881700	       1.524930
	 R(21,22)         =         2.068344	       1.094521
	 R(21,23)         =         2.064784	       1.092637
	 R(21,24)         =         2.888105	       1.528320
	 R(24,25)         =         2.067015	       1.093817
	 R(24,26)         =         2.067449	       1.094047
	 B(1,9,10)        =         1.913337	     109.626136
	 B(1,9,11)        =         1.907457	     109.289217
	 B(1,9,15)        =         1.974070	     113.105872
	 B(2,1,3)         =         1.883645	     107.924932
	 B(2,1,4)         =         1.879344	     107.678507
	 B(2,1,9)         =         1.933378	     110.774421
	 B(3,1,4)         =         1.877259	     107.559005
	 B(3,1,9)         =         1.941081	     111.215734
	 B(4,1,9)         =         1.946373	     111.518943
	 B(5,12,13)       =         1.907452	     109.288942
	 B(5,12,14)       =         1.913340	     109.626315
	 B(5,12,24)       =         1.974075	     113.106147
	 B(6,5,7)         =         1.879345	     107.678536
	 B(6,5,8)         =         1.877259	     107.558994
	 B(6,5,12)        =         1.946374	     111.519024
	 B(7,5,8)         =         1.883646	     107.924938
	 B(7,5,12)        =         1.933380	     110.774492
	 B(8,5,12)        =         1.941078	     111.215560
	 B(9,15,16)       =         1.902894	     109.027815
	 B(9,15,17)       =         1.898122	     108.754388
	 B(9,15,18)       =         1.995332	     114.324075
	 B(10,9,11)       =         1.853395	     106.191733
	 B(10,9,15)       =         1.916143	     109.786888
	 B(11,9,15)       =         1.895434	     108.600395
	 B(12,24,21)      =         1.995344	     114.324774
	 B(12,24,25)      =         1.902890	     109.027582
	 B(12,24,26)      =         1.898116	     108.754055
	 B(13,12,14)      =         1.853393	     106.191589
	 B(13,12,24)      =         1.895432	     108.600246
	 B(14,12,24)      =         1.916144	     109.786970
	 B(15,18,19)      =         1.899618	     108.840091
	 B(15,18,20)      =         1.913388	     109.629077
	 B(15,18,21)      =         1.976764	     113.260244
	 B(16,15,17)      =         1.860377	     106.591745
	 B(16,15,18)      =         1.898855	     108.796368
	 B(17,15,18)      =         1.903569	     109.066483
	 B(18,21,22)      =         1.899687	     108.844043
	 B(18,21,23)      =         1.918317	     109.911459
	 B(18,21,24)      =         1.976771	     113.260661
	 B(19,18,20)      =         1.851713	     106.095346
	 B(19,18,21)      =         1.899693	     108.844407
	 B(20,18,21)      =         1.918320	     109.911635
	 B(21,24,25)      =         1.898857	     108.796500
	 B(21,24,26)      =         1.903567	     109.066348
	 B(22,21,23)      =         1.851706	     106.094965
	 B(22,21,24)      =         1.899613	     108.839827
	 B(23,21,24)      =         1.913401	     109.629780
	 B(25,24,26)      =         1.860374	     106.591555
	 D(1,9,15,16)     =         3.140022	     179.909996
	 D(1,9,15,17)     =         1.117978	      64.055426
	 D(1,9,15,18)     =        -1.013860	     -58.089913
	 D(2,1,9,10)      =        -3.104919	    -177.898726
	 D(2,1,9,11)      =         1.153582	      66.095400
	 D(2,1,9,15)      =        -0.960244	     -55.017948
	 D(3,1,9,10)      =         1.083450	      62.077102
	 D(3,1,9,11)      =        -0.941235	     -53.928772
	 D(3,1,9,15)      =        -3.055061	    -175.042120
	 D(4,1,9,10)      =        -1.012019	     -57.984427
	 D(4,1,9,11)      =        -3.036704	    -173.990301
	 D(4,1,9,15)      =         1.132655	      64.896351
	 D(5,12,24,21)    =        -1.013757	     -58.083984
	 D(5,12,24,25)    =         3.140117	     179.915445
	 D(5,12,24,26)    =         1.118083	      64.061410
	 D(6,5,12,13)     =        -3.036707	    -173.990487
	 D(6,5,12,14)     =        -1.012026	     -57.984842
	 D(6,5,12,24)     =         1.132655	      64.896367
	 D(7,5,12,13)     =         1.153577	      66.095075
	 D(7,5,12,14)     =        -3.104928	    -177.899279
	 D(7,5,12,24)     =        -0.960246	     -55.018071
	 D(8,5,12,13)     =        -0.941239	     -53.929036
	 D(8,5,12,14)     =         1.083441	      62.076609
	 D(8,5,12,24)     =        -3.055062	    -175.042182
	 D(9,15,18,19)    =        -3.128211	    -179.233285
	 D(9,15,18,20)    =         1.136694	      65.127793
	 D(9,15,18,21)    =        -1.012734	     -58.025401
	 D(10,9,15,16)    =        -1.000047	     -57.298446
	 D(10,9,15,17)    =        -3.022090	    -173.153016
	 D(10,9,15,18)    =         1.129257	      64.701645
	 D(11,9,15,16)    =         1.019410	      58.407890
	 D(11,9,15,17)    =        -1.002634	     -57.446680
	 D(11,9,15,18)    =        -3.134472	    -179.592019
	 D(12,24,21,18)   =        -1.012793	     -58.028780
	 D(12,24,21,22)   =        -3.128263	    -179.236288
	 D(12,24,21,23)   =         1.136646	      65.125006
	 D(13,12,24,21)   =        -3.134364	    -179.585816
	 D(13,12,24,25)   =         1.019510	      58.413613
	 D(13,12,24,26)   =        -1.002524	     -57.440421
	 D(14,12,24,21)   =         1.129369	      64.708060
	 D(14,12,24,25)   =        -0.999943	     -57.292512
	 D(14,12,24,26)   =        -3.021977	    -173.146546
	 D(15,18,21,22)   =        -0.854329	     -48.949418
	 D(15,18,21,23)   =         1.166702	      66.847118
	 D(15,18,21,24)   =        -2.969757	    -170.154551
	 D(16,15,18,19)   =        -0.996698	     -57.106604
	 D(16,15,18,20)   =        -3.014978	    -172.745526
	 D(16,15,18,21)   =         1.118778	      64.101280
	 D(17,15,18,19)   =         1.026115	      58.792082
	 D(17,15,18,20)   =        -0.992165	     -56.846840
	 D(17,15,18,21)   =         3.141593	     180.000000
	 D(18,21,24,25)   =         1.118724	      64.098179
	 D(18,21,24,26)   =         3.141534	     179.996638
	 D(19,18,21,22)   =         1.261106	      72.256034
	 D(19,18,21,23)   =        -3.001049	    -171.947430
	 D(19,18,21,24)   =        -0.854323	     -48.949099
	 D(20,18,21,22)   =        -3.001036	    -171.946669
	 D(20,18,21,23)   =        -0.980005	     -56.150132
	 D(20,18,21,24)   =         1.166721	      66.848198
	 D(22,21,24,25)   =        -0.996746	     -57.109329
	 D(22,21,24,26)   =         1.026064	      58.789130
	 D(23,21,24,25)   =        -3.015022	    -172.748035
	 D(23,21,24,26)   =        -0.992212	     -56.849576
	 R(1,21)          =         6.903767	       3.653316
	 R(5,18)          =         6.903742	       3.653303

	Current energy   :      -314.9839440810

	Generating empirical Hessian (Schlegel '84) for each fragment.
	Taking RFO optimization step.
	Going to follow RFO solution 1.
	Using RFO vector 1.
	Norm of target step-size    0.00103
	Projected energy change by RFO approximation:         0.0000000045

	Back-transformation to cartesian coordinates...
	Successfully converged to displaced geometry.
	First geometry is closer to target in internal coordinates, so am using that one.
	First geometry has RMS(Delta(q)) = 4.51e-07

	--- Internal Coordinate Step in ANG or DEG, aJ/ANG or AJ/DEG ---
	 ---------------------------------------------------------------------------
	   Coordinate                Previous        Force       Change         New 
	   ----------                --------       ------       ------       ------
	    1 R(1,2)          =      1.091454     0.000009     0.000002     1.091456
	    2 R(1,3)          =      1.089742     0.000008     0.000001     1.089744
	    3 R(1,4)          =      1.090094     0.000009     0.000002     1.090095
	    4 R(1,9)          =      1.524569    -0.000004    -0.000001     1.524569
	    5 R(5,6)          =      1.090095     0.000001     0.000000     1.090096
	    6 R(5,7)          =      1.091456     0.000003     0.000001     1.091456
	    7 R(5,8)          =      1.089744     0.000003     0.000001     1.089744
	    8 R(5,12)         =      1.524570     0.000000    -0.000002     1.524568
	    9 R(9,10)         =      1.092099     0.000006     0.000001     1.092101
	   10 R(9,11)         =      1.092252     0.000005     0.000001     1.092253
	   11 R(9,15)         =      1.528442    -0.000007    -0.000001     1.528440
	   12 R(12,13)        =      1.092253     0.000002     0.000000     1.092253
	   13 R(12,14)        =      1.092101     0.000002     0.000000     1.092101
	   14 R(12,24)        =      1.528443    -0.000004    -0.000003     1.528440
	   15 R(15,16)        =      1.093816     0.000012     0.000002     1.093818
	   16 R(15,17)        =      1.094045     0.000009     0.000002     1.094047
	   17 R(15,18)        =      1.528313     0.000017     0.000004     1.528317
	   18 R(18,19)        =      1.094521     0.000004     0.000001     1.094522
	   19 R(18,20)        =      1.092635     0.000016     0.000003     1.092638
	   20 R(18,21)        =      1.524930    -0.000002    -0.000002     1.524928
	   21 R(21,22)        =      1.094521     0.000008     0.000002     1.094522
	   22 R(21,23)        =      1.092637     0.000003     0.000001     1.092637
	   23 R(21,24)        =      1.528320    -0.000023    -0.000007     1.528313
	   24 R(24,25)        =      1.093817     0.000003     0.000001     1.093818
	   25 R(24,26)        =      1.094047     0.000001     0.000000     1.094047
	   26 B(1,9,10)       =    109.626136     0.000000     0.000074   109.626210
	   27 B(1,9,11)       =    109.289217     0.000000     0.000050   109.289267
	   28 B(1,9,15)       =    113.105872    -0.000000    -0.000272   113.105600
	   29 B(2,1,3)        =    107.924932     0.000000     0.000031   107.924964
	   30 B(2,1,4)        =    107.678507    -0.000000    -0.000024   107.678483
	   31 B(2,1,9)        =    110.774421     0.000000     0.000015   110.774436
	   32 B(3,1,4)        =    107.559005     0.000000     0.000047   107.559053
	   33 B(3,1,9)        =    111.215734    -0.000000    -0.000131   111.215602
	   34 B(4,1,9)        =    111.518943     0.000000     0.000065   111.519008
	   35 B(5,12,13)      =    109.288942    -0.000000     0.000216   109.289159
	   36 B(5,12,14)      =    109.626315    -0.000000    -0.000147   109.626168
	   37 B(5,12,24)      =    113.106147     0.000000    -0.000298   113.105849
	   38 B(6,5,7)        =    107.678536    -0.000000    -0.000053   107.678483
	   39 B(6,5,8)        =    107.558994     0.000000     0.000084   107.559077
	   40 B(6,5,12)       =    111.519024     0.000000     0.000071   111.519095
	   41 B(7,5,8)        =    107.924938     0.000000    -0.000002   107.924937
	   42 B(7,5,12)       =    110.774492     0.000000     0.000003   110.774495
	   43 B(8,5,12)       =    111.215560    -0.000000    -0.000101   111.215459
	   44 B(9,15,16)      =    109.027815    -0.000000     0.000199   109.028014
	   45 B(9,15,17)      =    108.754388    -0.000000    -0.000546   108.753842
	   46 B(9,15,18)      =    114.324075     0.000000     0.000085   114.324160
	   47 B(10,9,11)      =    106.191733    -0.000000     0.000055   106.191788
	   48 B(10,9,15)      =    109.786888     0.000000     0.000063   109.786952
	   49 B(11,9,15)      =    108.600395     0.000000     0.000050   108.600445
	   50 B(12,24,21)     =    114.324774    -0.000000    -0.001063   114.323711
	   51 B(12,24,25)     =    109.027582     0.000000     0.000196   109.027779
	   52 B(12,24,26)     =    108.754055     0.000000     0.000408   108.754463
	   53 B(13,12,14)     =    106.191589     0.000000     0.000282   106.191871
	   54 B(13,12,24)     =    108.600246    -0.000000     0.000037   108.600284
	   55 B(14,12,24)     =    109.786970    -0.000000    -0.000050   109.786920
	   56 B(15,18,19)     =    108.840091    -0.000000    -0.000166   108.839925
	   57 B(15,18,20)     =    109.629077     0.000000     0.000473   109.629550
	   58 B(15,18,21)     =    113.260244     0.000000     0.000332   113.260576
	   59 B(16,15,17)     =    106.591745     0.000000     0.000024   106.591769
	   60 B(16,15,18)     =    108.796368     0.000000     0.000655   108.797023
	   61 B(17,15,18)     =    109.066483    -0.000000    -0.000421   109.066061
	   62 B(18,21,22)     =    108.844043     0.000000     0.000564   108.844607
	   63 B(18,21,23)     =    109.911459     0.000000    -0.000017   109.911442
	   64 B(18,21,24)     =    113.260661    -0.000000    -0.000771   113.259890
	   65 B(19,18,20)     =    106.095346     0.000000    -0.000136   106.095210
	   66 B(19,18,21)     =    108.844407    -0.000000    -0.000407   108.844000
	   67 B(20,18,21)     =    109.911635    -0.000000    -0.000136   109.911499
	   68 B(21,24,25)     =    108.796500    -0.000000     0.000137   108.796637
	   69 B(21,24,26)     =    109.066348     0.000000     0.000068   109.066416
	   70 B(22,21,23)     =    106.094965     0.000000     0.000480   106.095446
	   71 B(22,21,24)     =    108.839827     0.000000     0.000349   108.840176
	   72 B(23,21,24)     =    109.629780    -0.000000    -0.000509   109.629271
	   73 B(25,24,26)     =    106.591555     0.000000     0.000348   106.591902
	   74 D(1,9,15,16)    =    179.909996    -0.000000     0.011091   179.921087
	   75 D(1,9,15,17)    =     64.055426     0.000000     0.011253    64.066679
	   76 D(1,9,15,18)    =    -58.089913     0.000000     0.012148   -58.077765
	   77 D(2,1,9,10)     =   -177.898726     0.000000    -0.001531  -177.900257
	   78 D(2,1,9,11)     =     66.095400    -0.000000    -0.001667    66.093733
	   79 D(2,1,9,15)     =    -55.017948    -0.000000    -0.001584   -55.019532
	   80 D(3,1,9,10)     =     62.077102     0.000000    -0.001493    62.075609
	   81 D(3,1,9,11)     =    -53.928772    -0.000000    -0.001629   -53.930401
	   82 D(3,1,9,15)     =   -175.042120    -0.000000    -0.001547  -175.043666
	   83 D(4,1,9,10)     =    -57.984427     0.000000    -0.001508   -57.985935
	   84 D(4,1,9,11)     =   -173.990301    -0.000000    -0.001644  -173.991945
	   85 D(4,1,9,15)     =     64.896351    -0.000000    -0.001561    64.894790
	   86 D(5,12,24,21)   =    -58.083984    -0.000000    -0.007764   -58.091747
	   87 D(5,12,24,25)   =    179.915445    -0.000000    -0.007356   179.908089
	   88 D(5,12,24,26)   =     64.061410    -0.000000    -0.008099    64.053311
	   89 D(6,5,12,13)    =   -173.990487    -0.000000    -0.000189  -173.990676
	   90 D(6,5,12,14)    =    -57.984842    -0.000000     0.000190   -57.984652
	   91 D(6,5,12,24)    =     64.896367     0.000000    -0.000192    64.896176
	   92 D(7,5,12,13)    =     66.095075    -0.000000    -0.000170    66.094905
	   93 D(7,5,12,14)    =   -177.899279    -0.000000     0.000209  -177.899071
	   94 D(7,5,12,24)    =    -55.018071     0.000000    -0.000173   -55.018244
	   95 D(8,5,12,13)    =    -53.929036    -0.000000    -0.000103   -53.929140
	   96 D(8,5,12,14)    =     62.076609     0.000000     0.000276    62.076884
	   97 D(8,5,12,24)    =   -175.042182     0.000000    -0.000106  -175.042288
	   98 D(9,15,18,19)   =   -179.233285    -0.000000    -0.012066  -179.245351
	   99 D(9,15,18,20)   =     65.127793    -0.000000    -0.012071    65.115722
	  100 D(9,15,18,21)   =    -58.025401    -0.000000    -0.012483   -58.037884
	  101 D(10,9,15,16)   =    -57.298446    -0.000000     0.011043   -57.287403
	  102 D(10,9,15,17)   =   -173.153016     0.000000     0.011205  -173.141811
	  103 D(10,9,15,18)   =     64.701645     0.000000     0.012100    64.713745
	  104 D(11,9,15,16)   =     58.407890     0.000000     0.011171    58.419061
	  105 D(11,9,15,17)   =    -57.446680     0.000000     0.011333   -57.435347
	  106 D(11,9,15,18)   =   -179.592019     0.000000     0.012228  -179.579791
	  107 D(12,24,21,18)  =    -58.028780    -0.000000     0.003510   -58.025270
	  108 D(12,24,21,22)  =   -179.236288    -0.000000     0.003053  -179.233235
	  109 D(12,24,21,23)  =     65.125006    -0.000000     0.002563    65.127569
	  110 D(13,12,24,21)  =   -179.585816    -0.000000    -0.007869  -179.593685
	  111 D(13,12,24,25)  =     58.413613    -0.000000    -0.007461    58.406152
	  112 D(13,12,24,26)  =    -57.440421    -0.000000    -0.008205   -57.448626
	  113 D(14,12,24,21)  =     64.708060    -0.000000    -0.008200    64.699860
	  114 D(14,12,24,25)  =    -57.292512    -0.000000    -0.007792   -57.300304
	  115 D(14,12,24,26)  =   -173.146546    -0.000000    -0.008536  -173.155082
	  116 D(15,18,21,22)  =    -48.949418    -0.000000    -0.006195   -48.955614
	  117 D(15,18,21,23)  =     66.847118     0.000000    -0.005308    66.841810
	  118 D(15,18,21,24)  =   -170.154551    -0.000000    -0.006531  -170.161082
	  119 D(16,15,18,19)  =    -57.106604    -0.000000    -0.011261   -57.117864
	  120 D(16,15,18,20)  =   -172.745526    -0.000000    -0.011265  -172.756792
	  121 D(16,15,18,21)  =     64.101280    -0.000000    -0.011678    64.089602
	  122 D(17,15,18,19)  =     58.792082     0.000000    -0.011102    58.780980
	  123 D(17,15,18,20)  =    -56.846840     0.000000    -0.011107   -56.857947
	  124 D(17,15,18,21)  =    180.000000    -0.000000    -0.011553   179.988447
	  125 D(18,21,24,25)  =     64.098179    -0.000000     0.003138    64.101316
	  126 D(18,21,24,26)  =    179.996638    -0.000000     0.003362   180.000000
	  127 D(19,18,21,22)  =     72.256034    -0.000000    -0.006477    72.249557
	  128 D(19,18,21,23)  =   -171.947430     0.000000    -0.005590  -171.953019
	  129 D(19,18,21,24)  =    -48.949099    -0.000000    -0.006812   -48.955912
	  130 D(20,18,21,22)  =   -171.946669    -0.000000    -0.006946  -171.953614
	  131 D(20,18,21,23)  =    -56.150132    -0.000000    -0.006058   -56.156191
	  132 D(20,18,21,24)  =     66.848198    -0.000000    -0.007281    66.840917
	  133 D(22,21,24,25)  =    -57.109329    -0.000000     0.002681   -57.106648
	  134 D(22,21,24,26)  =     58.789130    -0.000000     0.003207    58.792337
	  135 D(23,21,24,25)  =   -172.748035    -0.000000     0.002191  -172.745844
	  136 D(23,21,24,26)  =    -56.849576    -0.000000     0.002717   -56.846859
	  137 R(1,21)         =      3.653316     0.000002     0.000008     3.653324
	  138 R(5,18)         =      3.653303    -0.000010     0.000026     3.653329
	 ---------------------------------------------------------------------------

  ==> Convergence Check <==

  Measures of convergence in internal coordinates in au.
  Criteria marked as inactive (o), active & met (*), and active & unmet ( ).
  --------------------------------------------------------------------------------------------- ~
   Step     Total Energy     Delta E     MAX Force     RMS Force      MAX Disp      RMS Disp    ~
  --------------------------------------------------------------------------------------------- ~
    Convergence Criteria             o    2.00e-06 *    1.00e-06 *    6.00e-06 *    4.00e-06 *  ~
  --------------------------------------------------------------------------------------------- ~
      1    -314.98394408   -3.15e+02 o    2.74e-06      5.65e-07 *    2.18e-04      8.74e-05    ~
  ---------------------------------------------------------------------------------------------

	Writing optimization data to binary file.
	Structure for next step:
	Cartesian Geometry (in Angstrom)
	    C    -2.2618879027   0.1263639365  -1.5459878085
	    H    -2.6185556921   1.1548362689  -1.6254147856
	    H    -2.7777834978  -0.4667617872  -2.3007031247
	    H    -1.2005466872   0.1239154298  -1.7946983084
	    C     2.2646028000  -0.1275015126  -1.5420459353
	    H     1.2037044030  -0.1254419377  -1.7926423566
	    H     2.6216047074  -1.1559663687  -1.6200624342
	    H     2.7817267932   0.4651516480  -2.2962921755
	    C    -2.5095848688  -0.4253194442  -0.1464874907
	    H    -2.1127400016  -1.4403759061  -0.0767870023
	    H    -3.5853653932  -0.5064900396   0.0241697583
	    C     2.5097128939   0.4252879365  -0.1425271154
	    H     3.5851740886   0.5068109410   0.0299667925
	    H     2.1125342184   1.4403145183  -0.0742936325
	    C    -1.9051983607   0.4433826787   0.9563285501
	    H    -2.1225025221  -0.0107517495   1.9273993012
	    H    -2.4025727341   1.4178059076   0.9488343280
	    C    -0.3959336520   0.6523137731   0.8370817497
	    H    -0.0576369185   1.2715471747   1.6737912598
	    H    -0.1745569582   1.2207824563  -0.0693914805
	    C     0.3945060120  -0.6517603974   0.8383091150
	    H     0.0548235901  -1.2702717564   1.6749919008
	    H     0.1746460731  -1.2210143386  -0.0680393137
	    C     1.9035642390  -0.4427062856   0.9598792523
	    H     2.1192625322   0.0120895003   1.9309985034
	    H     2.4009832896  -1.4171171995   0.9538529628
			--------------------------
			 OPTKING Finished Execution 
			--------------------------

    Structure for next step:
    Molecular point group: c1
    Full point group: C1

    Geometry (in Angstrom), charge = 0, multiplicity = 1:

    C           -2.261884314390     0.126365831987    -1.545990404993
    H           -2.618552103863     1.154838164411    -1.625417382079
    H           -2.777779909500    -0.466759891732    -2.300705721217
    H           -1.200543098874     0.123917325296    -1.794700904919
    C            2.264606388323    -0.127499617122    -1.542048531788
    H            1.203707991264    -0.125440042174    -1.792644953045
    H            2.621608295701    -1.155964473211    -1.620065030674
    H            2.781730381472     0.465153543513    -2.296294772018
    C           -2.509581280526    -0.425317548718    -0.146490087214
    H           -2.112736413349    -1.440374010592    -0.076789598765
    H           -3.585361804941    -0.506488144156     0.024167161849
    C            2.509716482207     0.425289831997    -0.142529711904
    H            3.585177676868     0.506812836533     0.029964196006
    H            2.112537806692     1.440316413750    -0.074296228978
    C           -1.905194772437     0.443384574181     0.956325953662
    H           -2.122498933840    -0.010749854021     1.927396704707
    H           -2.402569145791     1.417807803098     0.948831731542
    C           -0.395930063700     0.652315668571     0.837079153205
    H           -0.057633330256     1.271549070145     1.673788663321
    H           -0.174553369954     1.220784351806    -0.069394076923
    C            0.394509600325    -0.651758501898     0.838306518525
    H            0.054827178417    -1.270269860928     1.674989304299
    H            0.174649661359    -1.221012443064    -0.068041910136
    C            1.903567827310    -0.442704390124     0.959876655831
    H            2.119266120435     0.012091395836     1.930995906948
    H            2.400986877897    -1.417115304054     0.953850366324

gradient() will perform analytic gradient computation.

*** tstart() called on wr42
*** at Wed Sep 21 05:03:16 2016


         ---------------------------------------------------------
                                   SCF
            by Justin Turney, Rob Parrish, and Andy Simmonett
                              RHF Reference
                       12 Threads,  60000 MiB Core
         ---------------------------------------------------------

  ==> Geometry <==

    Molecular point group: c1
    Full point group: C1

    Geometry (in Angstrom), charge = 0, multiplicity = 1:

       Center              X                  Y                   Z               Mass       
    ------------   -----------------  -----------------  -----------------  -----------------
           C         -2.261884314390     0.126365831987    -1.545990404993    12.000000000000
           H         -2.618552103863     1.154838164411    -1.625417382079     1.007825032070
           H         -2.777779909500    -0.466759891732    -2.300705721217     1.007825032070
           H         -1.200543098874     0.123917325296    -1.794700904919     1.007825032070
           C          2.264606388323    -0.127499617122    -1.542048531788    12.000000000000
           H          1.203707991264    -0.125440042174    -1.792644953045     1.007825032070
           H          2.621608295701    -1.155964473211    -1.620065030674     1.007825032070
           H          2.781730381472     0.465153543513    -2.296294772018     1.007825032070
           C         -2.509581280526    -0.425317548718    -0.146490087214    12.000000000000
           H         -2.112736413349    -1.440374010592    -0.076789598765     1.007825032070
           H         -3.585361804941    -0.506488144156     0.024167161849     1.007825032070
           C          2.509716482207     0.425289831997    -0.142529711904    12.000000000000
           H          3.585177676868     0.506812836533     0.029964196006     1.007825032070
           H          2.112537806692     1.440316413750    -0.074296228978     1.007825032070
           C         -1.905194772437     0.443384574181     0.956325953662    12.000000000000
           H         -2.122498933840    -0.010749854021     1.927396704707     1.007825032070
           H         -2.402569145791     1.417807803098     0.948831731542     1.007825032070
           C         -0.395930063700     0.652315668571     0.837079153205    12.000000000000
           H         -0.057633330256     1.271549070145     1.673788663321     1.007825032070
           H         -0.174553369954     1.220784351806    -0.069394076923     1.007825032070
           C          0.394509600325    -0.651758501898     0.838306518525    12.000000000000
           H          0.054827178417    -1.270269860928     1.674989304299     1.007825032070
           H          0.174649661359    -1.221012443064    -0.068041910136     1.007825032070
           C          1.903567827310    -0.442704390124     0.959876655831    12.000000000000
           H          2.119266120435     0.012091395836     1.930995906948     1.007825032070
           H          2.400986877897    -1.417115304054     0.953850366324     1.007825032070

  Running in c1 symmetry.

  Rotational constants: A =      0.09821  B =      0.03436  C =      0.02871 [cm^-1]
  Rotational constants: A =   2944.35782  B =   1029.93934  C =    860.79579 [MHz]
  Nuclear repulsion =  404.725510886326958

  Charge       = 0
  Multiplicity = 1
  Electrons    = 66
  Nalpha       = 33
  Nbeta        = 33

  ==> Algorithm <==

  SCF Algorithm Type is DF.
  DIIS enabled.
  MOM disabled.
  Fractional occupation disabled.
  Guess Type is READ.
  Energy threshold   = 1.00e-10
  Density threshold  = 1.00e-10
  Integral threshold = 0.00e+00

  ==> Primary Basis <==

  Basis Set: AUG-CC-PVTZ
    Number of shells: 274
    Number of basis function: 782
    Number of Cartesian functions: 890
    Spherical Harmonics?: true
    Max angular momentum: 3

  ==> Pre-Iterations <==

   -------------------------------------------------------
    Irrep   Nso     Nmo     Nalpha   Nbeta   Ndocc  Nsocc
   -------------------------------------------------------
     A        782     782       0       0       0       0
   -------------------------------------------------------
    Total     782     782      33      33      33       0
   -------------------------------------------------------

  ==> Integral Setup <==

  ==> DFJK: Density-Fitted J/K Matrices <==

    J tasked:                  Yes
    K tasked:                  Yes
    wK tasked:                  No
    OpenMP threads:             12
    Integrals threads:          12
    Memory (MB):             42915
    Algorithm:                Core
    Integral Cache:           NONE
    Schwarz Cutoff:          1E-12
    Fitting Condition:       1E-12

   => Auxiliary Basis Set <=

  Basis Set: 
    Number of shells: 492
    Number of basis function: 1660
    Number of Cartesian functions: 2038
    Spherical Harmonics?: true
    Max angular momentum: 4

  Minimum eigenvalue in the overlap matrix is 1.6156628551E-06.
  Using Symmetric Orthogonalization.
  SCF Guess: Reading in previously saved MOs, projecting if necessary.

  Using orbitals from previous SCF, no projection.
  Recomputing DOCC and SOCC from number of alpha and beta electrons from previous calculation.
              A 
    DOCC [    33 ]

  ==> Iterations <==

                           Total Energy        Delta E     RMS |[F,P]|

   @DF-RHF iter   0:  -313.53928471183207   -3.13539e+02   6.38788e-07 
   @DF-RHF iter   1:  -313.53941794690155   -1.33235e-04   1.35026e-07 
   @DF-RHF iter   2:  -313.53941795643328   -9.53173e-09   5.54763e-08 DIIS
   @DF-RHF iter   3:  -313.53941795781287   -1.37959e-09   2.24006e-08 DIIS
   @DF-RHF iter   4:  -313.53941795811062   -2.97746e-10   2.70703e-09 DIIS
   @DF-RHF iter   5:  -313.53941795811642   -5.79803e-12   8.51145e-10 DIIS
   @DF-RHF iter   6:  -313.53941795811642    0.00000e+00   2.23126e-10 DIIS
   @DF-RHF iter   7:  -313.53941795811608    3.41061e-13   5.11170e-11 DIIS

  ==> Post-Iterations <==

    Orbital Energies (a.u.)
    -----------------------

    Doubly Occupied:                                                      

       1A    -11.212148     2A    -11.212147     3A    -11.210712  
       4A    -11.210687     5A    -11.209480     6A    -11.208878  
       7A    -11.207323     8A    -11.207322     9A     -1.096085  
      10A     -1.060257    11A     -1.003510    12A     -0.947512  
      13A     -0.887967    14A     -0.842963    15A     -0.781968  
      16A     -0.743604    17A     -0.648207    18A     -0.634972  
      19A     -0.613147    20A     -0.604648    21A     -0.568738  
      22A     -0.550008    23A     -0.542985    24A     -0.537791  
      25A     -0.522790    26A     -0.501199    27A     -0.495271  
      28A     -0.471659    29A     -0.462662    30A     -0.459125  
      31A     -0.444415    32A     -0.438342    33A     -0.435802  

    Virtual:                                                              

      34A      0.029451    35A      0.032358    36A      0.034532  
      37A      0.035131    38A      0.046889    39A      0.047189  
      40A      0.051065    41A      0.053868    42A      0.054316  
      43A      0.067815    44A      0.071214    45A      0.071579  
      46A      0.074961    47A      0.079185    48A      0.084914  
      49A      0.090148    50A      0.101253    51A      0.105085  
      52A      0.115237    53A      0.118259    54A      0.119111  
      55A      0.125900    56A      0.128477    57A      0.129152  
      58A      0.133386    59A      0.133487    60A      0.140108  
      61A      0.143636    62A      0.145717    63A      0.151887  
      64A      0.155394    65A      0.158157    66A      0.159586  
      67A      0.163936    68A      0.165413    69A      0.170487  
      70A      0.176857    71A      0.177633    72A      0.187275  
      73A      0.190782    74A      0.191261    75A      0.193758  
      76A      0.208428    77A      0.213938    78A      0.220835  
      79A      0.224905    80A      0.228284    81A      0.239703  
      82A      0.242256    83A      0.248240    84A      0.260809  
      85A      0.269764    86A      0.279474    87A      0.283414  
      88A      0.286518    89A      0.286664    90A      0.296796  
      91A      0.298307    92A      0.307113    93A      0.307535  
      94A      0.310132    95A      0.316638    96A      0.319581  
      97A      0.324884    98A      0.326135    99A      0.331875  
     100A      0.336397   101A      0.342031   102A      0.345093  
     103A      0.346646   104A      0.349504   105A      0.350841  
     106A      0.360498   107A      0.365174   108A      0.369421  
     109A      0.373196   110A      0.376292   111A      0.377433  
     112A      0.381811   113A      0.385166   114A      0.388126  
     115A      0.391950   116A      0.397922   117A      0.398210  
     118A      0.402375   119A      0.414274   120A      0.414842  
     121A      0.422295   122A      0.427922   123A      0.431508  
     124A      0.431558   125A      0.436508   126A      0.439870  
     127A      0.444835   128A      0.445665   129A      0.447737  
     130A      0.452118   131A      0.458160   132A      0.468185  
     133A      0.470203   134A      0.470304   135A      0.477890  
     136A      0.482514   137A      0.482792   138A      0.487856  
     139A      0.491819   140A      0.496262   141A      0.497473  
     142A      0.498162   143A      0.505302   144A      0.512562  
     145A      0.515536   146A      0.519240   147A      0.524155  
     148A      0.524883   149A      0.533264   150A      0.534734  
     151A      0.536675   152A      0.544455   153A      0.546660  
     154A      0.554237   155A      0.559826   156A      0.564540  
     157A      0.564894   158A      0.570076   159A      0.571018  
     160A      0.573596   161A      0.582509   162A      0.586982  
     163A      0.590014   164A      0.590904   165A      0.599195  
     166A      0.603346   167A      0.607636   168A      0.608560  
     169A      0.612501   170A      0.622033   171A      0.632516  
     172A      0.632621   173A      0.642499   174A      0.643425  
     175A      0.654155   176A      0.656288   177A      0.659925  
     178A      0.662479   179A      0.668102   180A      0.670658  
     181A      0.675488   182A      0.688350   183A      0.692691  
     184A      0.698224   185A      0.705859   186A      0.705884  
     187A      0.709760   188A      0.720310   189A      0.722591  
     190A      0.726666   191A      0.737724   192A      0.749432  
     193A      0.751540   194A      0.751749   195A      0.758948  
     196A      0.768238   197A      0.773401   198A      0.773960  
     199A      0.779503   200A      0.788957   201A      0.802875  
     202A      0.804090   203A      0.809248   204A      0.820005  
     205A      0.826858   206A      0.843549   207A      0.844888  
     208A      0.846654   209A      0.849622   210A      0.862773  
     211A      0.870926   212A      0.875519   213A      0.884264  
     214A      0.887610   215A      0.893549   216A      0.895315  
     217A      0.903035   218A      0.906461   219A      0.916748  
     220A      0.922024   221A      0.925999   222A      0.935068  
     223A      0.936842   224A      0.945327   225A      0.947683  
     226A      0.959026   227A      0.962729   228A      0.966292  
     229A      0.972105   230A      0.974613   231A      0.978846  
     232A      0.982810   233A      0.984354   234A      0.991263  
     235A      0.991766   236A      0.993738   237A      1.004255  
     238A      1.008476   239A      1.018787   240A      1.024932  
     241A      1.028170   242A      1.032092   243A      1.036610  
     244A      1.039439   245A      1.044714   246A      1.048427  
     247A      1.056033   248A      1.059693   249A      1.061916  
     250A      1.075319   251A      1.081274   252A      1.081643  
     253A      1.094576   254A      1.098645   255A      1.101444  
     256A      1.108399   257A      1.114635   258A      1.127087  
     259A      1.133135   260A      1.138167   261A      1.141674  
     262A      1.144875   263A      1.148914   264A      1.162559  
     265A      1.165375   266A      1.166415   267A      1.170675  
     268A      1.173210   269A      1.182583   270A      1.185697  
     271A      1.189603   272A      1.195037   273A      1.197818  
     274A      1.204518   275A      1.207180   276A      1.210375  
     277A      1.214504   278A      1.221601   279A      1.226169  
     280A      1.235830   281A      1.247211   282A      1.248371  
[...]
	Successfully converged to displaced geometry.

	--- Internal Coordinate Step in ANG or DEG, aJ/ANG or AJ/DEG ---
	 ---------------------------------------------------------------------------
	   Coordinate                Previous        Force       Change         New 
	   ----------                --------       ------       ------       ------
	    1 R(1,2)          =      1.091455     0.000002    -0.000000     1.091455
	    2 R(1,3)          =      1.089743     0.000002    -0.000000     1.089743
	    3 R(1,4)          =      1.090095     0.000003    -0.000000     1.090095
	    4 R(1,9)          =      1.524569     0.000000    -0.000000     1.524569
	    5 R(5,6)          =      1.090095     0.000003     0.000000     1.090095
	    6 R(5,7)          =      1.091456     0.000003     0.000000     1.091456
	    7 R(5,8)          =      1.089744     0.000002     0.000000     1.089744
	    8 R(5,12)         =      1.524569     0.000001     0.000000     1.524569
	    9 R(9,10)         =      1.092100     0.000004     0.000000     1.092100
	   10 R(9,11)         =      1.092253     0.000001    -0.000000     1.092253
	   11 R(9,15)         =      1.528441     0.000001     0.000000     1.528441
	   12 R(12,13)        =      1.092253     0.000002    -0.000000     1.092253
	   13 R(12,14)        =      1.092100     0.000003    -0.000000     1.092100
	   14 R(12,24)        =      1.528441     0.000000    -0.000000     1.528441
	   15 R(15,16)        =      1.093817     0.000004     0.000000     1.093817
	   16 R(15,17)        =      1.094046     0.000004     0.000000     1.094046
	   17 R(15,18)        =      1.528315     0.000003     0.000000     1.528315
	   18 R(18,19)        =      1.094521     0.000003     0.000000     1.094521
	   19 R(18,20)        =      1.092636     0.000006     0.000000     1.092636
	   20 R(18,21)        =      1.524929     0.000003    -0.000000     1.524929
	   21 R(21,22)        =      1.094521     0.000003    -0.000000     1.094521
	   22 R(21,23)        =      1.092636     0.000005    -0.000000     1.092636
	   23 R(21,24)        =      1.528315    -0.000000    -0.000000     1.528315
	   24 R(24,25)        =      1.093817     0.000002    -0.000000     1.093817
	   25 R(24,26)        =      1.094046     0.000003    -0.000000     1.094046
	   26 B(1,9,10)       =    109.626199     0.000000     0.000013   109.626211
	   27 B(1,9,11)       =    109.289113     0.000000     0.000001   109.289113
	   28 B(1,9,15)       =    113.105938    -0.000000    -0.000030   113.105908
	   29 B(2,1,3)        =    107.924942     0.000000     0.000006   107.924948
	   30 B(2,1,4)        =    107.678503    -0.000000     0.000012   107.678515
	   31 B(2,1,9)        =    110.774441     0.000000     0.000004   110.774445
	   32 B(3,1,4)        =    107.559030     0.000000    -0.000002   107.559029
	   33 B(3,1,9)        =    111.215584    -0.000000    -0.000009   111.215576
	   34 B(4,1,9)        =    111.519044     0.000000    -0.000011   111.519033
	   35 B(5,12,13)      =    109.289086    -0.000000     0.000001   109.289087
	   36 B(5,12,14)      =    109.626209     0.000000    -0.000014   109.626195
	   37 B(5,12,24)      =    113.105930    -0.000000     0.000014   113.105944
	   38 B(6,5,7)        =    107.678509    -0.000000    -0.000010   107.678499
	   39 B(6,5,8)        =    107.559029     0.000000     0.000005   107.559034
	   40 B(6,5,12)       =    111.519066     0.000000    -0.000002   111.519063
	   41 B(7,5,8)        =    107.924935    -0.000000    -0.000001   107.924934
	   42 B(7,5,12)       =    110.774463     0.000000    -0.000001   110.774462
	   43 B(8,5,12)       =    111.215542    -0.000000     0.000009   111.215552
	   44 B(9,15,16)      =    109.027758     0.000000    -0.000021   109.027737
	   45 B(9,15,17)      =    108.754219    -0.000000    -0.000019   108.754200
	   46 B(9,15,18)      =    114.324261    -0.000000     0.000005   114.324267
	   47 B(10,9,11)      =    106.191734    -0.000000     0.000006   106.191740
	   48 B(10,9,15)      =    109.786925     0.000000     0.000020   109.786944
	   49 B(11,9,15)      =    108.600327     0.000000    -0.000007   108.600320
	   50 B(12,24,21)     =    114.324258    -0.000000    -0.000051   114.324207
	   51 B(12,24,25)     =    109.027707     0.000000     0.000036   109.027743
	   52 B(12,24,26)     =    108.754215    -0.000000     0.000031   108.754246
	   53 B(13,12,14)     =    106.191737     0.000000     0.000011   106.191747
	   54 B(13,12,24)     =    108.600318     0.000000     0.000011   108.600329
	   55 B(14,12,24)     =    109.786955    -0.000000    -0.000022   109.786933
	   56 B(15,18,19)     =    108.839917     0.000000     0.000003   108.839920
	   57 B(15,18,20)     =    109.629490    -0.000000     0.000038   109.629528
	   58 B(15,18,21)     =    113.260281     0.000000     0.000016   113.260297
	   59 B(16,15,17)     =    106.591762    -0.000000    -0.000005   106.591757
	   60 B(16,15,18)     =    108.796539     0.000000     0.000043   108.796582
	   61 B(17,15,18)     =    109.066324     0.000000    -0.000005   109.066319
	   62 B(18,21,22)     =    108.844248    -0.000000     0.000012   108.844259
	   63 B(18,21,23)     =    109.911495     0.000000     0.000026   109.911521
	   64 B(18,21,24)     =    113.260281     0.000000    -0.000034   113.260247
	   65 B(19,18,20)     =    106.095297     0.000000    -0.000006   106.095291
	   66 B(19,18,21)     =    108.844249    -0.000000    -0.000011   108.844238
	   67 B(20,18,21)     =    109.911554    -0.000000    -0.000041   109.911513
	   68 B(21,24,25)     =    108.796583     0.000000    -0.000017   108.796566
	   69 B(21,24,26)     =    109.066341     0.000000    -0.000004   109.066336
	   70 B(22,21,23)     =    106.095276     0.000000     0.000013   106.095289
	   71 B(22,21,24)     =    108.839921     0.000000     0.000015   108.839935
	   72 B(23,21,24)     =    109.629566    -0.000000    -0.000027   109.629539
	   73 B(25,24,26)     =    106.591760    -0.000000     0.000009   106.591769
	   74 D(1,9,15,16)    =    179.912370    -0.000000     0.000039   179.912409
	   75 D(1,9,15,17)    =     64.057904    -0.000000     0.000067    64.057971
	   76 D(1,9,15,18)    =    -58.087231     0.000000     0.000084   -58.087147
	   77 D(2,1,9,10)     =   -177.899178     0.000000     0.000176  -177.899002
	   78 D(2,1,9,11)     =     66.094971    -0.000000     0.000161    66.095132
	   79 D(2,1,9,15)     =    -55.018260     0.000000     0.000190   -55.018071
	   80 D(3,1,9,10)     =     62.076723     0.000000     0.000171    62.076894
	   81 D(3,1,9,11)     =    -53.929128    -0.000000     0.000156   -53.928971
	   82 D(3,1,9,15)     =   -175.042359     0.000000     0.000185  -175.042174
	   83 D(4,1,9,10)     =    -57.984804     0.000000     0.000187   -57.984617
	   84 D(4,1,9,11)     =   -173.990655    -0.000000     0.000172  -173.990483
	   85 D(4,1,9,15)     =     64.896114     0.000000     0.000200    64.896314
	   86 D(5,12,24,21)   =    -58.087300     0.000000     0.000100   -58.087200
	   87 D(5,12,24,25)   =    179.912284    -0.000000     0.000131   179.912415
	   88 D(5,12,24,26)   =     64.057851    -0.000000     0.000083    64.057934
	   89 D(6,5,12,13)    =   -173.990537    -0.000000    -0.000122  -173.990659
	   90 D(6,5,12,14)    =    -57.984692    -0.000000    -0.000117   -57.984809
	   91 D(6,5,12,24)    =     64.896267    -0.000000    -0.000146    64.896121
	   92 D(7,5,12,13)    =     66.095052    -0.000000    -0.000107    66.094945
	   93 D(7,5,12,14)    =   -177.899103     0.000000    -0.000102  -177.899205
	   94 D(7,5,12,24)    =    -55.018144    -0.000000    -0.000131   -55.018275
	   95 D(8,5,12,13)    =    -53.929025    -0.000000    -0.000111   -53.929136
	   96 D(8,5,12,14)    =     62.076820     0.000000    -0.000106    62.076714
	   97 D(8,5,12,24)    =   -175.042221    -0.000000    -0.000135  -175.042356
	   98 D(9,15,18,19)   =   -179.235627    -0.000000    -0.000031  -179.235657
	   99 D(9,15,18,20)   =     65.125380    -0.000000    -0.000046    65.125334
	  100 D(9,15,18,21)   =    -58.028044    -0.000000    -0.000033   -58.028077
	  101 D(10,9,15,16)   =    -57.295917    -0.000000     0.000049   -57.295868
	  102 D(10,9,15,17)   =   -173.150384    -0.000000     0.000077  -173.150307
	  103 D(10,9,15,18)   =     64.704482     0.000000     0.000094    64.704576
	  104 D(11,9,15,16)   =     58.410402    -0.000000     0.000063    58.410465
	  105 D(11,9,15,17)   =    -57.444064     0.000000     0.000091   -57.443973
	  106 D(11,9,15,18)   =   -179.589199     0.000000     0.000108  -179.589091
	  107 D(12,24,21,18)  =    -58.027465    -0.000000    -0.000309   -58.027774
	  108 D(12,24,21,22)  =   -179.235048    -0.000000    -0.000312  -179.235360
	  109 D(12,24,21,23)  =     65.125939    -0.000000    -0.000320    65.125619
	  110 D(13,12,24,21)  =   -179.589223     0.000000     0.000082  -179.589141
	  111 D(13,12,24,25)  =     58.410361     0.000000     0.000113    58.410474
	  112 D(13,12,24,26)  =    -57.444072    -0.000000     0.000065   -57.444007
	  113 D(14,12,24,21)  =     64.704443     0.000000     0.000075    64.704519
	  114 D(14,12,24,25)  =    -57.295973     0.000000     0.000106   -57.295867
	  115 D(14,12,24,26)  =   -173.150406    -0.000000     0.000058  -173.150348
	  116 D(15,18,21,22)  =    -48.949036    -0.000000    -0.000204   -48.949241
	  117 D(15,18,21,23)  =     66.848009    -0.000000    -0.000168    66.847841
	  118 D(15,18,21,24)  =   -170.154183    -0.000000    -0.000209  -170.154391
	  119 D(16,15,18,19)  =    -57.108764    -0.000000    -0.000021   -57.108785
	  120 D(16,15,18,20)  =   -172.747757    -0.000000    -0.000037  -172.747794
	  121 D(16,15,18,21)  =     64.098819    -0.000000    -0.000023    64.098796
	  122 D(17,15,18,19)  =     58.789950    -0.000000    -0.000006    58.789944
	  123 D(17,15,18,20)  =    -56.849043     0.000000    -0.000022   -56.849065
	  124 D(17,15,18,21)  =    179.997533     0.000000    -0.000008   179.997525
	  125 D(18,21,24,25)  =     64.099363    -0.000000    -0.000310    64.099053
	  126 D(18,21,24,26)  =    179.998107    -0.000000    -0.000311   179.997797
	  127 D(19,18,21,22)  =     72.256106    -0.000000    -0.000199    72.255908
	  128 D(19,18,21,23)  =   -171.946849    -0.000000    -0.000162  -171.947011
	  129 D(19,18,21,24)  =    -48.949040    -0.000000    -0.000203   -48.949243
	  130 D(20,18,21,22)  =   -171.946790    -0.000000    -0.000235  -171.947025
	  131 D(20,18,21,23)  =    -56.149745    -0.000000    -0.000198   -56.149943
	  132 D(20,18,21,24)  =     66.848063    -0.000000    -0.000239    66.847824
	  133 D(22,21,24,25)  =    -57.108220    -0.000000    -0.000313   -57.108533
	  134 D(22,21,24,26)  =     58.790524    -0.000000    -0.000314    58.790210
	  135 D(23,21,24,25)  =   -172.747233    -0.000000    -0.000321  -172.747554
	  136 D(23,21,24,26)  =    -56.848489     0.000000    -0.000322   -56.848811
	  137 R(1,21)         =      3.653321    -0.000000    -0.000001     3.653320
	  138 R(5,18)         =      3.653312    -0.000000     0.000002     3.653314
	 ---------------------------------------------------------------------------

  ==> Convergence Check <==

  Measures of convergence in internal coordinates in au.
  Criteria marked as inactive (o), active & met (*), and active & unmet ( ).
  ---------------------------------------------------------------------------------------------
   Step     Total Energy     Delta E     MAX Force     RMS Force      MAX Disp      RMS Disp   
  ---------------------------------------------------------------------------------------------
    Convergence Criteria             o    2.00e-06 *    1.00e-06 *    6.00e-06 *    4.00e-06 *
  ---------------------------------------------------------------------------------------------
     31    -314.98394409   -7.72e-09 o    7.14e-07 *    1.89e-07 *    5.62e-06 *    2.04e-06 *  ~
  ---------------------------------------------------------------------------------------------


  **** Optimization is complete! (in 31 steps) ****

  ==> Optimization Summary <==

  Measures of convergence in internal coordinates in au.
  --------------------------------------------------------------------------------------------------------------- ~
   Step         Total Energy             Delta E       MAX Force       RMS Force        MAX Disp        RMS Disp  ~
  --------------------------------------------------------------------------------------------------------------- ~
      1    -314.983944081036   -314.983944081036      0.00000274      0.00000056      0.00021788      0.00008740  ~
      2    -314.983944081780     -0.000000000744      0.00000370      0.00000108      0.00016920      0.00006617  ~
      3    -314.983944083229     -0.000000001449      0.00000251      0.00000076      0.00032755      0.00011553  ~
      4    -314.983944075048      0.000000008181      0.00001180      0.00000266      0.00029259      0.00010678  ~
      5    -314.983944080289     -0.000000005241      0.00000076      0.00000020      0.00003539      0.00001277  ~
      6    -314.983944080936     -0.000000000647      0.00000055      0.00000019      0.00003365      0.00001272  ~
      7    -314.983944084401     -0.000000003465      0.00000117      0.00000032      0.00009545      0.00002965  ~
      8    -314.983944083155      0.000000001246      0.00000251      0.00000048      0.00011128      0.00004283  ~
      9    -314.983944084131     -0.000000000976      0.00000259      0.00000065      0.00010790      0.00003986  ~
     10    -314.983944078805      0.000000005326      0.00000133      0.00000031      0.00005440      0.00001751  ~
     11    -314.983944081536     -0.000000002731      0.00000102      0.00000030      0.00009052      0.00003087  ~
     12    -314.983944081125      0.000000000411      0.00000187      0.00000039      0.00003258      0.00001040  ~
     13    -314.983944082122     -0.000000000997      0.00000106      0.00000030      0.00006389      0.00001904  ~
     14    -314.983944080448      0.000000001673      0.00000180      0.00000050      0.00004908      0.00001585  ~
     15    -314.983944080978     -0.000000000530      0.00000109      0.00000023      0.00000795      0.00000284  ~
     16    -314.983944086194     -0.000000005216      0.00000170      0.00000041      0.00009975      0.00003573  ~
     17    -314.983944081932      0.000000004262      0.00000365      0.00000081      0.00009020      0.00003194  ~
     18    -314.983944081896      0.000000000036      0.00000074      0.00000023      0.00001620      0.00000421  ~
     19    -314.983944087209     -0.000000005313      0.00000119      0.00000026      0.00001861      0.00000369  ~
     20    -314.983944080281      0.000000006928      0.00000055      0.00000013      0.00000869      0.00000307  ~
     21    -314.983944080905     -0.000000000624      0.00000186      0.00000051      0.00002434      0.00000707  ~
     22    -314.983944086050     -0.000000005145      0.00000060      0.00000018      0.00001031      0.00000281  ~
     23    -314.983944082640      0.000000003409      0.00000113      0.00000026      0.00001668      0.00000310  ~
     24    -314.983944079598      0.000000003043      0.00000191      0.00000048      0.00001121      0.00000343  ~
     25    -314.983944084664     -0.000000005067      0.00000079      0.00000018      0.00001496      0.00000390  ~
     26    -314.983944083896      0.000000000769      0.00000066      0.00000017      0.00001087      0.00000455  ~
     27    -314.983944080299      0.000000003597      0.00000121      0.00000033      0.00001610      0.00000472  ~
     28    -314.983944084025     -0.000000003726      0.00000052      0.00000013      0.00000800      0.00000261  ~
     29    -314.983944081022      0.000000003003      0.00000199      0.00000047      0.00001429      0.00000392  ~
     30    -314.983944078336      0.000000002687      0.00000134      0.00000034      0.00001023      0.00000353  ~
     31    -314.983944086052     -0.000000007716      0.00000071      0.00000019      0.00000562      0.00000204  ~
  --------------------------------------------------------------------------------------------------------------- ~

	Writing optimization data to binary file.
	Final energy is   -314.9839440860518
	Final (previous) structure:
	Cartesian Geometry (in Angstrom)
	    C    -2.2620815227   0.1262496619  -1.5459831579
	    H    -2.6188301679   1.1546902451  -1.6254500035
	    H    -2.7780160679  -0.4669691537  -2.3005979315
	    H    -1.2007677351   0.1238566725  -1.7948073611
	    C     2.2647310867  -0.1273982770  -1.5419991584
	    H     1.2038459126  -0.1251906203  -1.7926473338
	    H     2.6216147836  -1.1558979163  -1.6200880674
	    H     2.7819615433   0.4652591588  -2.2961682506
	    C    -2.5095903577  -0.4253452579  -0.1464147606
	    H    -2.1126493670  -1.4403610692  -0.0766741784
	    H    -3.5853470253  -0.5065985484   0.0243524532
	    C     2.5098373897   0.4252387730  -0.1424189381
	    H     3.5852995204   0.5066208771   0.0301332274
	    H     2.1127768943   1.4403057386  -0.0741150872
	    C    -1.9051770583   0.4434939273   0.9562795269
	    H    -2.1224833759  -0.0105091073   1.9274103185
	    H    -2.4025277722   1.4179276228   0.9486636133
	    C    -0.3959085674   0.6523665378   0.8370035799
	    H    -0.0575672855   1.2715622771   1.6737225032
	    H    -0.1745312205   1.2208499097  -0.0694580698
	    C     0.3944713003  -0.6517445902   0.8381734607
	    H     0.0546935959  -1.2703097980   1.6747767147
	    H     0.1746486132  -1.2209108341  -0.0682382287
	    C     1.9035335954  -0.4427810737   0.9598828925
	    H     2.1191744590   0.0119450178   1.9310468555
	    H     2.4008971476  -1.4172194592   0.9538449179
	Saving final (previous) structure.
			--------------------------
			 OPTKING Finished Execution 
			--------------------------

    Final optimized geometry and variables:
    Molecular point group: c1
    Full point group: C1

    Geometry (in Angstrom), charge = 0, multiplicity = 1:

    C           -2.262081522688     0.126249661852    -1.545983157913
    H           -2.618830167874     1.154690245091    -1.625450003523
    H           -2.778016067888    -0.466969153695    -2.300597931460
    H           -1.200767735106     0.123856672532    -1.794807361095
    C            2.264731086738    -0.127398276978    -1.541999158433
    H            1.203845912570    -0.125190620262    -1.792647333758
    H            2.621614783636    -1.155897916295    -1.620088067367
    H            2.781961543272     0.465259158760    -2.296168250637
    C           -2.509590357713    -0.425345257941    -0.146414760645
    H           -2.112649367002    -1.440361069196    -0.076674178366
    H           -3.585347025333    -0.506598548444     0.024352453220
    C            2.509837389716     0.425238773000    -0.142418938051
    H            3.585299520365     0.506620877087     0.030133227413
    H            2.112776894287     1.440305738645    -0.074115087164
    C           -1.905177058345     0.443493927266     0.956279526941
    H           -2.122483375905    -0.010509107293     1.927410318471
    H           -2.402527772244     1.417927622804     0.948663613304
    C           -0.395908567445     0.652366537806     0.837003579910
    H           -0.057567285491     1.271562277132     1.673722503197
    H           -0.174531220514     1.220849909701    -0.069458069795
    C            0.394471300295    -0.651744590227     0.838173460652
    H            0.054693595892    -1.270309798020     1.674776714675
    H            0.174648613179    -1.220910834146    -0.068238228742
    C            1.903533595408    -0.442781073708     0.959882892535
    H            2.119174458978     0.011945017811     1.931046855500
    H            2.400897147575    -1.417219459196     0.953844917924

	Cleaning optimization helper files.

*** Psi4 exiting successfully. Buy a developer a beer!
