    -----------------------------------------------------------------------
          Psi4: An Open-Source Ab Initio Electronic Structure Package
                              Psi4 1.0.0 Driver

                          Git: Rev {master} 6a9a71b dirty

    J. M. Turney, A. C. Simmonett, R. M. Parrish, E. G. Hohenstein,
    F. A. Evangelista, J. T. Fermann, B. J. Mintz, L. A. Burns, J. J. Wilke,
    M. L. Abrams, N. J. Russ, M. L. Leininger, C. L. Janssen, E. T. Seidl,
    W. D. Allen, H. F. Schaefer, R. A. King, E. F. Valeev, C. D. Sherrill,
    and T. D. Crawford, WIREs Comput. Mol. Sci. 2, 556-565 (2012)
    (doi: 10.1002/wcms.93)

                         Additional Contributions by
    A. E. DePrince, U. Bozkaya, A. Yu. Sokolov, D. G. A. Smith, R. Di Remigio,
    R. M. Richard, J. F. Gonthier, H. R. McAlexander, M. Saitow, and
    B. P. Pritchard
    -----------------------------------------------------------------------


    Psi4 started on: Tue Sep 20 22:40:02 2016

    Process ID:   7343
    PSI4DATADIR: /usr/local/hpc5/psi4conda/share/psi4
    Memory level set to 256.000 MB

  ==> Input File <==

--------------------------------------------------------------------------
memory 60 Gb

molecule molecule_15_psi {
0 1
C            2.937930891266     1.357440091520     0.208575547559
H            2.123752395967     1.748105283168     0.817772696746
H            2.820876844138     1.755964794793    -0.800724460597
H            3.870307193300     1.747655432074     0.615953996996
C           -2.601433779029     1.339015655943    -0.706977017320
H           -2.961074517005     2.350836685482    -0.521597859766
H           -3.297061470429     0.856466500920    -1.395817160100
H           -1.637835245501     1.418632870998    -1.210454735213
C            2.941627988309    -0.167497682452     0.186163935291
H            3.021147624864    -0.549752719656     1.207627872912
H            3.830483076414    -0.515616871902    -0.344680994344
C           -2.490024040356     0.547260807100     0.591052252924
H           -1.760404126852     1.023590540668     1.249484291673
H           -3.445102700231     0.583256070729     1.119701935104
C            1.701771231774    -0.764753375442    -0.475458890789
H            1.818093387718    -1.849937981373    -0.546899533038
H            1.627885003274    -0.392593993277    -1.502868271594
C            0.401756193211    -0.459132193530     0.259719228207
H            0.247508492006     0.621219387095     0.298569938247
H            0.484367355349    -0.800403581532     1.297888248691
C           -0.803856885964    -1.122457723947    -0.395511732677
H           -0.907101520224    -0.747194994236    -1.417452520150
H           -0.612954850605    -2.195700974383    -0.484937087649
C           -2.110298176658    -0.916845832456     0.370156590045
H           -2.921321220727    -1.412759013883    -0.171281879303
H           -2.033345622971    -1.415544661122     1.340590976475
}

set globals {
  reference rhf
  g_convergence gau_verytight
  basis aug-cc-pvtz
  freeze_core true
  scf_type df
  mp_type df
}
optimize('mp2')
--------------------------------------------------------------------------
/usr/local/hpc5/psi4conda/lib/python2.7/site-packages/v2rdm_casscf/v2rdm_casscf.so loaded.

  Memory set to  60.000 GiB by Python script.
gradient() will perform analytic gradient computation.

*** tstart() called on wr36
*** at Tue Sep 20 22:40:02 2016


         ---------------------------------------------------------
                                   SCF
            by Justin Turney, Rob Parrish, and Andy Simmonett
                              RHF Reference
                       12 Threads,  60000 MiB Core
         ---------------------------------------------------------

  ==> Geometry <==

    Molecular point group: c1
    Full point group: C1

    Geometry (in Angstrom), charge = 0, multiplicity = 1:

       Center              X                  Y                   Z               Mass       
    ------------   -----------------  -----------------  -----------------  -----------------
           C          2.937930891266     1.357440091520     0.208575547559    12.000000000000
           H          2.123752395967     1.748105283168     0.817772696746     1.007825032070
           H          2.820876844138     1.755964794793    -0.800724460597     1.007825032070
           H          3.870307193300     1.747655432074     0.615953996996     1.007825032070
           C         -2.601433779029     1.339015655943    -0.706977017320    12.000000000000
           H         -2.961074517005     2.350836685482    -0.521597859766     1.007825032070
           H         -3.297061470429     0.856466500920    -1.395817160100     1.007825032070
           H         -1.637835245501     1.418632870998    -1.210454735213     1.007825032070
           C          2.941627988309    -0.167497682452     0.186163935291    12.000000000000
           H          3.021147624864    -0.549752719656     1.207627872912     1.007825032070
           H          3.830483076414    -0.515616871902    -0.344680994344     1.007825032070
           C         -2.490024040356     0.547260807100     0.591052252924    12.000000000000
           H         -1.760404126852     1.023590540668     1.249484291673     1.007825032070
           H         -3.445102700231     0.583256070729     1.119701935104     1.007825032070
           C          1.701771231774    -0.764753375442    -0.475458890789    12.000000000000
           H          1.818093387718    -1.849937981373    -0.546899533038     1.007825032070
           H          1.627885003274    -0.392593993277    -1.502868271594     1.007825032070
           C          0.401756193211    -0.459132193530     0.259719228207    12.000000000000
           H          0.247508492006     0.621219387095     0.298569938247     1.007825032070
           H          0.484367355349    -0.800403581532     1.297888248691     1.007825032070
           C         -0.803856885964    -1.122457723947    -0.395511732677    12.000000000000
           H         -0.907101520224    -0.747194994236    -1.417452520150     1.007825032070
           H         -0.612954850605    -2.195700974383    -0.484937087649     1.007825032070
           C         -2.110298176658    -0.916845832456     0.370156590045    12.000000000000
           H         -2.921321220727    -1.412759013883    -0.171281879303     1.007825032070
           H         -2.033345622971    -1.415544661122     1.340590976475     1.007825032070

  Running in c1 symmetry.

  Rotational constants: A =      0.11064  B =      0.02778  C =      0.02456 [cm^-1]
  Rotational constants: A =   3316.97329  B =    832.73026  C =    736.17168 [MHz]
  Nuclear repulsion =  395.557608341195419

  Charge       = 0
  Multiplicity = 1
  Electrons    = 66
  Nalpha       = 33
  Nbeta        = 33

  ==> Algorithm <==

  SCF Algorithm Type is DF.
  DIIS enabled.
  MOM disabled.
  Fractional occupation disabled.
  Guess Type is SAD.
  Energy threshold   = 1.00e-10
  Density threshold  = 1.00e-10
  Integral threshold = 0.00e+00

  ==> Primary Basis <==

  Basis Set: AUG-CC-PVTZ
    Number of shells: 274
    Number of basis function: 782
    Number of Cartesian functions: 890
    Spherical Harmonics?: true
    Max angular momentum: 3

  ==> Pre-Iterations <==

   -------------------------------------------------------
    Irrep   Nso     Nmo     Nalpha   Nbeta   Ndocc  Nsocc
   -------------------------------------------------------
     A        782     782       0       0       0       0
   -------------------------------------------------------
    Total     782     782      33      33      33       0
   -------------------------------------------------------

  ==> Integral Setup <==

  ==> DFJK: Density-Fitted J/K Matrices <==

    J tasked:                  Yes
    K tasked:                  Yes
    wK tasked:                  No
    OpenMP threads:             12
    Integrals threads:          12
    Memory (MB):             42915
    Algorithm:                Core
    Integral Cache:           NONE
    Schwarz Cutoff:          1E-12
    Fitting Condition:       1E-12

   => Auxiliary Basis Set <=

  Basis Set: 
    Number of shells: 492
    Number of basis function: 1660
    Number of Cartesian functions: 2038
    Spherical Harmonics?: true
    Max angular momentum: 4

  Minimum eigenvalue in the overlap matrix is 2.3542391190E-06.
  Using Symmetric Orthogonalization.
  SCF Guess: Superposition of Atomic Densities via on-the-fly atomic UHF.

  ==> Iterations <==

                           Total Energy        Delta E     RMS |[F,P]|

   @DF-RHF iter   0:  -317.04076320501929   -3.17041e+02   7.04517e-03 
   @DF-RHF iter   1:  -313.29608821929162    3.74467e+00   7.27610e-04 
   @DF-RHF iter   2:  -313.50788047364381   -2.11792e-01   2.76937e-04 DIIS
   @DF-RHF iter   3:  -313.53644740754396   -2.85669e-02   1.02402e-04 DIIS
   @DF-RHF iter   4:  -313.54166545146177   -5.21804e-03   1.59945e-05 DIIS
   @DF-RHF iter   5:  -313.54183642666192   -1.70975e-04   4.22697e-06 DIIS
   @DF-RHF iter   6:  -313.54184729062558   -1.08640e-05   1.27228e-06 DIIS
   @DF-RHF iter   7:  -313.54184819813941   -9.07514e-07   2.81422e-07 DIIS
   @DF-RHF iter   8:  -313.54184825051766   -5.23783e-08   6.57307e-08 DIIS
   @DF-RHF iter   9:  -313.54184825368884   -3.17118e-09   1.97052e-08 DIIS
   @DF-RHF iter  10:  -313.54184825395089   -2.62048e-10   6.62253e-09 DIIS
   @DF-RHF iter  11:  -313.54184825397772   -2.68301e-11   1.64852e-09 DIIS
   @DF-RHF iter  12:  -313.54184825397942   -1.70530e-12   3.99442e-10 DIIS
   @DF-RHF iter  13:  -313.54184825397954   -1.13687e-13   1.13868e-10 DIIS
   @DF-RHF iter  14:  -313.54184825397920    3.41061e-13   3.50455e-11 DIIS

  ==> Post-Iterations <==

    Orbital Energies (a.u.)
    -----------------------

    Doubly Occupied:                                                      

       1A    -11.212938     2A    -11.212095     3A    -11.210586  
       4A    -11.210431     5A    -11.209376     6A    -11.208710  
       7A    -11.206997     8A    -11.206881     9A     -1.094769  
      10A     -1.061255    11A     -1.006237    12A     -0.946534  
      13A     -0.887148    14A     -0.836890    15A     -0.777842  
      16A     -0.756576    17A     -0.650016    18A     -0.627831  
      19A     -0.609846    20A     -0.603100    21A     -0.576677  
      22A     -0.554321    23A     -0.544312    24A     -0.531274  
      25A     -0.512568    26A     -0.505598    27A     -0.490005  
      28A     -0.474128    29A     -0.463436    30A     -0.459314  
      31A     -0.450037    32A     -0.441070    33A     -0.431909  

    Virtual:                                                              

      34A      0.028268    35A      0.032624    36A      0.033975  
      37A      0.035438    38A      0.046086    39A      0.047097  
      40A      0.049727    41A      0.053799    42A      0.056201  
      43A      0.066649    44A      0.068814    45A      0.069910  
      46A      0.072756    47A      0.076919    48A      0.087825  
      49A      0.094154    50A      0.095390    51A      0.102938  
      52A      0.115174    53A      0.116498    54A      0.117328  
      55A      0.121046    56A      0.127541    57A      0.132722  
      58A      0.134641    59A      0.137983    60A      0.138624  
      61A      0.139433    62A      0.145640    63A      0.150589  
      64A      0.156989    65A      0.159319    66A      0.160090  
      67A      0.164250    68A      0.166910    69A      0.171290  
      70A      0.172539    71A      0.181189    72A      0.183337  
      73A      0.186864    74A      0.196536    75A      0.199763  
      76A      0.204373    77A      0.210972    78A      0.217540  
      79A      0.226630    80A      0.229521    81A      0.237078  
      82A      0.246275    83A      0.254625    84A      0.255859  
      85A      0.269401    86A      0.277559    87A      0.280339  
      88A      0.282297    89A      0.294515    90A      0.296767  
      91A      0.300501    92A      0.302940    93A      0.308489  
      94A      0.312061    95A      0.312502    96A      0.320839  
      97A      0.325401    98A      0.327603    99A      0.330958  
     100A      0.333379   101A      0.336120   102A      0.337867  
     103A      0.343790   104A      0.352126   105A      0.355187  
     106A      0.359869   107A      0.361121   108A      0.363341  
     109A      0.366094   110A      0.369177   111A      0.372496  
     112A      0.374349   113A      0.381447   114A      0.388589  
     115A      0.390905   116A      0.392073   117A      0.399044  
     118A      0.402096   119A      0.406639   120A      0.413713  
     121A      0.419239   122A      0.421019   123A      0.423748  
     124A      0.426885   125A      0.433982   126A      0.437805  
     127A      0.440723   128A      0.444779   129A      0.450219  
     130A      0.453550   131A      0.456467   132A      0.459823  
     133A      0.465101   134A      0.468062   135A      0.470808  
     136A      0.477353   137A      0.478953   138A      0.480915  
     139A      0.483851   140A      0.486974   141A      0.489974  
     142A      0.495399   143A      0.496847   144A      0.501646  
     145A      0.506257   146A      0.512125   147A      0.517952  
     148A      0.519525   149A      0.522520   150A      0.527076  
     151A      0.530492   152A      0.536975   153A      0.542080  
     154A      0.545248   155A      0.551645   156A      0.555220  
     157A      0.557268   158A      0.560120   159A      0.565629  
     160A      0.570360   161A      0.576915   162A      0.579947  
     163A      0.581768   164A      0.583711   165A      0.590950  
     166A      0.595275   167A      0.596267   168A      0.603423  
     169A      0.605358   170A      0.613877   171A      0.618724  
     172A      0.624766   173A      0.626584   174A      0.633118  
     175A      0.640732   176A      0.645068   177A      0.647158  
     178A      0.656941   179A      0.657303   180A      0.664767  
     181A      0.668103   182A      0.676475   183A      0.677506  
     184A      0.684429   185A      0.693479   186A      0.693951  
     187A      0.703697   188A      0.706473   189A      0.710811  
     190A      0.712815   191A      0.725561   192A      0.727879  
     193A      0.731741   194A      0.738819   195A      0.745370  
     196A      0.749651   197A      0.767219   198A      0.774327  
     199A      0.778328   200A      0.791333   201A      0.798646  
     202A      0.803211   203A      0.807791   204A      0.819447  
     205A      0.833203   206A      0.843412   207A      0.846109  
     208A      0.852216   209A      0.857421   210A      0.862105  
     211A      0.865849   212A      0.872671   213A      0.882251  
     214A      0.888183   215A      0.889897   216A      0.894094  
     217A      0.900833   218A      0.907627   219A      0.909098  
     220A      0.912589   221A      0.916771   222A      0.919840  
     223A      0.927654   224A      0.930117   225A      0.932950  
     226A      0.938643   227A      0.946603   228A      0.950274  
     229A      0.956191   230A      0.968000   231A      0.970319  
     232A      0.971693   233A      0.975064   234A      0.983542  
     235A      0.988728   236A      0.990905   237A      0.994646  
     238A      1.001352   239A      1.008198   240A      1.011126  
     241A      1.015914   242A      1.021844   243A      1.025163  
     244A      1.040278   245A      1.041760   246A      1.043832  
     247A      1.051877   248A      1.052294   249A      1.059378  
     250A      1.068411   251A      1.069104   252A      1.074017  
     253A      1.081218   254A      1.083924   255A      1.088698  
     256A      1.094123   257A      1.099701   258A      1.103545  
     259A      1.112494   260A      1.114242   261A      1.124286  
     262A      1.126335   263A      1.127820   264A      1.136667  
     265A      1.144940   266A      1.152495   267A      1.156521  
     268A      1.162713   269A      1.164920   270A      1.171620  
     271A      1.175075   272A      1.184103   273A      1.188857  
     274A      1.191384   275A      1.193668   276A      1.202103  
     277A      1.208843   278A      1.213476   279A      1.216440  
     280A      1.223689   281A      1.227763   282A      1.232252  
     283A      1.242851   284A      1.244801   285A      1.246409  
     286A      1.253316   287A      1.258705   288A      1.263018  
     289A      1.268164   290A      1.272982   291A      1.280001  
     292A      1.282019   293A      1.287953   294A      1.290497  
     295A      1.301721   296A      1.304980   297A      1.313779  
     298A      1.322497   299A      1.325200   300A      1.327730  
     301A      1.333489   302A      1.339299   303A      1.348543  
     304A      1.361414   305A      1.367124   306A      1.369907  
     307A      1.380857   308A      1.392400   309A      1.397566  
     310A      1.405420   311A      1.407340   312A      1.409815  
     313A      1.419090   314A      1.425383   315A      1.434982  
     316A      1.439256   317A      1.452666   318A      1.464788  
     319A      1.467662   320A      1.477376   321A      1.479615  
     322A      1.487471   323A      1.495426   324A      1.497831  
     325A      1.499683   326A      1.514647   327A      1.523350  
     328A      1.525621   329A      1.531883   330A      1.536275  
     331A      1.546443   332A      1.557299   333A      1.566668  
     334A      1.570912   335A      1.579683   336A      1.585405  
     337A      1.589626   338A      1.597686   339A      1.607736  
     340A      1.626999   341A      1.629624   342A      1.630388  
     343A      1.636871   344A      1.642990   345A      1.644708  
     346A      1.651891   347A      1.662981   348A      1.670042  
     349A      1.678579   350A      1.686198   351A      1.694201  
     352A      1.696597   353A      1.700896   354A      1.705145  
     355A      1.707612   356A      1.717335   357A      1.721783  
     358A      1.730652   359A      1.735619   360A      1.748689  
     361A      1.752244   362A      1.759818   363A      1.764855  
     364A      1.769185   365A      1.778296   366A      1.782650  
     367A      1.788013   368A      1.795490   369A      1.801247  
     370A      1.810269   371A      1.813490   372A      1.821083  
     373A      1.823189   374A      1.832933   375A      1.840437  
     376A      1.845016   377A      1.847842   378A      1.853532  
     379A      1.857754   380A      1.860743   381A      1.868228  
     382A      1.876997   383A      1.878519   384A      1.884370  
     385A      1.896000   386A      1.901236   387A      1.908088  
     388A      1.916357   389A      1.922939   390A      1.926904  
     391A      1.936482   392A      1.947806   393A      1.959835  
     394A      1.964796   395A      1.970084   396A      1.974216  
     397A      1.979847   398A      1.991835   399A      1.992919  
     400A      1.997361   401A      2.009042   402A      2.018994  
     403A      2.021318   404A      2.023877   405A      2.026430  
     406A      2.031261   407A      2.035026   408A      2.046410  
     409A      2.050038   410A      2.059493   411A      2.060288  
     412A      2.069032   413A      2.084694   414A      2.088561  
     415A      2.093426   416A      2.098406   417A      2.114051  
     418A      2.118113   419A      2.124816   420A      2.134346  
     421A      2.147859   422A      2.149817   423A      2.161100  
     424A      2.171590   425A      2.173630   426A      2.189416  
     427A      2.207331   428A      2.211730   429A      2.224897  
     430A      2.239654   431A      2.247422   432A      2.255906  
     433A      2.264205   434A      2.270117   435A      2.274341  
     436A      2.289863   437A      2.295763   438A      2.301518  
     439A      2.306954   440A      2.312265   441A      2.314588  
     442A      2.329931   443A      2.330261   444A      2.338975  
     445A      2.348005   446A      2.360900   447A      2.370677  
     448A      2.374241   449A      2.388761   450A      2.394230  
     451A      2.401940   452A      2.424454   453A      2.429432  
     454A      2.442957   455A      2.450866   456A      2.462933  
     457A      2.470422   458A      2.479049   459A      2.479840  
     460A      2.489354   461A      2.504929   462A      2.521495  
     463A      2.525382   464A      2.540151   465A      2.553205  
     466A      2.558649   467A      2.575740   468A      2.577252  
     469A      2.602056   470A      2.608542   471A      2.615121  
     472A      2.629921   473A      2.638055   474A      2.651438  
     475A      2.654683   476A      2.678291   477A      2.683498  
     478A      2.710284   479A      2.730894   480A      2.764672  
     481A      2.776035   482A      2.787319   483A      2.870656  
     484A      2.902752   485A      2.912249   486A      2.943573  
     487A      2.974974   488A      2.998768   489A      3.025271  
     490A      3.125509   491A      3.159862   492A      3.224042  
     493A      3.296202   494A      3.315424   495A      3.339292  
     496A      3.406990   497A      3.425541   498A      3.437835  
     499A      3.446931   500A      3.466517   501A      3.479819  
     502A      3.483857   503A      3.503999   504A      3.523306  
     505A      3.527712   506A      3.547356   507A      3.554569  
     508A      3.564025   509A      3.577475   510A      3.601317  
     511A      3.608733   512A      3.612975   513A      3.631302  
     514A      3.650755   515A      3.665409   516A      3.667956  
     517A      3.675645   518A      3.686340   519A      3.695000  
     520A      3.702286   521A      3.707970   522A      3.716146  
     523A      3.726571   524A      3.729590   525A      3.747737  
     526A      3.754381   527A      3.759368   528A      3.765787  
     529A      3.774992   530A      3.788876   531A      3.793037  
     532A      3.808430   533A      3.810851   534A      3.828481  
     535A      3.829536   536A      3.834177   537A      3.844394  
     538A      3.856583   539A      3.862337   540A      3.871088  
     541A      3.879419   542A      3.890392   543A      3.894287  
     544A      3.901338   545A      3.910545   546A      3.913568  
     547A      3.924455   548A      3.929961   549A      3.939958  
     550A      3.956926   551A      3.965715   552A      3.976840  
     553A      3.981478   554A      3.984543   555A      3.987753  
     556A      3.996757   557A      4.001261   558A      4.012950  
     559A      4.021525   560A      4.025104   561A      4.029833  
     562A      4.042007   563A      4.047124   564A      4.050322  
     565A      4.055197   566A      4.057753   567A      4.061833  
     568A      4.076996   569A      4.083525   570A      4.094163  
     571A      4.102777   572A      4.106122   573A      4.109018  
     574A      4.118841   575A      4.129837   576A      4.132841  
     577A      4.144815   578A      4.154580   579A      4.165611  
     580A      4.169583   581A      4.175702   582A      4.197673  
     583A      4.210691   584A      4.213472   585A      4.218302  
     586A      4.226602   587A      4.245451   588A      4.246207  
     589A      4.251745   590A      4.261595   591A      4.277271  
     592A      4.288541   593A      4.291961   594A      4.298445  
     595A      4.300679   596A      4.331914   597A      4.338933  
     598A      4.350591   599A      4.357829   600A      4.373746  
     601A      4.385338   602A      4.403772   603A      4.412927  
     604A      4.420201   605A      4.429045   606A      4.436204  
     607A      4.445767   608A      4.462369   609A      4.475962  
     610A      4.486371   611A      4.499566   612A      4.514531  
     613A      4.516517   614A      4.530196   615A      4.543873  
     616A      4.564904   617A      4.572143   618A      4.591870  
     619A      4.598573   620A      4.618554   621A      4.631115  
     622A      4.649668   623A      4.661028   624A      4.671908  
     625A      4.682292   626A      4.686280   627A      4.700498  
     628A      4.706964   629A      4.720351   630A      4.731214  
     631A      4.737590   632A      4.749569   633A      4.760938  
     634A      4.764372   635A      4.783670   636A      4.798072  
     637A      4.804649   638A      4.820862   639A      4.828594  
     640A      4.847905   641A      4.861254   642A      4.870357  
     643A      4.875466   644A      4.886649   645A      4.893898  
     646A      4.904710   647A      4.909008   648A      4.920285  
     649A      4.931484   650A      4.943127   651A      4.948467  
     652A      4.955129   653A      4.965624   654A      4.987838  
     655A      4.998601   656A      5.013095   657A      5.026266  
     658A      5.037159   659A      5.045026   660A      5.060996  
     661A      5.075937   662A      5.080950   663A      5.097568  
     664A      5.112245   665A      5.131338   666A      5.151849  
     667A      5.155084   668A      5.166967   669A      5.172836  
     670A      5.190416   671A      5.192706   672A      5.198781  
     673A      5.212293   674A      5.231489   675A      5.241485  
     676A      5.255288   677A      5.259988   678A      5.283713  
     679A      5.292971   680A      5.309893   681A      5.312888  
     682A      5.320998   683A      5.342213   684A      5.343317  
     685A      5.362776   686A      5.365159   687A      5.377911  
     688A      5.386414   689A      5.395900   690A      5.407653  
     691A      5.420034   692A      5.432436   693A      5.436387  
     694A      5.446452   695A      5.448276   696A      5.470077  
     697A      5.474563   698A      5.496613   699A      5.497020  
     700A      5.504898   701A      5.516901   702A      5.521719  
     703A      5.552754   704A      5.571915   705A      5.579491  
     706A      5.596293   707A      5.607959   708A      5.620470  
     709A      5.623717   710A      5.635228   711A      5.642303  
     712A      5.663587   713A      5.670844   714A      5.675907  
     715A      5.681530   716A      5.698327   717A      5.714413  
     718A      5.723123   719A      5.734676   720A      5.740502  
     721A      5.758102   722A      5.767819   723A      5.781149  
     724A      5.817363   725A      5.832701   726A      5.849429  
     727A      5.860054   728A      5.879726   729A      5.884979  
     730A      5.910544   731A      5.917385   732A      5.948510  
     733A      5.966427   734A      5.987424   735A      6.007874  
     736A      6.024769   737A      6.040485   738A      6.055833  
     739A      6.089772   740A      6.112608   741A      6.132558  
     742A      6.146597   743A      6.158405   744A      6.182498  
     745A      6.220752   746A      6.259881   747A      6.264216  
     748A      6.271047   749A      6.289720   750A      6.305887  
     751A      6.317668   752A      6.328740   753A      6.340418  
     754A      6.347913   755A      6.367924   756A      6.382929  
     757A      6.404830   758A      6.419603   759A      6.584989  
     760A      6.600584   761A      6.648267   762A      6.671435  
     763A      6.716435   764A      6.775786   765A      6.807338  
     766A      6.869817   767A      6.892278   768A      6.920577  
     769A      6.932130   770A      6.980212   771A      7.002232  
     772A      7.038590   773A      7.062584   774A      7.146196  
     775A     17.827920   776A     17.971384   777A     18.245454  
     778A     18.464461   779A     18.514656   780A     18.931854  
     781A     19.310921   782A     19.771606  

    Final Occupation by Irrep:
              A 
    DOCC [    33 ]

  Energy converged.

  @DF-RHF Final Energy:  -313.54184825397920

   => Energetics <=

    Nuclear Repulsion Energy =            395.5576083411954187
    One-Electron Energy =               -1206.2574960434467357
    Two-Electron Energy =                 497.1580394482722909
    DFT Exchange-Correlation Energy =       0.0000000000000000
    Empirical Dispersion Energy =           0.0000000000000000
    PCM Polarization Energy =               0.0000000000000000
    EFP Energy =                            0.0000000000000000
    Total Energy =                       -313.5418482539790261


  Saving occupied orbitals to File 180.

*** tstop() called on wr36 at Tue Sep 20 22:41:28 2016
Module time:
	user time   =     930.80 seconds =      15.51 minutes
	system time =      13.11 seconds =       0.22 minutes
	total time  =         86 seconds =       1.43 minutes
Total time:
	user time   =     930.80 seconds =      15.51 minutes
	system time =      13.11 seconds =       0.22 minutes
	total time  =         86 seconds =       1.43 minutes


Properties will be evaluated at   0.000000,   0.000000,   0.000000 Bohr

Properties computed using the SCF density matrix

  Nuclear Dipole Moment: (a.u.)
     X:     0.2514      Y:     2.0870      Z:    -0.4210

  Electronic Dipole Moment: (a.u.)
     X:    -0.2476      Y:    -2.1144      Z:     0.4454

  Dipole Moment: (a.u.)
     X:     0.0038      Y:    -0.0274      Z:     0.0243     Total:     0.0368

  Dipole Moment: (Debye)
     X:     0.0098      Y:    -0.0696      Z:     0.0619     Total:     0.0936


  //>>>>>>>>>>>>>>>>>>>>>>>>>>>>>>>>>>>//
  //               DFMP2               //
  //<<<<<<<<<<<<<<<<<<<<<<<<<<<<<<<<<<<//


*** tstart() called on wr36
*** at Tue Sep 20 22:41:28 2016


*** tstop() called on wr36 at Tue Sep 20 22:41:29 2016
Module time:
	user time   =       5.07 seconds =       0.08 minutes
	system time =       0.26 seconds =       0.00 minutes
	total time  =          1 seconds =       0.02 minutes
Total time:
	user time   =     937.26 seconds =      15.62 minutes
	system time =      13.37 seconds =       0.22 minutes
	total time  =         87 seconds =       1.45 minutes
	 --------------------------------------------------------
	                          DF-MP2                         
	      2nd-Order Density-Fitted Moller-Plesset Theory     
	              RMP2 Wavefunction,  12 Threads             
	                                                         
	        Rob Parrish, Justin Turney, Andy Simmonett,      
	           Ed Hohenstein, and C. David Sherrill          
	 --------------------------------------------------------

   => Auxiliary Basis Set <=

  Basis Set: 
    Number of shells: 476
    Number of basis function: 1676
    Number of Cartesian functions: 2078
    Spherical Harmonics?: true
    Max angular momentum: 4

	 --------------------------------------------------------
	                 NBF =   782, NAUX =  1676
	 --------------------------------------------------------
	   CLASS    FOCC     OCC    AOCC    AVIR     VIR    FVIR
	   PAIRS       8      33      25     749     749       0
	 --------------------------------------------------------

DGAS Warning! /src/lib/libfock/apps.cc:80 is not currently checking restricted

         ------------------------------------------------------------
                                     CPHF                           
                                  Rob Parrish                       
         ------------------------------------------------------------

  ==> Geometry <==

    Molecular point group: c1
    Full point group: C1

    Geometry (in Angstrom), charge = 0, multiplicity = 1:

       Center              X                  Y                   Z               Mass       
    ------------   -----------------  -----------------  -----------------  -----------------
           C          2.937930891266     1.357440091520     0.208575547559    12.000000000000
           H          2.123752395967     1.748105283168     0.817772696746     1.007825032070
           H          2.820876844138     1.755964794793    -0.800724460597     1.007825032070
           H          3.870307193300     1.747655432074     0.615953996996     1.007825032070
           C         -2.601433779029     1.339015655943    -0.706977017320    12.000000000000
           H         -2.961074517005     2.350836685482    -0.521597859766     1.007825032070
           H         -3.297061470429     0.856466500920    -1.395817160100     1.007825032070
           H         -1.637835245501     1.418632870998    -1.210454735213     1.007825032070
           C          2.941627988309    -0.167497682452     0.186163935291    12.000000000000
           H          3.021147624864    -0.549752719656     1.207627872912     1.007825032070
           H          3.830483076414    -0.515616871902    -0.344680994344     1.007825032070
           C         -2.490024040356     0.547260807100     0.591052252924    12.000000000000
           H         -1.760404126852     1.023590540668     1.249484291673     1.007825032070
           H         -3.445102700231     0.583256070729     1.119701935104     1.007825032070
           C          1.701771231774    -0.764753375442    -0.475458890789    12.000000000000
           H          1.818093387718    -1.849937981373    -0.546899533038     1.007825032070
           H          1.627885003274    -0.392593993277    -1.502868271594     1.007825032070
           C          0.401756193211    -0.459132193530     0.259719228207    12.000000000000
           H          0.247508492006     0.621219387095     0.298569938247     1.007825032070
           H          0.484367355349    -0.800403581532     1.297888248691     1.007825032070
           C         -0.803856885964    -1.122457723947    -0.395511732677    12.000000000000
           H         -0.907101520224    -0.747194994236    -1.417452520150     1.007825032070
           H         -0.612954850605    -2.195700974383    -0.484937087649     1.007825032070
           C         -2.110298176658    -0.916845832456     0.370156590045    12.000000000000
           H         -2.921321220727    -1.412759013883    -0.171281879303     1.007825032070
           H         -2.033345622971    -1.415544661122     1.340590976475     1.007825032070

  Nuclear repulsion =  395.557608341195419
  Reference energy  = -313.541848253979197

  ==> Basis Set <==

  Basis Set: AUG-CC-PVTZ
    Number of shells: 274
    Number of basis function: 782
    Number of Cartesian functions: 890
    Spherical Harmonics?: true
    Max angular momentum: 3

  ==> CGRSolver (by Rob Parrish) <==

   Number of roots    =         1
   Preconditioning    =    JACOBI
   Convergence cutoff =     1E-06
   Maximum iterations =       100

  ==> CPHFRHamiltonian (by Rob Parrish) <== 

  ==> DFJK: Density-Fitted J/K Matrices <==

    J tasked:                  Yes
    K tasked:                  Yes
    wK tasked:                  No
    OpenMP threads:             12
    Integrals threads:          12
    Memory (MB):             42915
    Algorithm:                Core
    Integral Cache:           NONE
    Schwarz Cutoff:          1E-12
    Fitting Condition:       1E-12

   => Auxiliary Basis Set <=

  Basis Set: 
    Number of shells: 492
    Number of basis function: 1660
    Number of Cartesian functions: 2038
    Spherical Harmonics?: true
    Max angular momentum: 4

  ==> CPHF Iterations <==

  => Iterations <=

             Iter  Converged  Remaining    Residual
  CGR           1          0          1   9.195E-02
  CGR           2          0          1   1.301E-02
  CGR           3          0          1   3.479E-03
  CGR           4          0          1   8.077E-04
  CGR           5          0          1   2.036E-04
  CGR           6          0          1   4.757E-05
  CGR           7          0          1   1.235E-05
  CGR           8          0          1   3.326E-06
  CGR           9          1          0   8.619E-07

    CGRSolver converged.

  ==> DFCorrGrad: Density-Fitted Correlated Gradients <==

    OpenMP threads:             12
    Integrals threads:          12
    Memory (MB):             42915
    Schwarz Cutoff:          0E+00
    Fitting Condition:       1E-12

   => Auxiliary Basis Set <=

  Basis Set: 
    Number of shells: 492
    Number of basis function: 1660
    Number of Cartesian functions: 2038
    Spherical Harmonics?: true
    Max angular momentum: 4

	-----------------------------------------------------------
	 ==================> DF-MP2 Energies <==================== 
	-----------------------------------------------------------
	 Reference Energy          =    -313.5418482539791967 [Eh]
	 Singles Energy            =      -0.0000000000000001 [Eh]
	 Same-Spin Energy          =      -0.3164086339434259 [Eh]
	 Opposite-Spin Energy      =      -1.1254237160652720 [Eh]
	 Correlation Energy        =      -1.4418323500086978 [Eh]
	 Total Energy              =    -314.9836806039879207 [Eh]
	-----------------------------------------------------------
	 ================> DF-SCS-MP2 Energies <================== 
	-----------------------------------------------------------
	 SCS Same-Spin Scale       =       0.3333333333333333 [-]
	 SCS Opposite-Spin Scale   =       1.2000000000000000 [-]
	 SCS Same-Spin Energy      =      -0.1054695446478086 [Eh]
	 SCS Opposite-Spin Energy  =      -1.3505084592783263 [Eh]
	 SCS Correlation Energy    =      -1.4559780039261350 [Eh]
	 SCS Total Energy          =    -314.9978262579053307 [Eh]
	-----------------------------------------------------------


  -Total Gradient:
     Atom            X                  Y                   Z
    ------   -----------------  -----------------  -----------------
       1       -0.000000042150    -0.000000522711    -0.000000009337
       2       -0.000000314879     0.000000287396     0.000000267469
       3       -0.000000027341     0.000000199824    -0.000000347548
       4        0.000000274774     0.000000124855     0.000000141605
       5       -0.000000038304    -0.000000294252     0.000000596604
       6       -0.000000166640     0.000000545494     0.000000139977
       7       -0.000000470263    -0.000000291586    -0.000000527545
       8        0.000000673066     0.000000003212    -0.000000401008
       9       -0.000000152639     0.000000314873    -0.000000300504
      10        0.000000076540    -0.000000132800     0.000000315036
      11        0.000000153532    -0.000000022678    -0.000000056765
      12       -0.000000095454    -0.000000240515    -0.000000928001
      13        0.000000664051     0.000000375024     0.000000683461
      14       -0.000000472426     0.000000024170     0.000000097996
      15       -0.000000254695     0.000000410055     0.000000515925
      16        0.000000013610    -0.000000229775    -0.000000006299
      17        0.000000078565     0.000000004438    -0.000000429628
      18        0.000000595957    -0.000001022407    -0.000000891532
      19       -0.000000145558     0.000000655328     0.000000064187
      20        0.000000128117    -0.000000262108     0.000000912544
      21       -0.000000082452     0.000000111015     0.000000625299
      22       -0.000000172217     0.000000272582    -0.000000781742
      23        0.000000029925    -0.000000396306    -0.000000032997
      24        0.000000351655     0.000000766808    -0.000000025243
      25       -0.000000675236    -0.000000332642    -0.000000353125
      26        0.000000070462    -0.000000347298     0.000000731171


			-----------------------------------------
			 OPTKING 2.0: for geometry optimizations 
			  - R.A. King,  Bethel University        
			-----------------------------------------

	Internal coordinates to be generated automatically.
	Detected frag 1 with atoms:  1 2 3 4 5 6 7 8 9 10 11 12 13 14 15 16 17 18 19 20
	 21 22 23 24 25 26
	---Fragment 1 Bond Connectivity---
	 1 : 2 3 4 9
	 2 : 1
	 3 : 1
	 4 : 1
	 5 : 6 7 8 12
	 6 : 5
	 7 : 5
	 8 : 5
	 9 : 1 10 11 15
	 10 : 9
	 11 : 9
	 12 : 5 13 14 24
	 13 : 12
	 14 : 12
	 15 : 9 16 17 18
	 16 : 15
	 17 : 15
	 18 : 15 19 20 21
	 19 : 18
	 20 : 18
	 21 : 18 22 23 24
	 22 : 21
	 23 : 21
	 24 : 12 21 25 26
	 25 : 24
	 26 : 24

	---Fragment 1 Geometry and Gradient---
	 C           5.5518847818        2.5651900148        0.3941506629
	 H           4.0133104024        3.3034402366        1.5453664358
	 H           5.3306846900        3.3182925611       -1.5131499384
	 H           7.3138206455        3.3025901413        1.1639843648
	 C          -4.9159973952        2.5303728774       -1.3359929450
	 H          -5.5956198962        4.4424375187       -0.9856771065
	 H          -6.2305432224        1.6184871287       -2.6377121642
	 H          -3.0950600648        2.6808276093       -2.2874279458
	 C           5.5588712827       -0.3165247477        0.3517988535
	 H           5.7091416180       -1.0388820810        2.2820859502
	 H           7.2385639711       -0.9743746774       -0.6513526825
	 C          -4.7054635006        1.0341730487        1.1169268883
	 H          -3.3266816830        1.9343057941        2.3611831186
	 H          -6.5103006031        1.1021942390        2.1159300078
	 C           3.2158815689       -1.4451744388       -0.8984870910
	 H           3.4356985868       -3.4958761476       -1.0334903396
	 H           3.0762568320       -0.7418951287       -2.8400094471
	 C           0.7592091774       -0.8676341046        0.4907982128
	 H           0.4677232655        1.1739345100        0.5642154148
	 H           0.9153216493       -1.5125435649        2.4526533411
	 C          -1.5190693645       -2.1211376940       -0.7474088571
	 H          -1.7141734479       -1.4119939070       -2.6785970695
	 H          -1.1583167995       -4.1492735113       -0.9163982873
	 C          -3.9878856126       -1.7325875294        0.6994945815
	 H          -5.5204970534       -2.6697276280       -0.3236758434
	 H          -3.8424663609       -2.6749917384        2.5333498018
	            -0.0000000422       -0.0000005227       -0.0000000093
	            -0.0000003149        0.0000002874        0.0000002675
	            -0.0000000273        0.0000001998       -0.0000003475
	             0.0000002748        0.0000001249        0.0000001416
	            -0.0000000383       -0.0000002943        0.0000005966
	            -0.0000001666        0.0000005455        0.0000001400
	            -0.0000004703       -0.0000002916       -0.0000005275
	             0.0000006731        0.0000000032       -0.0000004010
	            -0.0000001526        0.0000003149       -0.0000003005
	             0.0000000765       -0.0000001328        0.0000003150
	             0.0000001535       -0.0000000227       -0.0000000568
	            -0.0000000955       -0.0000002405       -0.0000009280
	             0.0000006641        0.0000003750        0.0000006835
	            -0.0000004724        0.0000000242        0.0000000980
	            -0.0000002547        0.0000004101        0.0000005159
	             0.0000000136       -0.0000002298       -0.0000000063
	             0.0000000786        0.0000000044       -0.0000004296
	             0.0000005960       -0.0000010224       -0.0000008915
	            -0.0000001456        0.0000006553        0.0000000642
	             0.0000001281       -0.0000002621        0.0000009125
	            -0.0000000825        0.0000001110        0.0000006253
	            -0.0000001722        0.0000002726       -0.0000007817
	             0.0000000299       -0.0000003963       -0.0000000330
	             0.0000003517        0.0000007668       -0.0000000252
	            -0.0000006752       -0.0000003326       -0.0000003531
	             0.0000000705       -0.0000003473        0.0000007312

	Previous optimization step data not found.  Starting new optimization.

	---Fragment 1 Intrafragment Coordinates---
	 - Coordinate -           - BOHR/RAD -       - ANG/DEG -
	 R(1,2)           =         2.058524	       1.089324
	 R(1,3)           =         2.062496	       1.091426
	 R(1,4)           =         2.059325	       1.089748
	 R(1,9)           =         2.882034	       1.525107
	 R(5,6)           =         2.059272	       1.089720
	 R(5,7)           =         2.062532	       1.091445
	 R(5,8)           =         2.060019	       1.090115
	 R(5,12)          =         2.880929	       1.524522
	 R(9,10)          =         2.066492	       1.093541
	 R(9,11)          =         2.064085	       1.092267
	 R(9,15)          =         2.885596	       1.526992
	 R(12,13)         =         2.063844	       1.092139
	 R(12,14)         =         2.063994	       1.092219
	 R(12,24)         =         2.888621	       1.528592
	 R(15,16)         =         2.066863	       1.093737
	 R(15,17)         =         2.069687	       1.095231
	 R(15,18)         =         2.880782	       1.524444
	 R(18,19)         =         2.063579	       1.091999
	 R(18,20)         =         2.071027	       1.095941
	 R(18,21)         =         2.880101	       1.524084
	 R(21,22)         =         2.066504	       1.093547
	 R(21,23)         =         2.066890	       1.093751
	 R(21,24)         =         2.887829	       1.528173
	 R(24,25)         =         2.067367	       1.094004
	 R(24,26)         =         2.066954	       1.093785
	 B(1,9,10)        =         1.913429	     109.631427
	 B(1,9,11)        =         1.904762	     109.134803
	 B(1,9,15)        =         1.977395	     113.296394
	 B(2,1,3)         =         1.881839	     107.821458
	 B(2,1,4)         =         1.877589	     107.577897
	 B(2,1,9)         =         1.948321	     111.630597
	 B(3,1,4)         =         1.882531	     107.861101
	 B(3,1,9)         =         1.930259	     110.595708
	 B(4,1,9)         =         1.940628	     111.189773
	 B(5,12,13)       =         1.913066	     109.610623
	 B(5,12,14)       =         1.908253	     109.334821
	 B(5,12,24)       =         1.974200	     113.113307
	 B(6,5,7)         =         1.883399	     107.910808
	 B(6,5,8)         =         1.878093	     107.606783
	 B(6,5,12)        =         1.940668	     111.192107
	 B(7,5,8)         =         1.879870	     107.708625
	 B(7,5,12)        =         1.932989	     110.752116
	 B(8,5,12)        =         1.946121	     111.504513
	 B(9,15,16)       =         1.907122	     109.270036
	 B(9,15,17)       =         1.905325	     109.167059
	 B(9,15,18)       =         1.987833	     113.894444
	 B(10,9,11)       =         1.858120	     106.462407
	 B(10,9,15)       =         1.903974	     109.089666
	 B(11,9,15)       =         1.902351	     108.996669
	 B(12,24,21)      =         1.997252	     114.434134
	 B(12,24,25)      =         1.898150	     108.756012
	 B(12,24,26)      =         1.902833	     109.024297
	 B(13,12,14)      =         1.852512	     106.141140
	 B(13,12,24)      =         1.916553	     109.810417
	 B(14,12,24)      =         1.895190	     108.586409
	 B(15,18,19)      =         1.913418	     109.630750
	 B(15,18,20)      =         1.907235	     109.276497
	 B(15,18,21)      =         1.960589	     112.333487
	 B(16,15,17)      =         1.857763	     106.441989
	 B(16,15,18)      =         1.897696	     108.729984
	 B(17,15,18)      =         1.903651	     109.071190
	 B(18,21,22)      =         1.904027	     109.092688
	 B(18,21,23)      =         1.900911	     108.914163
	 B(18,21,24)      =         1.984826	     113.722126
	 B(19,18,20)      =         1.859824	     106.560039
	 B(19,18,21)      =         1.911495	     109.520599
	 B(20,18,21)      =         1.908535	     109.351024
	 B(21,24,25)      =         1.901607	     108.954063
	 B(21,24,26)      =         1.899736	     108.846854
	 B(22,21,23)      =         1.851258	     106.069249
	 B(22,21,24)      =         1.919140	     109.958647
	 B(23,21,24)      =         1.898852	     108.796231
	 B(25,24,26)      =         1.859364	     106.533734
	 D(1,9,15,16)     =         3.042614	     174.328941
	 D(1,9,15,17)     =         1.017375	      58.291280
	 D(1,9,15,18)     =        -1.114780	     -63.872196
	 D(2,1,9,10)      =        -1.008858	     -57.803280
	 D(2,1,9,11)      =        -3.037740	    -174.049688
	 D(2,1,9,15)      =         1.122482	      64.313498
	 D(3,1,9,10)      =        -3.104101	    -177.851875
	 D(3,1,9,11)      =         1.150202	      65.901718
	 D(3,1,9,15)      =        -0.972761	     -55.735096
	 D(4,1,9,10)      =         1.088042	      62.340219
	 D(4,1,9,11)      =        -0.940840	     -53.906189
	 D(4,1,9,15)      =        -3.063803	    -175.543003
	 D(5,12,24,21)    =         0.994031	      56.953779
	 D(5,12,24,25)    =        -1.136606	     -65.122702
	 D(5,12,24,26)    =         3.125758	     179.092758
	 D(6,5,12,13)     =        -1.087205	     -62.292242
	 D(6,5,12,14)     =         0.936717	      53.669951
	 D(6,5,12,24)     =         3.050884	     174.802800
	 D(7,5,12,13)     =         3.102007	     177.731896
	 D(7,5,12,14)     =        -1.157256	     -66.305911
	 D(7,5,12,24)     =         0.956911	      54.826938
	 D(8,5,12,13)     =         1.008872	      57.804135
	 D(8,5,12,14)     =         3.032795	     173.766329
	 D(8,5,12,24)     =        -1.136224	     -65.100823
	 D(9,15,18,19)    =         1.056307	      60.521936
	 D(9,15,18,20)    =        -0.976029	     -55.922369
	 D(9,15,18,21)    =        -3.097401	    -177.468023
	 D(10,9,15,16)    =        -1.103969	     -63.252774
	 D(10,9,15,17)    =        -3.129208	    -179.290435
	 D(10,9,15,18)    =         1.021822	      58.546089
	 D(11,9,15,16)    =         0.918301	      52.614753
	 D(11,9,15,17)    =        -1.106939	     -63.422908
	 D(11,9,15,18)    =         3.044092	     174.413616
	 D(12,24,21,18)   =         1.002065	      57.414086
	 D(12,24,21,22)   =        -1.138807	     -65.248838
	 D(12,24,21,23)   =         3.123903	     178.986466
	 D(13,12,24,21)   =        -1.149130	     -65.840322
	 D(13,12,24,25)   =         3.003418	     172.083197
	 D(13,12,24,26)   =         0.982597	      56.298657
	 D(14,12,24,21)   =         3.115566	     178.508797
	 D(14,12,24,25)   =         0.984930	      56.432316
	 D(14,12,24,26)   =        -1.035892	     -59.352225
	 D(15,18,21,22)   =        -1.062174	     -60.858076
	 D(15,18,21,23)   =         0.951162	      54.497552
	 D(15,18,21,24)   =         3.071855	     176.004312
	 D(16,15,18,19)   =        -3.095883	    -177.381007
	 D(16,15,18,20)   =         1.154966	      66.174687
	 D(16,15,18,21)   =        -0.966406	     -55.370966
	 D(17,15,18,19)   =        -1.076769	     -61.694335
	 D(17,15,18,20)   =        -3.109106	    -178.138640
	 D(17,15,18,21)   =         1.052708	      60.315706
	 D(18,21,24,25)   =         3.130814	     179.382423
	 D(18,21,24,26)   =        -1.131350	     -64.821608
	 D(19,18,21,22)   =         1.068395	      61.214550
	 D(19,18,21,23)   =         3.081731	     176.570178
	 D(19,18,21,24)   =        -1.080761	     -61.923062
	 D(20,18,21,22)   =         3.100383	     177.638853
	 D(20,18,21,23)   =        -1.169467	     -67.005519
	 D(20,18,21,24)   =         0.951226	      54.501240
	 D(22,21,24,25)   =         0.989942	      56.719499
	 D(22,21,24,26)   =         3.010963	     172.515467
	 D(23,21,24,25)   =        -1.030533	     -59.045197
	 D(23,21,24,26)   =         0.990488	      56.750771
	 R(5,18)          =         6.862331	       3.631389

	Current energy   :      -314.9836806040

	Generating empirical Hessian (Schlegel '84) for each fragment.
	Taking RFO optimization step.
	Going to follow RFO solution 1.
	Using RFO vector 1.
	Norm of target step-size    0.00029
	Projected energy change by RFO approximation:        -0.0000000007

	Back-transformation to cartesian coordinates...
	Successfully converged to displaced geometry.

	--- Internal Coordinate Step in ANG or DEG, aJ/ANG or AJ/DEG ---
	 ---------------------------------------------------------------------------
	   Coordinate                Previous        Force       Change         New 
	   ----------                --------       ------       ------       ------
	    1 R(1,2)          =      1.089324    -0.000004    -0.000001     1.089323
	    2 R(1,3)          =      1.091426    -0.000003    -0.000001     1.091425
	    3 R(1,4)          =      1.089748    -0.000003    -0.000001     1.089748
	    4 R(1,9)          =      1.525107    -0.000001    -0.000000     1.525107
	    5 R(5,6)          =      1.089720    -0.000005    -0.000001     1.089719
	    6 R(5,7)          =      1.091445    -0.000006    -0.000001     1.091444
	    7 R(5,8)          =      1.090115    -0.000006    -0.000001     1.090114
	    8 R(5,12)         =      1.524522    -0.000002    -0.000000     1.524522
	    9 R(9,10)         =      1.093541    -0.000003    -0.000001     1.093540
	   10 R(9,11)         =      1.092267    -0.000001    -0.000000     1.092267
	   11 R(9,15)         =      1.526992    -0.000001    -0.000000     1.526992
	   12 R(12,13)        =      1.092139    -0.000008    -0.000002     1.092138
	   13 R(12,14)        =      1.092219    -0.000004    -0.000001     1.092218
	   14 R(12,24)        =      1.528592    -0.000001    -0.000000     1.528592
	   15 R(15,16)        =      1.093737    -0.000002    -0.000000     1.093736
	   16 R(15,17)        =      1.095231    -0.000003    -0.000001     1.095231
	   17 R(15,18)        =      1.524444     0.000002     0.000001     1.524445
	   18 R(18,19)        =      1.091999    -0.000006    -0.000001     1.091998
	   19 R(18,20)        =      1.095941    -0.000008    -0.000001     1.095939
	   20 R(18,21)        =      1.524084    -0.000003    -0.000001     1.524083
	   21 R(21,22)        =      1.093547    -0.000007    -0.000001     1.093545
	   22 R(21,23)        =      1.093751    -0.000003    -0.000001     1.093751
	   23 R(21,24)        =      1.528173    -0.000002    -0.000000     1.528173
	   24 R(24,25)        =      1.094004    -0.000007    -0.000001     1.094002
	   25 R(24,26)        =      1.093785    -0.000007    -0.000001     1.093784
	   26 B(1,9,10)       =    109.631427     0.000000     0.000038   109.631465
	   27 B(1,9,11)       =    109.134803    -0.000000    -0.000026   109.134778
	   28 B(1,9,15)       =    113.296394     0.000000    -0.000002   113.296392
	   29 B(2,1,3)        =    107.821458     0.000000     0.000012   107.821469
	   30 B(2,1,4)        =    107.577897     0.000000     0.000040   107.577937
	   31 B(2,1,9)        =    111.630597    -0.000000    -0.000057   111.630541
	   32 B(3,1,4)        =    107.861101     0.000000     0.000018   107.861119
	   33 B(3,1,9)        =    110.595708    -0.000000    -0.000036   110.595671
	   34 B(4,1,9)        =    111.189773     0.000000     0.000028   111.189800
	   35 B(5,12,13)      =    109.610623    -0.000000    -0.000046   109.610577
	   36 B(5,12,14)      =    109.334821     0.000000     0.000042   109.334863
	   37 B(5,12,24)      =    113.113307    -0.000000    -0.000009   113.113298
	   38 B(6,5,7)        =    107.910808    -0.000000    -0.000006   107.910802
	   39 B(6,5,8)        =    107.606783    -0.000000    -0.000007   107.606776
	   40 B(6,5,12)       =    111.192107     0.000000     0.000038   111.192145
	   41 B(7,5,8)        =    107.708625     0.000000     0.000016   107.708641
	   42 B(7,5,12)       =    110.752116    -0.000000    -0.000042   110.752074
	   43 B(8,5,12)       =    111.504513    -0.000000     0.000002   111.504515
	   44 B(9,15,16)      =    109.270036    -0.000000    -0.000094   109.269941
	   45 B(9,15,17)      =    109.167059    -0.000000     0.000062   109.167121
	   46 B(9,15,18)      =    113.894444     0.000000     0.000103   113.894547
	   47 B(10,9,11)      =    106.462407     0.000000     0.000018   106.462425
	   48 B(10,9,15)      =    109.089666    -0.000000     0.000007   109.089673
	   49 B(11,9,15)      =    108.996669    -0.000000    -0.000034   108.996634
	   50 B(12,24,21)     =    114.434134     0.000000     0.000138   114.434272
	   51 B(12,24,25)     =    108.756012     0.000000     0.000058   108.756070
	   52 B(12,24,26)     =    109.024297    -0.000000    -0.000086   109.024212
	   53 B(13,12,14)     =    106.141140    -0.000000    -0.000019   106.141121
	   54 B(13,12,24)     =    109.810417     0.000000     0.000033   109.810450
	   55 B(14,12,24)     =    108.586409    -0.000000    -0.000001   108.586408
	   56 B(15,18,19)     =    109.630750     0.000000     0.000231   109.630981
	   57 B(15,18,20)     =    109.276497     0.000000    -0.000133   109.276364
	   58 B(15,18,21)     =    112.333487    -0.000000    -0.000237   112.333250
	   59 B(16,15,17)     =    106.441989     0.000000     0.000025   106.442014
	   60 B(16,15,18)     =    108.729984    -0.000000    -0.000082   108.729903
	   61 B(17,15,18)     =    109.071190    -0.000000    -0.000019   109.071170
	   62 B(18,21,22)     =    109.092688    -0.000000     0.000010   109.092698
	   63 B(18,21,23)     =    108.914163    -0.000000    -0.000101   108.914063
	   64 B(18,21,24)     =    113.722126     0.000000     0.000080   113.722205
	   65 B(19,18,20)     =    106.560039    -0.000000     0.000062   106.560101
	   66 B(19,18,21)     =    109.520599     0.000000     0.000227   109.520826
	   67 B(20,18,21)     =    109.351024     0.000000    -0.000136   109.350888
	   68 B(21,24,25)     =    108.954063    -0.000000    -0.000015   108.954049
	   69 B(21,24,26)     =    108.846854    -0.000000    -0.000080   108.846774
	   70 B(22,21,23)     =    106.069249     0.000000    -0.000013   106.069236
	   71 B(22,21,24)     =    109.958647     0.000000     0.000185   109.958831
	   72 B(23,21,24)     =    108.796231    -0.000000    -0.000169   108.796061
	   73 B(25,24,26)     =    106.533734     0.000000    -0.000026   106.533708
	   74 D(1,9,15,16)    =    174.328941    -0.000000    -0.001906   174.327034
	   75 D(1,9,15,17)    =     58.291280    -0.000000    -0.001919    58.289361
	   76 D(1,9,15,18)    =    -63.872196    -0.000000    -0.002011   -63.874207
	   77 D(2,1,9,10)     =    -57.803280    -0.000000     0.000004   -57.803276
	   78 D(2,1,9,11)     =   -174.049688    -0.000000    -0.000024  -174.049712
	   79 D(2,1,9,15)     =     64.313498    -0.000000     0.000039    64.313537
	   80 D(3,1,9,10)     =   -177.851875     0.000000     0.000051  -177.851823
	   81 D(3,1,9,11)     =     65.901718    -0.000000     0.000023    65.901741
	   82 D(3,1,9,15)     =    -55.735096     0.000000     0.000087   -55.735009
	   83 D(4,1,9,10)     =     62.340219     0.000000     0.000035    62.340254
	   84 D(4,1,9,11)     =    -53.906189    -0.000000     0.000007   -53.906182
	   85 D(4,1,9,15)     =   -175.543003     0.000000     0.000071  -175.542932
	   86 D(5,12,24,21)   =     56.953779    -0.000000     0.001536    56.955315
	   87 D(5,12,24,25)   =    -65.122702    -0.000000     0.001417   -65.121284
	   88 D(5,12,24,26)   =    179.092758    -0.000000     0.001463   179.094221
	   89 D(6,5,12,13)    =    -62.292242    -0.000000    -0.000657   -62.292899
	   90 D(6,5,12,14)    =     53.669951    -0.000000    -0.000682    53.669269
	   91 D(6,5,12,24)    =    174.802800    -0.000000    -0.000659   174.802141
	   92 D(7,5,12,13)    =    177.731896    -0.000000    -0.000646   177.731250
	   93 D(7,5,12,14)    =    -66.305911    -0.000000    -0.000670   -66.306581
	   94 D(7,5,12,24)    =     54.826938    -0.000000    -0.000648    54.826290
	   95 D(8,5,12,13)    =     57.804135    -0.000000    -0.000639    57.803497
	   96 D(8,5,12,14)    =    173.766329    -0.000000    -0.000663   173.765665
	   97 D(8,5,12,24)    =    -65.100823    -0.000000    -0.000640   -65.101463
	   98 D(9,15,18,19)   =     60.521936     0.000000     0.001852    60.523788
	   99 D(9,15,18,20)   =    -55.922369    -0.000000     0.001722   -55.920647
	  100 D(9,15,18,21)   =   -177.468023     0.000000     0.002145  -177.465878
	  101 D(10,9,15,16)   =    -63.252774    -0.000000    -0.001854   -63.254628
	  102 D(10,9,15,17)   =   -179.290435    -0.000000    -0.001866  -179.292301
	  103 D(10,9,15,18)   =     58.546089    -0.000000    -0.001958    58.544131
	  104 D(11,9,15,16)   =     52.614753    -0.000000    -0.001848    52.612906
	  105 D(11,9,15,17)   =    -63.422908    -0.000000    -0.001860   -63.424768
	  106 D(11,9,15,18)   =    174.413616    -0.000000    -0.001952   174.411664
	  107 D(12,24,21,18)  =     57.414086    -0.000000    -0.001519    57.412568
	  108 D(12,24,21,22)  =    -65.248838    -0.000000    -0.001727   -65.250565
	  109 D(12,24,21,23)  =    178.986466    -0.000000    -0.001717   178.984749
	  110 D(13,12,24,21)  =    -65.840322     0.000000     0.001578   -65.838744
	  111 D(13,12,24,25)  =    172.083197     0.000000     0.001459   172.084657
	  112 D(13,12,24,26)  =     56.298657     0.000000     0.001505    56.300162
	  113 D(14,12,24,21)  =    178.508797     0.000000     0.001583   178.510380
	  114 D(14,12,24,25)  =     56.432316     0.000000     0.001464    56.433780
	  115 D(14,12,24,26)  =    -59.352225     0.000000     0.001510   -59.350715
	  116 D(15,18,21,22)  =    -60.858076    -0.000000    -0.004478   -60.862553
	  117 D(15,18,21,23)  =     54.497552    -0.000000    -0.004543    54.493009
	  118 D(15,18,21,24)  =    176.004312    -0.000000    -0.004780   175.999532
	  119 D(16,15,18,19)  =   -177.381007     0.000000     0.001740  -177.379267
	  120 D(16,15,18,20)  =     66.174687    -0.000000     0.001611    66.176298
	  121 D(16,15,18,21)  =    -55.370966     0.000000     0.002033   -55.368933
	  122 D(17,15,18,19)  =    -61.694335     0.000000     0.001715   -61.692619
	  123 D(17,15,18,20)  =   -178.138640    -0.000000     0.001586  -178.137054
	  124 D(17,15,18,21)  =     60.315706     0.000000     0.002008    60.317715
	  125 D(18,21,24,25)  =    179.382423     0.000000    -0.001360   179.381064
	  126 D(18,21,24,26)  =    -64.821608    -0.000000    -0.001442   -64.823051
	  127 D(19,18,21,22)  =     61.214550    -0.000000    -0.004182    61.210368
	  128 D(19,18,21,23)  =    176.570178    -0.000000    -0.004248   176.565931
	  129 D(19,18,21,24)  =    -61.923062    -0.000000    -0.004485   -61.927547
	  130 D(20,18,21,22)  =    177.638853     0.000000    -0.004057   177.634796
	  131 D(20,18,21,23)  =    -67.005519     0.000000    -0.004122   -67.009642
	  132 D(20,18,21,24)  =     54.501240    -0.000000    -0.004359    54.496881
	  133 D(22,21,24,25)  =     56.719499     0.000000    -0.001568    56.717931
	  134 D(22,21,24,26)  =    172.515467    -0.000000    -0.001651   172.513816
	  135 D(23,21,24,25)  =    -59.045197    -0.000000    -0.001558   -59.046755
	  136 D(23,21,24,26)  =     56.750771    -0.000000    -0.001641    56.749130
	  137 R(5,18)         =      3.631389     0.000001     0.000004     3.631393
	 ---------------------------------------------------------------------------

  ==> Convergence Check <==

  Measures of convergence in internal coordinates in au.
  Criteria marked as inactive (o), active & met (*), and active & unmet ( ).
  --------------------------------------------------------------------------------------------- ~
   Step     Total Energy     Delta E     MAX Force     RMS Force      MAX Disp      RMS Disp    ~
  --------------------------------------------------------------------------------------------- ~
    Convergence Criteria             o    2.00e-06 *    1.00e-06 *    6.00e-06 *    4.00e-06 *  ~
  --------------------------------------------------------------------------------------------- ~
      1    -314.98368060   -3.15e+02 o    1.02e-06 *    2.68e-07 *    8.34e-05      2.50e-05    ~
  ---------------------------------------------------------------------------------------------

	Writing optimization data to binary file.
	Structure for next step:
	Cartesian Geometry (in Angstrom)
	    C     2.9380014562   1.3574248071   0.2085411369
	    H     2.1238110314   1.7481580070   0.8176773879
	    H     2.8210128702   1.7558984723  -0.8007859643
	    H     3.8703749115   1.7476216982   0.6159424134
	    C    -2.6015044921   1.3390169623  -0.7069360488
	    H    -2.9611733269   2.3508210169  -0.5215240333
	    H    -3.2971294122   0.8564642723  -1.3957746921
	    H    -1.6379190078   1.4186776375  -1.2104293240
	    C     2.9416324178  -0.1675141872   0.1862132955
	    H     3.0210857939  -0.5497172319   1.2077012845
	    H     3.8304974815  -0.5157011062  -0.3445699937
	    C    -2.4900455123   0.5472311458   0.5910698161
	    H    -1.7604206238   1.0235596962   1.2494946056
	    H    -3.4451108485   0.5831918597   1.1197444509
	    C     1.7017818052  -0.7647513875  -0.4754374117
	    H     1.8180758760  -1.8499409667  -0.5468429181
	    H     1.6279424667  -0.3926190291  -1.5028592764
	    C     0.4017478822  -0.4590745957   0.2596852599
	    H     0.2475087256   0.6212793434   0.2984754881
	    H     0.4843248659  -0.8002937355   1.2978726159
	    C    -0.8038484104  -1.1224284818  -0.3955465595
	    H    -0.9071043619  -0.7471645625  -1.4174843693
	    H    -0.6129164161  -2.1956653548  -0.4849770516
	    C    -2.1102933078  -0.9168613427   0.3701267575
	    H    -2.9213063856  -1.4127722395  -0.1713261501
	    H    -2.0333319579  -1.4155881762   1.3405446490
			--------------------------
			 OPTKING Finished Execution 
			--------------------------

    Structure for next step:
    Molecular point group: c1
    Full point group: C1

    Geometry (in Angstrom), charge = 0, multiplicity = 1:

    C            2.938001608739     1.357423538421     0.208541490035
    H            2.123811183904     1.748156738367     0.817677741110
    H            2.821013022698     1.755897203604    -0.800785611148
    H            3.870375064019     1.747620429522     0.615942766602
    C           -2.601504339562     1.339015693597    -0.706935695576
    H           -2.961173174350     2.350819748191    -0.521523680084
    H           -3.297129259642     0.856463003604    -1.395774338905
    H           -1.637918855264     1.418676368865    -1.210428970832
    C            2.941632570294    -0.167515455813     0.186213648646
    H            3.021085946381    -0.549718500557     1.207701637653
    H            3.830497634022    -0.515702374831    -0.344569640485
    C           -2.490045359765     0.547229877117     0.591070169259
    H           -1.760420471291     1.023558427528     1.249494958778
    H           -3.445110695986     0.583190591076     1.119744804088
    C            1.701781957711    -0.764752656142    -0.475437058527
    H            1.818076028512    -1.849942235390    -0.546842564907
    H            1.627942619248    -0.392620297804    -1.502858923259
    C            0.401748034760    -0.459075864361     0.259685613094
    H            0.247508878150     0.621278074703     0.298475841299
    H            0.484325018387    -0.800295004139     1.297872969040
    C           -0.803848257884    -1.122429750478    -0.395546206300
    H           -0.907104209434    -0.747165831144    -1.417484016127
    H           -0.612916263627    -2.195666623445    -0.484976698444
    C           -2.110293155298    -0.916862611339     0.370127110694
    H           -2.921306233046    -1.412773508114    -0.171325796897
    H           -2.033331805356    -1.415589444890     1.340545002158

gradient() will perform analytic gradient computation.

*** tstart() called on wr36
*** at Tue Sep 20 22:47:53 2016


         ---------------------------------------------------------
                                   SCF
            by Justin Turney, Rob Parrish, and Andy Simmonett
                              RHF Reference
                       12 Threads,  60000 MiB Core
         ---------------------------------------------------------

  ==> Geometry <==

    Molecular point group: c1
    Full point group: C1

    Geometry (in Angstrom), charge = 0, multiplicity = 1:

       Center              X                  Y                   Z               Mass       
    ------------   -----------------  -----------------  -----------------  -----------------
           C          2.938001608739     1.357423538421     0.208541490035    12.000000000000
           H          2.123811183904     1.748156738367     0.817677741110     1.007825032070
           H          2.821013022698     1.755897203604    -0.800785611148     1.007825032070
           H          3.870375064019     1.747620429522     0.615942766602     1.007825032070
           C         -2.601504339562     1.339015693597    -0.706935695576    12.000000000000
           H         -2.961173174350     2.350819748191    -0.521523680084     1.007825032070
           H         -3.297129259642     0.856463003604    -1.395774338905     1.007825032070
           H         -1.637918855264     1.418676368865    -1.210428970832     1.007825032070
           C          2.941632570294    -0.167515455813     0.186213648646    12.000000000000
           H          3.021085946381    -0.549718500557     1.207701637653     1.007825032070
           H          3.830497634022    -0.515702374831    -0.344569640485     1.007825032070
           C         -2.490045359765     0.547229877117     0.591070169259    12.000000000000
           H         -1.760420471291     1.023558427528     1.249494958778     1.007825032070
           H         -3.445110695986     0.583190591076     1.119744804088     1.007825032070
           C          1.701781957711    -0.764752656142    -0.475437058527    12.000000000000
           H          1.818076028512    -1.849942235390    -0.546842564907     1.007825032070
           H          1.627942619248    -0.392620297804    -1.502858923259     1.007825032070
           C          0.401748034760    -0.459075864361     0.259685613094    12.000000000000
           H          0.247508878150     0.621278074703     0.298475841299     1.007825032070
           H          0.484325018387    -0.800295004139     1.297872969040     1.007825032070
           C         -0.803848257884    -1.122429750478    -0.395546206300    12.000000000000
           H         -0.907104209434    -0.747165831144    -1.417484016127     1.007825032070
           H         -0.612916263627    -2.195666623445    -0.484976698444     1.007825032070
           C         -2.110293155298    -0.916862611339     0.370127110694    12.000000000000
           H         -2.921306233046    -1.412773508114    -0.171325796897     1.007825032070
           H         -2.033331805356    -1.415589444890     1.340545002158     1.007825032070

  Running in c1 symmetry.

  Rotational constants: A =      0.11064  B =      0.02778  C =      0.02456 [cm^-1]
  Rotational constants: A =   3317.04504  B =    832.71312  C =    736.15953 [MHz]
  Nuclear repulsion =  395.556945197245625

  Charge       = 0
  Multiplicity = 1
  Electrons    = 66
  Nalpha       = 33
  Nbeta        = 33

  ==> Algorithm <==

  SCF Algorithm Type is DF.
  DIIS enabled.
  MOM disabled.
  Fractional occupation disabled.
  Guess Type is READ.
  Energy threshold   = 1.00e-10
  Density threshold  = 1.00e-10
  Integral threshold = 0.00e+00

  ==> Primary Basis <==

  Basis Set: AUG-CC-PVTZ
    Number of shells: 274
    Number of basis function: 782
    Number of Cartesian functions: 890
    Spherical Harmonics?: true
    Max angular momentum: 3

  ==> Pre-Iterations <==

   -------------------------------------------------------
    Irrep   Nso     Nmo     Nalpha   Nbeta   Ndocc  Nsocc
   -------------------------------------------------------
     A        782     782       0       0       0       0
   -------------------------------------------------------
    Total     782     782      33      33      33       0
   -------------------------------------------------------

  ==> Integral Setup <==

  ==> DFJK: Density-Fitted J/K Matrices <==

    J tasked:                  Yes
    K tasked:                  Yes
    wK tasked:                  No
    OpenMP threads:             12
    Integrals threads:          12
    Memory (MB):             42915
    Algorithm:                Core
    Integral Cache:           NONE
    Schwarz Cutoff:          1E-12
    Fitting Condition:       1E-12

   => Auxiliary Basis Set <=

  Basis Set: 
    Number of shells: 492
    Number of basis function: 1660
    Number of Cartesian functions: 2038
    Spherical Harmonics?: true
    Max angular momentum: 4

  Minimum eigenvalue in the overlap matrix is 2.3543098344E-06.
  Using Symmetric Orthogonalization.
  SCF Guess: Reading in previously saved MOs, projecting if necessary.

  Using orbitals from previous SCF, no projection.
  Recomputing DOCC and SOCC from number of alpha and beta electrons from previous calculation.
              A 
    DOCC [    33 ]

  ==> Iterations <==

                           Total Energy        Delta E     RMS |[F,P]|

   @DF-RHF iter   0:  -313.54189642748435   -3.13542e+02   2.16608e-07 
   @DF-RHF iter   1:  -313.54184863873564    4.77887e-05   4.93839e-08 
   @DF-RHF iter   2:  -313.54184864001689   -1.28125e-09   2.12534e-08 DIIS
   @DF-RHF iter   3:  -313.54184864021346   -1.96565e-10   8.12783e-09 DIIS
   @DF-RHF iter   4:  -313.54184864025541   -4.19504e-11   9.14782e-10 DIIS
   @DF-RHF iter   5:  -313.54184864025564   -2.27374e-13   3.24521e-10 DIIS
   @DF-RHF iter   6:  -313.54184864025632   -6.82121e-13   7.76192e-11 DIIS

  ==> Post-Iterations <==

    Orbital Energies (a.u.)
    -----------------------

    Doubly Occupied:                                                      

       1A    -11.212938     2A    -11.212094     3A    -11.210585  
       4A    -11.210431     5A    -11.209376     6A    -11.208710  
       7A    -11.206996     8A    -11.206881     9A     -1.094769  
      10A     -1.061255    11A     -1.006238    12A     -0.946535  
      13A     -0.887148    14A     -0.836890    15A     -0.777843  
      16A     -0.756577    17A     -0.650016    18A     -0.627831  
      19A     -0.609846    20A     -0.603100    21A     -0.576677  
      22A     -0.554322    23A     -0.544311    24A     -0.531275  
      25A     -0.512567    26A     -0.505599    27A     -0.490006  
      28A     -0.474128    29A     -0.463436    30A     -0.459314  
      31A     -0.450036    32A     -0.441071    33A     -0.431909  

    Virtual:                                                              

      34A      0.028268    35A      0.032624    36A      0.033975  
      37A      0.035438    38A      0.046086    39A      0.047097  
      40A      0.049727    41A      0.053799    42A      0.056201  
      43A      0.066649    44A      0.068815    45A      0.069909  
      46A      0.072756    47A      0.076919    48A      0.087826  
      49A      0.094154    50A      0.095390    51A      0.102937  
      52A      0.115174    53A      0.116497    54A      0.117328  
      55A      0.121046    56A      0.127540    57A      0.132723  
      58A      0.134641    59A      0.137983    60A      0.138625  
      61A      0.139433    62A      0.145641    63A      0.150588  
      64A      0.156990    65A      0.159319    66A      0.160090  
      67A      0.164251    68A      0.166911    69A      0.171290  
      70A      0.172539    71A      0.181188    72A      0.183336  
      73A      0.186865    74A      0.196535    75A      0.199763  
      76A      0.204373    77A      0.210973    78A      0.217542  
      79A      0.226630    80A      0.229518    81A      0.237082  
      82A      0.246275    83A      0.254623    84A      0.255859  
      85A      0.269402    86A      0.277559    87A      0.280339  
      88A      0.282296    89A      0.294514    90A      0.296766  
      91A      0.300503    92A      0.302937    93A      0.308489  
      94A      0.312061    95A      0.312501    96A      0.320841  
      97A      0.325403    98A      0.327603    99A      0.330957  
     100A      0.333380   101A      0.336121   102A      0.337866  
     103A      0.343791   104A      0.352127   105A      0.355187  
     106A      0.359870   107A      0.361121   108A      0.363343  
     109A      0.366092   110A      0.369178   111A      0.372496  
     112A      0.374347   113A      0.381447   114A      0.388587  
     115A      0.390908   116A      0.392073   117A      0.399044  
     118A      0.402097   119A      0.406639   120A      0.413712  
     121A      0.419240   122A      0.421018   123A      0.423748  
     124A      0.426883   125A      0.433980   126A      0.437805  
     127A      0.440723   128A      0.444779   129A      0.450219  
     130A      0.453551   131A      0.456466   132A      0.459822  
     133A      0.465102   134A      0.468061   135A      0.470807  
     136A      0.477354   137A      0.478954   138A      0.480914  
     139A      0.483850   140A      0.486974   141A      0.489973  
     142A      0.495398   143A      0.496846   144A      0.501645  
     145A      0.506256   146A      0.512125   147A      0.517953  
     148A      0.519525   149A      0.522519   150A      0.527078  
     151A      0.530494   152A      0.536975   153A      0.542078  
     154A      0.545247   155A      0.551644   156A      0.555218  
     157A      0.557266   158A      0.560122   159A      0.565628  
     160A      0.570359   161A      0.576917   162A      0.579948  
     163A      0.581768   164A      0.583710   165A      0.590942  
     166A      0.595274   167A      0.596270   168A      0.603422  
     169A      0.605361   170A      0.613878   171A      0.618721  
     172A      0.624763   173A      0.626581   174A      0.633115  
     175A      0.640734   176A      0.645070   177A      0.647156  
     178A      0.656942   179A      0.657304   180A      0.664768  
     181A      0.668103   182A      0.676471   183A      0.677508  
     184A      0.684430   185A      0.693480   186A      0.693950  
     187A      0.703696   188A      0.706470   189A      0.710813  
     190A      0.712812   191A      0.725562   192A      0.727884  
     193A      0.731742   194A      0.738817   195A      0.745368  
     196A      0.749653   197A      0.767218   198A      0.774325  
     199A      0.778330   200A      0.791334   201A      0.798645  
     202A      0.803216   203A      0.807792   204A      0.819445  
     205A      0.833205   206A      0.843413   207A      0.846104  
     208A      0.852215   209A      0.857418   210A      0.862103  
     211A      0.865846   212A      0.872670   213A      0.882250  
     214A      0.888181   215A      0.889895   216A      0.894092  
     217A      0.900834   218A      0.907630   219A      0.909094  
     220A      0.912587   221A      0.916770   222A      0.919840  
     223A      0.927655   224A      0.930116   225A      0.932947  
     226A      0.938644   227A      0.946602   228A      0.950270  
     229A      0.956188   230A      0.967996   231A      0.970316  
     232A      0.971690   233A      0.975063   234A      0.983542  
     235A      0.988728   236A      0.990904   237A      0.994646  
     238A      1.001351   239A      1.008192   240A      1.011122  
     241A      1.015913   242A      1.021849   243A      1.025164  
     244A      1.040276   245A      1.041758   246A      1.043827  
     247A      1.051877   248A      1.052293   249A      1.059377  
     250A      1.068411   251A      1.069103   252A      1.074022  
     253A      1.081215   254A      1.083924   255A      1.088696  
     256A      1.094118   257A      1.099699   258A      1.103538  
     259A      1.112493   260A      1.114242   261A      1.124283  
     262A      1.126334   263A      1.127819   264A      1.136672  
     265A      1.144945   266A      1.152491   267A      1.156521  
     268A      1.162714   269A      1.164918   270A      1.171618  
     271A      1.175075   272A      1.184102   273A      1.188857  
     274A      1.191382   275A      1.193667   276A      1.202104  
     277A      1.208842   278A      1.213474   279A      1.216441  
     280A      1.223690   281A      1.227765   282A      1.232250  
     283A      1.242848   284A      1.244798   285A      1.246413  
     286A      1.253317   287A      1.258704   288A      1.263015  
     289A      1.268166   290A      1.272987   291A      1.280001  
     292A      1.282018   293A      1.287948   294A      1.290495  
[...]
	 D(17,15,18,19)   =        -1.076772	     -61.694475
	 D(17,15,18,20)   =        -3.109108	    -178.138786
	 D(17,15,18,21)   =         1.052706	      60.315636
	 D(18,21,24,25)   =         3.130812	     179.382325
	 D(18,21,24,26)   =        -1.131352	     -64.821706
	 D(19,18,21,22)   =         1.068384	      61.213874
	 D(19,18,21,23)   =         3.081720	     176.569522
	 D(19,18,21,24)   =        -1.080775	     -61.923824
	 D(20,18,21,22)   =         3.100371	     177.638157
	 D(20,18,21,23)   =        -1.169479	     -67.006195
	 D(20,18,21,24)   =         0.951212	      54.500459
	 D(22,21,24,25)   =         0.989939	      56.719337
	 D(22,21,24,26)   =         3.010960	     172.515306
	 D(23,21,24,25)   =        -1.030536	     -59.045369
	 D(23,21,24,26)   =         0.990485	      56.750600
	 R(5,18)          =         6.862331	       3.631389

	Current energy   :      -314.9836805999

	Energy change for the previous step:
		Projected    :        -0.0000000000
		Actual       :         0.0000000009

	Performing BFGS update.
	Previous computed or guess Hessian on step 1.
	Denominators (dg)(dq) or (dq)(dq) are very small.
	 Skipping Hessian update for step 11.
	Denominators (dg)(dq) or (dq)(dq) are very small.
	 Skipping Hessian update for step 10.
	Denominators (dg)(dq) or (dq)(dq) are very small.
	 Skipping Hessian update for step 9.
	Denominators (dg)(dq) or (dq)(dq) are very small.
	 Skipping Hessian update for step 8.
	Denominators (dg)(dq) or (dq)(dq) are very small.
	 Skipping Hessian update for step 7.
	Denominators (dg)(dq) or (dq)(dq) are very small.
	 Skipping Hessian update for step 6.
	Denominators (dg)(dq) or (dq)(dq) are very small.
	 Skipping Hessian update for step 5.
	Denominators (dg)(dq) or (dq)(dq) are very small.
	 Skipping Hessian update for step 4.
	Denominators (dg)(dq) or (dq)(dq) are very small.
	 Skipping Hessian update for step 3.
	Denominators (dg)(dq) or (dq)(dq) are very small.
	 Skipping Hessian update for step 2.
	Steps to be used in Hessian update: 1
	Taking RFO optimization step.
	Going to follow RFO solution 1.
	Using RFO vector 1.
	Norm of target step-size    0.00002
	Projected energy change by RFO approximation:        -0.0000000000

	Back-transformation to cartesian coordinates...
	Successfully converged to displaced geometry.

	--- Internal Coordinate Step in ANG or DEG, aJ/ANG or AJ/DEG ---
	 ---------------------------------------------------------------------------
	   Coordinate                Previous        Force       Change         New 
	   ----------                --------       ------       ------       ------
	    1 R(1,2)          =      1.089324    -0.000001    -0.000000     1.089324
	    2 R(1,3)          =      1.091426    -0.000001    -0.000000     1.091426
	    3 R(1,4)          =      1.089748    -0.000001    -0.000000     1.089748
	    4 R(1,9)          =      1.525107    -0.000000    -0.000000     1.525107
	    5 R(5,6)          =      1.089719    -0.000000    -0.000000     1.089719
	    6 R(5,7)          =      1.091445     0.000000    -0.000000     1.091445
	    7 R(5,8)          =      1.090115     0.000000    -0.000000     1.090115
	    8 R(5,12)         =      1.524522     0.000000     0.000000     1.524522
	    9 R(9,10)         =      1.093541    -0.000001    -0.000000     1.093541
	   10 R(9,11)         =      1.092267    -0.000001    -0.000000     1.092267
	   11 R(9,15)         =      1.526992    -0.000000    -0.000000     1.526992
	   12 R(12,13)        =      1.092139    -0.000000    -0.000000     1.092138
	   13 R(12,14)        =      1.092218    -0.000001    -0.000000     1.092218
	   14 R(12,24)        =      1.528592    -0.000000    -0.000000     1.528592
	   15 R(15,16)        =      1.093737    -0.000000     0.000000     1.093737
	   16 R(15,17)        =      1.095232    -0.000000    -0.000000     1.095232
	   17 R(15,18)        =      1.524445    -0.000001     0.000000     1.524445
	   18 R(18,19)        =      1.091999     0.000001     0.000000     1.091999
	   19 R(18,20)        =      1.095941     0.000001     0.000000     1.095941
	   20 R(18,21)        =      1.524084     0.000002     0.000000     1.524084
	   21 R(21,22)        =      1.093547     0.000001     0.000000     1.093547
	   22 R(21,23)        =      1.093751     0.000001    -0.000000     1.093751
	   23 R(21,24)        =      1.528173    -0.000000    -0.000000     1.528173
	   24 R(24,25)        =      1.094003     0.000000    -0.000000     1.094003
	   25 R(24,26)        =      1.093785    -0.000000    -0.000000     1.093784
	   26 B(1,9,10)       =    109.631440     0.000000    -0.000009   109.631432
	   27 B(1,9,11)       =    109.134793     0.000000     0.000026   109.134819
	   28 B(1,9,15)       =    113.296380    -0.000000    -0.000032   113.296348
	   29 B(2,1,3)        =    107.821456     0.000000     0.000005   107.821461
	   30 B(2,1,4)        =    107.577908     0.000000     0.000004   107.577912
	   31 B(2,1,9)        =    111.630605    -0.000000    -0.000019   111.630586
	   32 B(3,1,4)        =    107.861106     0.000000     0.000006   107.861112
	   33 B(3,1,9)        =    110.595711    -0.000000    -0.000007   110.595704
	   34 B(4,1,9)        =    111.189748     0.000000     0.000012   111.189760
	   35 B(5,12,13)      =    109.610606     0.000000    -0.000009   109.610598
	   36 B(5,12,14)      =    109.334842     0.000000     0.000018   109.334860
	   37 B(5,12,24)      =    113.113287    -0.000000    -0.000007   113.113280
	   38 B(6,5,7)        =    107.910807     0.000000    -0.000001   107.910806
	   39 B(6,5,8)        =    107.606781    -0.000000    -0.000004   107.606777
	   40 B(6,5,12)       =    111.192113    -0.000000     0.000003   111.192116
	   41 B(7,5,8)        =    107.708632    -0.000000     0.000002   107.708633
	   42 B(7,5,12)       =    110.752106     0.000000    -0.000005   110.752101
	   43 B(8,5,12)       =    111.504515     0.000000     0.000005   111.504520
	   44 B(9,15,16)      =    109.270029     0.000000    -0.000004   109.270024
	   45 B(9,15,17)      =    109.167041     0.000000    -0.000007   109.167033
	   46 B(9,15,18)      =    113.894434    -0.000000    -0.000023   113.894411
	   47 B(10,9,11)      =    106.462420    -0.000000     0.000010   106.462430
	   48 B(10,9,15)      =    109.089688     0.000000    -0.000010   109.089678
	   49 B(11,9,15)      =    108.996646     0.000000     0.000017   108.996663
	   50 B(12,24,21)     =    114.434143    -0.000000    -0.000009   114.434135
	   51 B(12,24,25)     =    108.756031     0.000000     0.000004   108.756035
	   52 B(12,24,26)     =    109.024277     0.000000     0.000012   109.024289
	   53 B(13,12,14)     =    106.141141    -0.000000    -0.000007   106.141135
	   54 B(13,12,24)     =    109.810447     0.000000    -0.000002   109.810445
	   55 B(14,12,24)     =    108.586395     0.000000     0.000006   108.586401
	   56 B(15,18,19)     =    109.630823    -0.000000    -0.000018   109.630805
	   57 B(15,18,20)     =    109.276467     0.000000     0.000017   109.276483
	   58 B(15,18,21)     =    112.333462     0.000000    -0.000006   112.333456
	   59 B(16,15,17)     =    106.442004    -0.000000     0.000013   106.442017
	   60 B(16,15,18)     =    108.730030     0.000000     0.000024   108.730053
	   61 B(17,15,18)     =    109.071166     0.000000     0.000001   109.071167
	   62 B(18,21,22)     =    109.092704    -0.000000    -0.000003   109.092701
	   63 B(18,21,23)     =    108.914148    -0.000000    -0.000018   108.914130
	   64 B(18,21,24)     =    113.722124     0.000000     0.000049   113.722173
	   65 B(19,18,20)     =    106.560024    -0.000000    -0.000006   106.560018
	   66 B(19,18,21)     =    109.520627     0.000000     0.000021   109.520648
	   67 B(20,18,21)     =    109.350994    -0.000000    -0.000008   109.350986
	   68 B(21,24,25)     =    108.954044     0.000000    -0.000010   108.954035
	   69 B(21,24,26)     =    108.846859     0.000000     0.000004   108.846862
	   70 B(22,21,23)     =    106.069266     0.000000    -0.000004   106.069261
	   71 B(22,21,24)     =    109.958705    -0.000000    -0.000025   109.958680
	   72 B(23,21,24)     =    108.796158    -0.000000    -0.000002   108.796156
	   73 B(25,24,26)     =    106.533741    -0.000000    -0.000001   106.533740
	   74 D(1,9,15,16)    =    174.328630     0.000000     0.000222   174.328851
	   75 D(1,9,15,17)    =     58.290964     0.000000     0.000213    58.291178
	   76 D(1,9,15,18)    =    -63.872461     0.000000     0.000234   -63.872227
	   77 D(2,1,9,10)     =    -57.803277     0.000000    -0.000008   -57.803285
	   78 D(2,1,9,11)     =   -174.049702    -0.000000    -0.000030  -174.049732
	   79 D(2,1,9,15)     =     64.313531    -0.000000    -0.000050    64.313481
	   80 D(3,1,9,10)     =   -177.851877     0.000000     0.000003  -177.851874
	   81 D(3,1,9,11)     =     65.901698     0.000000    -0.000019    65.901679
	   82 D(3,1,9,15)     =    -55.735070    -0.000000    -0.000038   -55.735108
	   83 D(4,1,9,10)     =     62.340225     0.000000    -0.000008    62.340217
	   84 D(4,1,9,11)     =    -53.906200    -0.000000    -0.000030   -53.906231
	   85 D(4,1,9,15)     =   -175.542968    -0.000000    -0.000050  -175.543017
	   86 D(5,12,24,21)   =     56.953928    -0.000000    -0.000063    56.953865
	   87 D(5,12,24,25)   =    -65.122549     0.000000    -0.000047   -65.122596
	   88 D(5,12,24,26)   =    179.092903    -0.000000    -0.000055   179.092848
	   89 D(6,5,12,13)    =    -62.292427    -0.000000    -0.000120   -62.292547
	   90 D(6,5,12,14)    =     53.669770     0.000000    -0.000123    53.669648
	   91 D(6,5,12,24)    =    174.802603     0.000000    -0.000106   174.802497
	   92 D(7,5,12,13)    =    177.731716    -0.000000    -0.000118   177.731598
	   93 D(7,5,12,14)    =    -66.306087     0.000000    -0.000120   -66.306207
	   94 D(7,5,12,24)    =     54.826746     0.000000    -0.000104    54.826642
	   95 D(8,5,12,13)    =     57.803953    -0.000000    -0.000120    57.803833
	   96 D(8,5,12,14)    =    173.766150     0.000000    -0.000122   173.766029
	   97 D(8,5,12,24)    =    -65.101017     0.000000    -0.000106   -65.101123
	   98 D(9,15,18,19)   =     60.521748    -0.000000     0.000183    60.521931
	   99 D(9,15,18,20)   =    -55.922564     0.000000     0.000191   -55.922373
	  100 D(9,15,18,21)   =   -177.468141    -0.000000     0.000193  -177.467948
	  101 D(10,9,15,16)   =    -63.253061    -0.000000     0.000182   -63.252879
	  102 D(10,9,15,17)   =   -179.290726    -0.000000     0.000173  -179.290553
	  103 D(10,9,15,18)   =     58.545849     0.000000     0.000193    58.546042
	  104 D(11,9,15,16)   =     52.614481     0.000000     0.000198    52.614679
	  105 D(11,9,15,17)   =    -63.423184     0.000000     0.000189   -63.422994
	  106 D(11,9,15,18)   =    174.413391     0.000000     0.000209   174.413601
	  107 D(12,24,21,18)  =     57.413971     0.000000    -0.000040    57.413931
	  108 D(12,24,21,22)  =    -65.249016     0.000000    -0.000052   -65.249069
	  109 D(12,24,21,23)  =    178.986277     0.000000    -0.000032   178.986245
	  110 D(13,12,24,21)  =    -65.840159    -0.000000    -0.000045   -65.840204
	  111 D(13,12,24,25)  =    172.083364     0.000000    -0.000030   172.083335
	  112 D(13,12,24,26)  =     56.298816    -0.000000    -0.000038    56.298778
	  113 D(14,12,24,21)  =    178.508949    -0.000000    -0.000040   178.508909
	  114 D(14,12,24,25)  =     56.432473     0.000000    -0.000024    56.432448
	  115 D(14,12,24,26)  =    -59.352076    -0.000000    -0.000032   -59.352108
	  116 D(15,18,21,22)  =    -60.858848     0.000000     0.000280   -60.858568
	  117 D(15,18,21,23)  =     54.496800     0.000000     0.000264    54.497064
	  118 D(15,18,21,24)  =    176.003454     0.000000     0.000280   176.003734
	  119 D(16,15,18,19)  =   -177.381178    -0.000000     0.000179  -177.380999
	  120 D(16,15,18,20)  =     66.174511    -0.000000     0.000187    66.174698
	  121 D(16,15,18,21)  =    -55.371067    -0.000000     0.000190   -55.370877
	  122 D(17,15,18,19)  =    -61.694475     0.000000     0.000207   -61.694267
	  123 D(17,15,18,20)  =   -178.138786     0.000000     0.000216  -178.138571
	  124 D(17,15,18,21)  =     60.315636     0.000000     0.000218    60.315854
	  125 D(18,21,24,25)  =    179.382325    -0.000000    -0.000048   179.382276
	  126 D(18,21,24,26)  =    -64.821706     0.000000    -0.000052   -64.821759
	  127 D(19,18,21,22)  =     61.213874     0.000000     0.000269    61.214143
	  128 D(19,18,21,23)  =    176.569522    -0.000000     0.000252   176.569774
	  129 D(19,18,21,24)  =    -61.923824     0.000000     0.000269   -61.923556
	  130 D(20,18,21,22)  =    177.638157     0.000000     0.000268   177.638426
	  131 D(20,18,21,23)  =    -67.006195    -0.000000     0.000252   -67.005943
	  132 D(20,18,21,24)  =     54.500459     0.000000     0.000268    54.500727
	  133 D(22,21,24,25)  =     56.719337    -0.000000    -0.000061    56.719277
	  134 D(22,21,24,26)  =    172.515306    -0.000000    -0.000065   172.515242
	  135 D(23,21,24,25)  =    -59.045369     0.000000    -0.000041   -59.045410
	  136 D(23,21,24,26)  =     56.750600     0.000000    -0.000045    56.750555
	  137 R(5,18)         =      3.631389    -0.000000    -0.000001     3.631388
	 ---------------------------------------------------------------------------

  ==> Convergence Check <==

  Measures of convergence in internal coordinates in au.
  Criteria marked as inactive (o), active & met (*), and active & unmet ( ).
  ---------------------------------------------------------------------------------------------
   Step     Total Energy     Delta E     MAX Force     RMS Force      MAX Disp      RMS Disp   
  ---------------------------------------------------------------------------------------------
    Convergence Criteria             o    2.00e-06 *    1.00e-06 *    6.00e-06 *    4.00e-06 *
  ---------------------------------------------------------------------------------------------
     12    -314.98368060    9.01e-10 o    2.16e-07 *    6.15e-08 *    4.89e-06 *    1.87e-06 *  ~
  ---------------------------------------------------------------------------------------------


  **** Optimization is complete! (in 12 steps) ****

  ==> Optimization Summary <==

  Measures of convergence in internal coordinates in au.
  --------------------------------------------------------------------------------------------------------------- ~
   Step         Total Energy             Delta E       MAX Force       RMS Force        MAX Disp        RMS Disp  ~
  --------------------------------------------------------------------------------------------------------------- ~
      1    -314.983680603988   -314.983680603988      0.00000102      0.00000027      0.00008343      0.00002505  ~
      2    -314.983680598373      0.000000005615      0.00000169      0.00000047      0.00004958      0.00001878  ~
      3    -314.983680597634      0.000000000739      0.00000185      0.00000045      0.00002314      0.00000931  ~
      4    -314.983680603747     -0.000000006113      0.00000040      0.00000011      0.00002005      0.00000751  ~
      5    -314.983680600477      0.000000003270      0.00000142      0.00000037      0.00001517      0.00000641  ~
      6    -314.983680596919      0.000000003558      0.00000042      0.00000012      0.00001918      0.00000562  ~
      7    -314.983680598875     -0.000000001955      0.00000186      0.00000044      0.00001620      0.00000523  ~
      8    -314.983680599657     -0.000000000782      0.00000019      0.00000005      0.00001023      0.00000325  ~
      9    -314.983680599478      0.000000000178      0.00000068      0.00000019      0.00003368      0.00001241  ~
     10    -314.983680597295      0.000000002183      0.00000144      0.00000030      0.00002734      0.00001060  ~
     11    -314.983680600827     -0.000000003532      0.00000082      0.00000018      0.00000901      0.00000385  ~
     12    -314.983680599926      0.000000000901      0.00000022      0.00000006      0.00000489      0.00000187  ~
  --------------------------------------------------------------------------------------------------------------- ~

	Writing optimization data to binary file.
	Final energy is   -314.9836805999263
	Final (previous) structure:
	Cartesian Geometry (in Angstrom)
	    C     2.9379375216   1.3574390278   0.2085656415
	    H     2.1237562677   1.7481152985   0.8177520608
	    H     2.8208926269   1.7559519588  -0.8007401468
	    H     3.8703127132   1.7476549566   0.6159461343
	    C    -2.6014412209   1.3390181639  -0.7069682664
	    H    -2.9610874389   2.3508358989  -0.5215827582
	    H    -3.2970663217   0.8564695519  -1.3958109888
	    H    -1.6378434570   1.4186438431  -1.2104456264
	    C     2.9416282925  -0.1674989855   0.1861727308
	    H     3.0211388059  -0.5497421965   1.2076421131
	    H     3.8304859434  -0.5156283655  -0.3446618535
	    C    -2.4900268389   0.5472557768   0.5910558768
	    H    -1.7604072310   1.0235835660   1.2494889556
	    H    -3.4451042937   0.5832448814   1.1197077475
	    C     1.7017740425  -0.7647571633  -0.4754525863
	    H     1.8180944749  -1.8499430482  -0.5468841530
	    H     1.6278947156  -0.3926051900  -1.5028655430
	    C     0.4017550006  -0.4591263569   0.2597155434
	    H     0.2475103015   0.6212261253   0.2985598896
	    H     0.4843584500  -0.8003925950   1.2978870010
	    C    -0.8038558022  -1.1224521647  -0.3955190447
	    H    -0.9071007761  -0.7471856978  -1.4174584320
	    H    -0.6129508877  -2.1956947334  -0.4849481821
	    C    -2.1102976126  -0.9168484020   0.3701500521
	    H    -2.9213189432  -1.4127597722  -0.1712921889
	    H    -2.0333443732  -1.4155534867   1.3405810218
	Saving final (previous) structure.
			--------------------------
			 OPTKING Finished Execution 
			--------------------------

    Final optimized geometry and variables:
    Molecular point group: c1
    Full point group: C1

    Geometry (in Angstrom), charge = 0, multiplicity = 1:

    C            2.937937521564     1.357439027823     0.208565641498
    H            2.123756267691     1.748115298476     0.817752060840
    H            2.820892626862     1.755951958821    -0.800740146818
    H            3.870312713198     1.747654956553     0.615946134258
    C           -2.601441220942     1.339018163885    -0.706968266442
    H           -2.961087438905     2.350835898927    -0.521582758170
    H           -3.297066321744     0.856469551855    -1.395810988789
    H           -1.637843456977     1.418643843097    -1.210445626355
    C            2.941628292465    -0.167498985460     0.186172730848
    H            3.021138805855    -0.549742196509     1.207642113128
    H            3.830485943425    -0.515628365485    -0.344661853455
    C           -2.490026838912     0.547255776786     0.591055876812
    H           -1.760407231039     1.023583565998     1.249488955600
    H           -3.445104293718     0.583244881420     1.119707747484
    C            1.701774042471    -0.764757163269    -0.475452586290
    H            1.818094474918    -1.849943048214    -0.546884153017
    H            1.627894715647    -0.392605189960    -1.502865543040
    C            0.401755000595    -0.459126356905     0.259715543353
    H            0.247510301466     0.621226125285     0.298559889629
    H            0.484358449980    -0.800392594993     1.297887000952
    C           -0.803855802192    -1.122452164653    -0.395519044702
    H           -0.907100776126    -0.747185697822    -1.417458432024
    H           -0.612950887718    -2.195694733409    -0.484948182094
    C           -2.110297612634    -0.916848402023     0.370150052102
    H           -2.921318943242    -1.412759772243    -0.171292188902
    H           -2.033344373170    -1.415553486683     1.340581021751

	Cleaning optimization helper files.

*** Psi4 exiting successfully. Buy a developer a beer!
