    -----------------------------------------------------------------------
          Psi4: An Open-Source Ab Initio Electronic Structure Package
                              Psi4 1.0.0 Driver

                          Git: Rev {master} 6a9a71b dirty

    J. M. Turney, A. C. Simmonett, R. M. Parrish, E. G. Hohenstein,
    F. A. Evangelista, J. T. Fermann, B. J. Mintz, L. A. Burns, J. J. Wilke,
    M. L. Abrams, N. J. Russ, M. L. Leininger, C. L. Janssen, E. T. Seidl,
    W. D. Allen, H. F. Schaefer, R. A. King, E. F. Valeev, C. D. Sherrill,
    and T. D. Crawford, WIREs Comput. Mol. Sci. 2, 556-565 (2012)
    (doi: 10.1002/wcms.93)

                         Additional Contributions by
    A. E. DePrince, U. Bozkaya, A. Yu. Sokolov, D. G. A. Smith, R. Di Remigio,
    R. M. Richard, J. F. Gonthier, H. R. McAlexander, M. Saitow, and
    B. P. Pritchard
    -----------------------------------------------------------------------


    Psi4 started on: Tue Sep 20 19:32:31 2016

    Process ID:  31878
    PSI4DATADIR: /usr/local/hpc5/psi4conda/share/psi4
    Memory level set to 256.000 MB

  ==> Input File <==

--------------------------------------------------------------------------
memory 30 Gb

molecule molecule_77_psi {
0 1
symmetry c1
    C           -4.067778904483    -0.684901060495    -0.001422495896
    H           -4.664900687982     0.149017318603    -0.366006277159
    H           -4.196924685887    -0.737631258874     1.078281104861
    H           -4.468253009576    -1.599776435791    -0.432023573907
    C            4.255325026003    -0.289149335673    -0.060053157440
    H            4.961674579347    -1.076234487536     0.193632143364
    H            4.528351092855     0.601700773744     0.502697534950
    H            4.371695627572    -0.061248130196    -1.118050804367
    C           -2.604780144164    -0.492127621454    -0.354886802832
    H           -2.488353561383    -0.449450165027    -1.439717849738
    H           -2.033835171544    -1.354671049518    -0.013292862709
    C            2.826478792861    -0.697916355428     0.245272386735
    H            2.575507910698    -1.604038489358    -0.308285217635
    H            2.731589695760    -0.944821662164     1.303845011936
    C           -2.030865596471     0.774640072361     0.253385059700
    H           -2.065561241005     0.693633585354     1.342856432245
    H           -2.673481478161     1.615528589112    -0.015614391425
    C           -0.605797149366     1.073227154623    -0.180324352124
    H           -0.285615794171     2.019394437623     0.260390135856
    H           -0.580754532012     1.211513145364    -1.264061556603
    C            0.390962545592    -0.005620410447     0.202884246593
    H            0.293182193645    -0.222803416962     1.269938484062
    H            0.158701839370    -0.930840870337    -0.326198478771
    C            1.824010861085     0.385876630514    -0.101081662321
    H            1.911922913027     0.631757325979    -1.162360567840
    H            2.073229659884     1.296587575090     0.449043620015
}

set globals {
  reference rhf
  g_convergence gau_verytight
  basis aug-cc-pvtz
  freeze_core true
  scf_type df
  mp_type df
}
optimize('mp2')
--------------------------------------------------------------------------
/usr/local/hpc5/psi4conda/lib/python2.7/site-packages/v2rdm_casscf/v2rdm_casscf.so loaded.

  Memory set to  30.000 GiB by Python script.
gradient() will perform analytic gradient computation.

*** tstart() called on wr37
*** at Tue Sep 20 19:32:32 2016


         ---------------------------------------------------------
                                   SCF
            by Justin Turney, Rob Parrish, and Andy Simmonett
                              RHF Reference
                       12 Threads,  30000 MiB Core
         ---------------------------------------------------------

  ==> Geometry <==

    Molecular point group: c1
    Full point group: C1

    Geometry (in Angstrom), charge = 0, multiplicity = 1:

       Center              X                  Y                   Z               Mass       
    ------------   -----------------  -----------------  -----------------  -----------------
           C         -4.067778904483    -0.684901060495    -0.001422495896    12.000000000000
           H         -4.664900687982     0.149017318603    -0.366006277159     1.007825032070
           H         -4.196924685887    -0.737631258874     1.078281104861     1.007825032070
           H         -4.468253009576    -1.599776435791    -0.432023573907     1.007825032070
           C          4.255325026003    -0.289149335673    -0.060053157440    12.000000000000
           H          4.961674579347    -1.076234487536     0.193632143364     1.007825032070
           H          4.528351092855     0.601700773744     0.502697534950     1.007825032070
           H          4.371695627572    -0.061248130196    -1.118050804367     1.007825032070
           C         -2.604780144164    -0.492127621454    -0.354886802832    12.000000000000
           H         -2.488353561383    -0.449450165027    -1.439717849738     1.007825032070
           H         -2.033835171544    -1.354671049518    -0.013292862709     1.007825032070
           C          2.826478792861    -0.697916355428     0.245272386735    12.000000000000
           H          2.575507910698    -1.604038489358    -0.308285217635     1.007825032070
           H          2.731589695760    -0.944821662164     1.303845011936     1.007825032070
           C         -2.030865596471     0.774640072361     0.253385059700    12.000000000000
           H         -2.065561241005     0.693633585354     1.342856432245     1.007825032070
           H         -2.673481478161     1.615528589112    -0.015614391425     1.007825032070
           C         -0.605797149366     1.073227154623    -0.180324352124    12.000000000000
           H         -0.285615794171     2.019394437623     0.260390135856     1.007825032070
           H         -0.580754532012     1.211513145364    -1.264061556603     1.007825032070
           C          0.390962545592    -0.005620410447     0.202884246593    12.000000000000
           H          0.293182193645    -0.222803416962     1.269938484062     1.007825032070
           H          0.158701839370    -0.930840870337    -0.326198478771     1.007825032070
           C          1.824010861085     0.385876630514    -0.101081662321    12.000000000000
           H          1.911922913027     0.631757325979    -1.162360567840     1.007825032070
           H          2.073229659884     1.296587575090     0.449043620015     1.007825032070

  Running in c1 symmetry.

  Rotational constants: A =      0.21688  B =      0.01925  C =      0.01836 [cm^-1]
  Rotational constants: A =   6501.94230  B =    577.00455  C =    550.33716 [MHz]
  Nuclear repulsion =  383.433005025824173

  Charge       = 0
  Multiplicity = 1
  Electrons    = 66
  Nalpha       = 33
  Nbeta        = 33

  ==> Algorithm <==

  SCF Algorithm Type is DF.
  DIIS enabled.
  MOM disabled.
  Fractional occupation disabled.
  Guess Type is SAD.
  Energy threshold   = 1.00e-10
  Density threshold  = 1.00e-10
  Integral threshold = 0.00e+00

  ==> Primary Basis <==

  Basis Set: AUG-CC-PVTZ
    Number of shells: 274
    Number of basis function: 782
    Number of Cartesian functions: 890
    Spherical Harmonics?: true
    Max angular momentum: 3

  ==> Pre-Iterations <==

   -------------------------------------------------------
    Irrep   Nso     Nmo     Nalpha   Nbeta   Ndocc  Nsocc
   -------------------------------------------------------
     A        782     782       0       0       0       0
   -------------------------------------------------------
    Total     782     782      33      33      33       0
   -------------------------------------------------------

  ==> Integral Setup <==

  ==> DFJK: Density-Fitted J/K Matrices <==

    J tasked:                  Yes
    K tasked:                  Yes
    wK tasked:                  No
    OpenMP threads:             12
    Integrals threads:          12
    Memory (MB):             21457
    Algorithm:                Core
    Integral Cache:           NONE
    Schwarz Cutoff:          1E-12
    Fitting Condition:       1E-12

   => Auxiliary Basis Set <=

  Basis Set: 
    Number of shells: 492
    Number of basis function: 1660
    Number of Cartesian functions: 2038
    Spherical Harmonics?: true
    Max angular momentum: 4

  Minimum eigenvalue in the overlap matrix is 2.3826753116E-06.
  Using Symmetric Orthogonalization.
  SCF Guess: Superposition of Atomic Densities via on-the-fly atomic UHF.

  ==> Iterations <==

                           Total Energy        Delta E     RMS |[F,P]|

   @DF-RHF iter   0:  -316.71148989476433   -3.16711e+02   6.93536e-03 
   @DF-RHF iter   1:  -313.26184970677082    3.44964e+00   7.82939e-04 
   @DF-RHF iter   2:  -313.50411731215411   -2.42268e-01   3.01867e-04 DIIS
   @DF-RHF iter   3:  -313.53956913958098   -3.54518e-02   1.04217e-04 DIIS
   @DF-RHF iter   4:  -313.54557776144395   -6.00862e-03   1.45807e-05 DIIS
   @DF-RHF iter   5:  -313.54571072367469   -1.32962e-04   4.66697e-06 DIIS
   @DF-RHF iter   6:  -313.54572177996192   -1.10563e-05   1.08003e-06 DIIS
   @DF-RHF iter   7:  -313.54572245800057   -6.78039e-07   2.04644e-07 DIIS
   @DF-RHF iter   8:  -313.54572248490285   -2.69023e-08   5.66417e-08 DIIS
   @DF-RHF iter   9:  -313.54572248655882   -1.65596e-09   1.46900e-08 DIIS
   @DF-RHF iter  10:  -313.54572248667716   -1.18348e-10   3.97761e-09 DIIS
   @DF-RHF iter  11:  -313.54572248668762   -1.04592e-11   8.97658e-10 DIIS
   @DF-RHF iter  12:  -313.54572248668808   -4.54747e-13   2.63640e-10 DIIS
   @DF-RHF iter  13:  -313.54572248668842   -3.41061e-13   6.70044e-11 DIIS

  ==> Post-Iterations <==

    Orbital Energies (a.u.)
    -----------------------

    Doubly Occupied:                                                      

       1A    -11.210457     2A    -11.209895     3A    -11.208676  
       4A    -11.208159     5A    -11.207982     6A    -11.207213  
       7A    -11.205539     8A    -11.205388     9A     -1.097092  
      10A     -1.064767    11A     -1.013923    12A     -0.951671  
      13A     -0.876425    14A     -0.824802    15A     -0.789310  
      16A     -0.768871    17A     -0.652757    18A     -0.633402  
      19A     -0.603691    20A     -0.595835    21A     -0.574966  
      22A     -0.565352    23A     -0.548884    24A     -0.527611  
      25A     -0.513676    26A     -0.498902    27A     -0.487079  
      28A     -0.474777    29A     -0.468918    30A     -0.459591  
      31A     -0.454257    32A     -0.442765    33A     -0.433094  

    Virtual:                                                              

      34A      0.030876    35A      0.032060    36A      0.034063  
      37A      0.036327    38A      0.044488    39A      0.046835  
      40A      0.048934    41A      0.054422    42A      0.058979  
      43A      0.063047    44A      0.065568    45A      0.066884  
      46A      0.075589    47A      0.084679    48A      0.086484  
      49A      0.092096    50A      0.096935    51A      0.105784  
      52A      0.110765    53A      0.113319    54A      0.115532  
      55A      0.120315    56A      0.124954    57A      0.134032  
      58A      0.135701    59A      0.139061    60A      0.141485  
      61A      0.143348    62A      0.146722    63A      0.152525  
      64A      0.155904    65A      0.158007    66A      0.165613  
      67A      0.166288    68A      0.168294    69A      0.174129  
      70A      0.178996    71A      0.185521    72A      0.186321  
      73A      0.193368    74A      0.200464    75A      0.207365  
      76A      0.210288    77A      0.219540    78A      0.227422  
      79A      0.232222    80A      0.233856    81A      0.237602  
      82A      0.250377    83A      0.254139    84A      0.257720  
      85A      0.267792    86A      0.269558    87A      0.271361  
      88A      0.273323    89A      0.278260    90A      0.286099  
      91A      0.290266    92A      0.296144    93A      0.302231  
      94A      0.310483    95A      0.314901    96A      0.318356  
      97A      0.322093    98A      0.328040    99A      0.333812  
     100A      0.339086   101A      0.342620   102A      0.347637  
     103A      0.349152   104A      0.353639   105A      0.356446  
     106A      0.356764   107A      0.362779   108A      0.366115  
     109A      0.368575   110A      0.371500   111A      0.378747  
     112A      0.380393   113A      0.382414   114A      0.385882  
     115A      0.389316   116A      0.395298   117A      0.398014  
     118A      0.402035   119A      0.405718   120A      0.407999  
     121A      0.410251   122A      0.414559   123A      0.416395  
     124A      0.418060   125A      0.427706   126A      0.433982  
     127A      0.434344   128A      0.441300   129A      0.445119  
     130A      0.449199   131A      0.452827   132A      0.454410  
     133A      0.457935   134A      0.460746   135A      0.463911  
     136A      0.464103   137A      0.470350   138A      0.472091  
     139A      0.477983   140A      0.482688   141A      0.486844  
     142A      0.487354   143A      0.490313   144A      0.497602  
     145A      0.500753   146A      0.501456   147A      0.504847  
     148A      0.510802   149A      0.513952   150A      0.516111  
     151A      0.524263   152A      0.527479   153A      0.529412  
     154A      0.531268   155A      0.539435   156A      0.540439  
     157A      0.543142   158A      0.549342   159A      0.552452  
     160A      0.559338   161A      0.561832   162A      0.567259  
     163A      0.572337   164A      0.579002   165A      0.579670  
     166A      0.581394   167A      0.587436   168A      0.591604  
     169A      0.598861   170A      0.606883   171A      0.611139  
     172A      0.614147   173A      0.619902   174A      0.627926  
     175A      0.629472   176A      0.637098   177A      0.642984  
     178A      0.650362   179A      0.655036   180A      0.657681  
     181A      0.663060   182A      0.671706   183A      0.673526  
     184A      0.683183   185A      0.695748   186A      0.699109  
     187A      0.703505   188A      0.710001   189A      0.712606  
     190A      0.718563   191A      0.724236   192A      0.726954  
     193A      0.734561   194A      0.741735   195A      0.750155  
     196A      0.756592   197A      0.771644   198A      0.780713  
     199A      0.793243   200A      0.797810   201A      0.806773  
     202A      0.811514   203A      0.817243   204A      0.828634  
     205A      0.836361   206A      0.841491   207A      0.843763  
     208A      0.848199   209A      0.850471   210A      0.856517  
     211A      0.862448   212A      0.868866   213A      0.873995  
     214A      0.875574   215A      0.883105   216A      0.888447  
     217A      0.893831   218A      0.897637   219A      0.900109  
     220A      0.903624   221A      0.906916   222A      0.908232  
     223A      0.912334   224A      0.918420   225A      0.927042  
     226A      0.931492   227A      0.935466   228A      0.940411  
     229A      0.941075   230A      0.947371   231A      0.948845  
     232A      0.949955   233A      0.961185   234A      0.964758  
     235A      0.972310   236A      0.973522   237A      0.980589  
     238A      0.983736   239A      0.988665   240A      0.995115  
     241A      0.997046   242A      1.008459   243A      1.012111  
     244A      1.014900   245A      1.023556   246A      1.030699  
     247A      1.036241   248A      1.036843   249A      1.041612  
     250A      1.046353   251A      1.052779   252A      1.054468  
     253A      1.065328   254A      1.076178   255A      1.082066  
     256A      1.086926   257A      1.095123   258A      1.099632  
     259A      1.102984   260A      1.108150   261A      1.113677  
     262A      1.114964   263A      1.126653   264A      1.128950  
     265A      1.132608   266A      1.134939   267A      1.142444  
     268A      1.148825   269A      1.153423   270A      1.155035  
     271A      1.163856   272A      1.168909   273A      1.176851  
     274A      1.179111   275A      1.184196   276A      1.186516  
     277A      1.191460   278A      1.196615   279A      1.202773  
     280A      1.207067   281A      1.211599   282A      1.218072  
     283A      1.221980   284A      1.224708   285A      1.233912  
     286A      1.237208   287A      1.238296   288A      1.243510  
     289A      1.249334   290A      1.255541   291A      1.259498  
     292A      1.269336   293A      1.274663   294A      1.281977  
     295A      1.292628   296A      1.296572   297A      1.302783  
     298A      1.309347   299A      1.312312   300A      1.317274  
     301A      1.321322   302A      1.326333   303A      1.327397  
     304A      1.335844   305A      1.338528   306A      1.342661  
     307A      1.356480   308A      1.361898   309A      1.365713  
     310A      1.370617   311A      1.374463   312A      1.386672  
     313A      1.392818   314A      1.402766   315A      1.418343  
     316A      1.423518   317A      1.430631   318A      1.439131  
     319A      1.448706   320A      1.455234   321A      1.460385  
     322A      1.468165   323A      1.477172   324A      1.491514  
     325A      1.496465   326A      1.504312   327A      1.511793  
     328A      1.517000   329A      1.528025   330A      1.537582  
     331A      1.549397   332A      1.560764   333A      1.565752  
     334A      1.567582   335A      1.577811   336A      1.580114  
     337A      1.586316   338A      1.599453   339A      1.602223  
     340A      1.613443   341A      1.619693   342A      1.626612  
     343A      1.634397   344A      1.643007   345A      1.647051  
     346A      1.652212   347A      1.653560   348A      1.657845  
     349A      1.668808   350A      1.673928   351A      1.674992  
     352A      1.680431   353A      1.684657   354A      1.688010  
     355A      1.694167   356A      1.702765   357A      1.711104  
     358A      1.715141   359A      1.723999   360A      1.729837  
     361A      1.737893   362A      1.741728   363A      1.745148  
     364A      1.754486   365A      1.760579   366A      1.765258  
     367A      1.766811   368A      1.777760   369A      1.780610  
     370A      1.783398   371A      1.787251   372A      1.789826  
     373A      1.794208   374A      1.797569   375A      1.803483  
     376A      1.813138   377A      1.816071   378A      1.825692  
     379A      1.829731   380A      1.831969   381A      1.840784  
     382A      1.843886   383A      1.854232   384A      1.864087  
     385A      1.869515   386A      1.879580   387A      1.882352  
     388A      1.888683   389A      1.896584   390A      1.907748  
     391A      1.909467   392A      1.912150   393A      1.927328  
     394A      1.929338   395A      1.937247   396A      1.946009  
     397A      1.950571   398A      1.965850   399A      1.970915  
     400A      1.973147   401A      1.979538   402A      1.984542  
     403A      1.996738   404A      2.006134   405A      2.009637  
     406A      2.014651   407A      2.021134   408A      2.024878  
     409A      2.041485   410A      2.043736   411A      2.049096  
     412A      2.055583   413A      2.068667   414A      2.082278  
     415A      2.083411   416A      2.092257   417A      2.095641  
     418A      2.108210   419A      2.116144   420A      2.129362  
     421A      2.131644   422A      2.138608   423A      2.143871  
     424A      2.148973   425A      2.156590   426A      2.166707  
     427A      2.175328   428A      2.182898   429A      2.191741  
     430A      2.201565   431A      2.210842   432A      2.224870  
     433A      2.233740   434A      2.242474   435A      2.249057  
     436A      2.263239   437A      2.267591   438A      2.275999  
     439A      2.284216   440A      2.293948   441A      2.296987  
     442A      2.312161   443A      2.314603   444A      2.320710  
     445A      2.338936   446A      2.347984   447A      2.354807  
     448A      2.358019   449A      2.360894   450A      2.371958  
     451A      2.383981   452A      2.394632   453A      2.404310  
     454A      2.411069   455A      2.421043   456A      2.424176  
     457A      2.432389   458A      2.445917   459A      2.465608  
     460A      2.476996   461A      2.491801   462A      2.502138  
     463A      2.507298   464A      2.524795   465A      2.536452  
     466A      2.544070   467A      2.550089   468A      2.562674  
     469A      2.576601   470A      2.601864   471A      2.613125  
     472A      2.620179   473A      2.634119   474A      2.659243  
     475A      2.671048   476A      2.672154   477A      2.716272  
     478A      2.735405   479A      2.750929   480A      2.770648  
     481A      2.815223   482A      2.842875   483A      2.861125  
     484A      2.897984   485A      2.933213   486A      2.954676  
     487A      3.004650   488A      3.014222   489A      3.054601  
     490A      3.101390   491A      3.140447   492A      3.172320  
     493A      3.270078   494A      3.299759   495A      3.319650  
     496A      3.393012   497A      3.420762   498A      3.441911  
     499A      3.447514   500A      3.462233   501A      3.477176  
     502A      3.491474   503A      3.499933   504A      3.520918  
     505A      3.529357   506A      3.540093   507A      3.541679  
     508A      3.548118   509A      3.559758   510A      3.574198  
     511A      3.577064   512A      3.599969   513A      3.606919  
     514A      3.616741   515A      3.619485   516A      3.631672  
     517A      3.638672   518A      3.660614   519A      3.666341  
     520A      3.681769   521A      3.686865   522A      3.703598  
     523A      3.704758   524A      3.708579   525A      3.717158  
     526A      3.718382   527A      3.743177   528A      3.750358  
     529A      3.754944   530A      3.769528   531A      3.776145  
     532A      3.785294   533A      3.793424   534A      3.797651  
     535A      3.809715   536A      3.814568   537A      3.818526  
     538A      3.825313   539A      3.841197   540A      3.852315  
     541A      3.861436   542A      3.864511   543A      3.871921  
     544A      3.879790   545A      3.887293   546A      3.897370  
     547A      3.905934   548A      3.910190   549A      3.920011  
     550A      3.923356   551A      3.940187   552A      3.945349  
     553A      3.950495   554A      3.962964   555A      3.966683  
     556A      3.972710   557A      3.979259   558A      3.987984  
     559A      3.990697   560A      4.001059   561A      4.007416  
     562A      4.012402   563A      4.019231   564A      4.024922  
     565A      4.032063   566A      4.043489   567A      4.052619  
     568A      4.059189   569A      4.061106   570A      4.062830  
     571A      4.073079   572A      4.081414   573A      4.087486  
     574A      4.103374   575A      4.109158   576A      4.122096  
     577A      4.136594   578A      4.141080   579A      4.153950  
     580A      4.170705   581A      4.181799   582A      4.195526  
     583A      4.207013   584A      4.209543   585A      4.215551  
     586A      4.245159   587A      4.254413   588A      4.256457  
     589A      4.258181   590A      4.266121   591A      4.273282  
     592A      4.278082   593A      4.295857   594A      4.312567  
     595A      4.316531   596A      4.328081   597A      4.332890  
     598A      4.341702   599A      4.348969   600A      4.364432  
     601A      4.382373   602A      4.387777   603A      4.393722  
     604A      4.409898   605A      4.422852   606A      4.425822  
     607A      4.450407   608A      4.454421   609A      4.465282  
     610A      4.472398   611A      4.496805   612A      4.513856  
     613A      4.527396   614A      4.550362   615A      4.554150  
     616A      4.567942   617A      4.577840   618A      4.596061  
     619A      4.608337   620A      4.625232   621A      4.629185  
     622A      4.657933   623A      4.665126   624A      4.673680  
     625A      4.684762   626A      4.689824   627A      4.710350  
     628A      4.713196   629A      4.723129   630A      4.737095  
     631A      4.748364   632A      4.751813   633A      4.754825  
     634A      4.764380   635A      4.780533   636A      4.795813  
     637A      4.811904   638A      4.818649   639A      4.831291  
     640A      4.832518   641A      4.837943   642A      4.847959  
     643A      4.862594   644A      4.873135   645A      4.877310  
     646A      4.878682   647A      4.896256   648A      4.901207  
     649A      4.905615   650A      4.910318   651A      4.936160  
     652A      4.947572   653A      4.970340   654A      4.977523  
     655A      4.989609   656A      5.008420   657A      5.022528  
     658A      5.031115   659A      5.045487   660A      5.050188  
     661A      5.061056   662A      5.068177   663A      5.090707  
     664A      5.101117   665A      5.127924   666A      5.129426  
     667A      5.146589   668A      5.152326   669A      5.173112  
     670A      5.179125   671A      5.198721   672A      5.203591  
     673A      5.211641   674A      5.219328   675A      5.241024  
     676A      5.256129   677A      5.264458   678A      5.269984  
     679A      5.281026   680A      5.287338   681A      5.300186  
     682A      5.313463   683A      5.317648   684A      5.330462  
     685A      5.353297   686A      5.360592   687A      5.376279  
     688A      5.383959   689A      5.393130   690A      5.400268  
     691A      5.421954   692A      5.423742   693A      5.430042  
     694A      5.435925   695A      5.447618   696A      5.461030  
     697A      5.470904   698A      5.479664   699A      5.488940  
     700A      5.497825   701A      5.506564   702A      5.530553  
     703A      5.541709   704A      5.550280   705A      5.565826  
     706A      5.575112   707A      5.592558   708A      5.602267  
     709A      5.615985   710A      5.624124   711A      5.637128  
     712A      5.657398   713A      5.669989   714A      5.687461  
     715A      5.692181   716A      5.711654   717A      5.715814  
     718A      5.728262   719A      5.743304   720A      5.759501  
     721A      5.780317   722A      5.781236   723A      5.803987  
     724A      5.815189   725A      5.834416   726A      5.843254  
     727A      5.850135   728A      5.859110   729A      5.888779  
     730A      5.901268   731A      5.916528   732A      5.958354  
     733A      5.975748   734A      5.995091   735A      6.017168  
     736A      6.021964   737A      6.051006   738A      6.069391  
     739A      6.102901   740A      6.128476   741A      6.148225  
     742A      6.155876   743A      6.190059   744A      6.195315  
     745A      6.214772   746A      6.230360   747A      6.247977  
     748A      6.252401   749A      6.259994   750A      6.282795  
     751A      6.293310   752A      6.307779   753A      6.324347  
     754A      6.338940   755A      6.345050   756A      6.381289  
     757A      6.432185   758A      6.442076   759A      6.532831  
     760A      6.576010   761A      6.615172   762A      6.680301  
     763A      6.717806   764A      6.765352   765A      6.772106  
     766A      6.788730   767A      6.832704   768A      6.871865  
     769A      6.875593   770A      6.899396   771A      6.902146  
     772A      7.001631   773A      7.074281   774A      7.128959  
     775A     18.025490   776A     18.206308   777A     18.278173  
     778A     18.630953   779A     18.659072   780A     18.738230  
     781A     19.254585   782A     19.746995  

    Final Occupation by Irrep:
              A 
    DOCC [    33 ]

  Energy converged.

  @DF-RHF Final Energy:  -313.54572248668842

   => Energetics <=

    Nuclear Repulsion Energy =            383.4330050258241727
    One-Electron Energy =               -1181.9860003199451057
    Two-Electron Energy =                 485.0072728074327415
    DFT Exchange-Correlation Energy =       0.0000000000000000
    Empirical Dispersion Energy =           0.0000000000000000
    PCM Polarization Energy =               0.0000000000000000
    EFP Energy =                            0.0000000000000000
    Total Energy =                       -313.5457224866881916


  Saving occupied orbitals to File 180.

*** tstop() called on wr37 at Tue Sep 20 19:33:42 2016
Module time:
	user time   =     711.66 seconds =      11.86 minutes
	system time =       9.53 seconds =       0.16 minutes
	total time  =         70 seconds =       1.17 minutes
Total time:
	user time   =     711.66 seconds =      11.86 minutes
	system time =       9.53 seconds =       0.16 minutes
	total time  =         70 seconds =       1.17 minutes


Properties will be evaluated at   0.000000,   0.000000,   0.000000 Bohr

Properties computed using the SCF density matrix

  Nuclear Dipole Moment: (a.u.)
     X:     0.1389      Y:    -0.7147      Z:    -0.0421

  Electronic Dipole Moment: (a.u.)
     X:    -0.1348      Y:     0.6984      Z:     0.0398

  Dipole Moment: (a.u.)
     X:     0.0041      Y:    -0.0164      Z:    -0.0023     Total:     0.0170

  Dipole Moment: (Debye)
     X:     0.0104      Y:    -0.0416      Z:    -0.0059     Total:     0.0432


  //>>>>>>>>>>>>>>>>>>>>>>>>>>>>>>>>>>>//
  //               DFMP2               //
  //<<<<<<<<<<<<<<<<<<<<<<<<<<<<<<<<<<<//


*** tstart() called on wr37
*** at Tue Sep 20 19:33:42 2016


*** tstop() called on wr37 at Tue Sep 20 19:33:43 2016
Module time:
	user time   =       5.09 seconds =       0.08 minutes
	system time =       0.10 seconds =       0.00 minutes
	total time  =          1 seconds =       0.02 minutes
Total time:
	user time   =     718.34 seconds =      11.97 minutes
	system time =       9.72 seconds =       0.16 minutes
	total time  =         71 seconds =       1.18 minutes
	 --------------------------------------------------------
	                          DF-MP2                         
	      2nd-Order Density-Fitted Moller-Plesset Theory     
	              RMP2 Wavefunction,  12 Threads             
	                                                         
	        Rob Parrish, Justin Turney, Andy Simmonett,      
	           Ed Hohenstein, and C. David Sherrill          
	 --------------------------------------------------------

   => Auxiliary Basis Set <=

  Basis Set: 
    Number of shells: 476
    Number of basis function: 1676
    Number of Cartesian functions: 2078
    Spherical Harmonics?: true
    Max angular momentum: 4

	 --------------------------------------------------------
	                 NBF =   782, NAUX =  1676
	 --------------------------------------------------------
	   CLASS    FOCC     OCC    AOCC    AVIR     VIR    FVIR
	   PAIRS       8      33      25     749     749       0
	 --------------------------------------------------------

DGAS Warning! /src/lib/libfock/apps.cc:80 is not currently checking restricted

         ------------------------------------------------------------
                                     CPHF                           
                                  Rob Parrish                       
         ------------------------------------------------------------

  ==> Geometry <==

    Molecular point group: c1
    Full point group: C1

    Geometry (in Angstrom), charge = 0, multiplicity = 1:

       Center              X                  Y                   Z               Mass       
    ------------   -----------------  -----------------  -----------------  -----------------
           C         -4.067778904483    -0.684901060495    -0.001422495896    12.000000000000
           H         -4.664900687982     0.149017318603    -0.366006277159     1.007825032070
           H         -4.196924685887    -0.737631258874     1.078281104861     1.007825032070
           H         -4.468253009576    -1.599776435791    -0.432023573907     1.007825032070
           C          4.255325026003    -0.289149335673    -0.060053157440    12.000000000000
           H          4.961674579347    -1.076234487536     0.193632143364     1.007825032070
           H          4.528351092855     0.601700773744     0.502697534950     1.007825032070
           H          4.371695627572    -0.061248130196    -1.118050804367     1.007825032070
           C         -2.604780144164    -0.492127621454    -0.354886802832    12.000000000000
           H         -2.488353561383    -0.449450165027    -1.439717849738     1.007825032070
           H         -2.033835171544    -1.354671049518    -0.013292862709     1.007825032070
           C          2.826478792861    -0.697916355428     0.245272386735    12.000000000000
           H          2.575507910698    -1.604038489358    -0.308285217635     1.007825032070
           H          2.731589695760    -0.944821662164     1.303845011936     1.007825032070
           C         -2.030865596471     0.774640072361     0.253385059700    12.000000000000
           H         -2.065561241005     0.693633585354     1.342856432245     1.007825032070
           H         -2.673481478161     1.615528589112    -0.015614391425     1.007825032070
           C         -0.605797149366     1.073227154623    -0.180324352124    12.000000000000
           H         -0.285615794171     2.019394437623     0.260390135856     1.007825032070
           H         -0.580754532012     1.211513145364    -1.264061556603     1.007825032070
           C          0.390962545592    -0.005620410447     0.202884246593    12.000000000000
           H          0.293182193645    -0.222803416962     1.269938484062     1.007825032070
           H          0.158701839370    -0.930840870337    -0.326198478771     1.007825032070
           C          1.824010861085     0.385876630514    -0.101081662321    12.000000000000
           H          1.911922913027     0.631757325979    -1.162360567840     1.007825032070
           H          2.073229659884     1.296587575090     0.449043620015     1.007825032070

  Nuclear repulsion =  383.433005025824173
  Reference energy  = -313.545722486688419

  ==> Basis Set <==

  Basis Set: AUG-CC-PVTZ
    Number of shells: 274
    Number of basis function: 782
    Number of Cartesian functions: 890
    Spherical Harmonics?: true
    Max angular momentum: 3

  ==> CGRSolver (by Rob Parrish) <==

   Number of roots    =         1
   Preconditioning    =    JACOBI
   Convergence cutoff =     1E-06
   Maximum iterations =       100

  ==> CPHFRHamiltonian (by Rob Parrish) <== 

  ==> DFJK: Density-Fitted J/K Matrices <==

    J tasked:                  Yes
    K tasked:                  Yes
    wK tasked:                  No
    OpenMP threads:             12
    Integrals threads:          12
    Memory (MB):             21457
    Algorithm:                Core
    Integral Cache:           NONE
    Schwarz Cutoff:          1E-12
    Fitting Condition:       1E-12

   => Auxiliary Basis Set <=

  Basis Set: 
    Number of shells: 492
    Number of basis function: 1660
    Number of Cartesian functions: 2038
    Spherical Harmonics?: true
    Max angular momentum: 4

  ==> CPHF Iterations <==

  => Iterations <=

             Iter  Converged  Remaining    Residual
  CGR           1          0          1   8.785E-02
  CGR           2          0          1   1.225E-02
  CGR           3          0          1   3.060E-03
  CGR           4          0          1   7.895E-04
  CGR           5          0          1   1.500E-04
  CGR           6          0          1   3.753E-05
  CGR           7          0          1   1.008E-05
  CGR           8          0          1   2.569E-06
  CGR           9          1          0   6.505E-07

    CGRSolver converged.

  ==> DFCorrGrad: Density-Fitted Correlated Gradients <==

    OpenMP threads:             12
    Integrals threads:          12
    Memory (MB):             21457
    Schwarz Cutoff:          0E+00
    Fitting Condition:       1E-12

   => Auxiliary Basis Set <=

  Basis Set: 
    Number of shells: 492
    Number of basis function: 1660
    Number of Cartesian functions: 2038
    Spherical Harmonics?: true
    Max angular momentum: 4

	-----------------------------------------------------------
	 ==================> DF-MP2 Energies <==================== 
	-----------------------------------------------------------
	 Reference Energy          =    -313.5457224866884189 [Eh]
	 Singles Energy            =      -0.0000000000000003 [Eh]
	 Same-Spin Energy          =      -0.3153646755459301 [Eh]
	 Opposite-Spin Energy      =      -1.1231191955803854 [Eh]
	 Correlation Energy        =      -1.4384838711263157 [Eh]
	 Total Energy              =    -314.9842063578147418 [Eh]
	-----------------------------------------------------------
	 ================> DF-SCS-MP2 Energies <================== 
	-----------------------------------------------------------
	 SCS Same-Spin Scale       =       0.3333333333333333 [-]
	 SCS Opposite-Spin Scale   =       1.2000000000000000 [-]
	 SCS Same-Spin Energy      =      -0.1051215585153100 [Eh]
	 SCS Opposite-Spin Energy  =      -1.3477430346964625 [Eh]
	 SCS Correlation Energy    =      -1.4528645932117727 [Eh]
	 SCS Total Energy          =    -314.9985870799001759 [Eh]
	-----------------------------------------------------------


  -Total Gradient:
     Atom            X                  Y                   Z
    ------   -----------------  -----------------  -----------------
       1        0.001529528618     0.000179456326    -0.000409737273
       2        0.001065147082    -0.000978592926     0.000408636532
       3        0.000475866212     0.000137871843    -0.001433480107
       4        0.000747254960     0.001140985550     0.000480210793
       5       -0.001455801935    -0.000433773822     0.000310060801
       6       -0.001096803507     0.000893010145    -0.000257797477
       7       -0.000665983154    -0.001199989498    -0.000678888437
       8       -0.000454841926    -0.000348396538     0.001424847140
       9       -0.000853450495     0.001295416805     0.001273052499
      10       -0.000204002082     0.000211439653     0.001525486209
      11       -0.000799949818     0.001376459268    -0.000098337576
      12        0.000468807359     0.001994557158    -0.000865298197
      13        0.000274540649     0.001440204241     0.000517960688
      14        0.000115019363     0.000647686933    -0.001421018498
      15        0.001147584367    -0.001197192815    -0.001523988180
      16        0.000299917566    -0.000152756390    -0.001425921164
      17        0.000865896501    -0.001128186570     0.000131619990
      18       -0.000676977842    -0.001733406847     0.001242857312
      19       -0.000346369408    -0.001339113926    -0.000424364773
      20       -0.000100011074    -0.000544020664     0.001382047311
      21        0.000536596525     0.001722799568    -0.000877031282
      22        0.000057099405     0.000511857417    -0.001449171588
      23        0.000349873374     0.001457735833     0.000393010197
      24       -0.000586593629    -0.002058556751     0.000864934537
      25       -0.000266199761    -0.000550672350     0.001345884556
      26       -0.000426147350    -0.001344821643    -0.000435574013


			-----------------------------------------
			 OPTKING 2.0: for geometry optimizations 
			  - R.A. King,  Bethel University        
			-----------------------------------------

	Internal coordinates to be generated automatically.
	Detected frag 1 with atoms:  1 2 3 4 5 6 7 8 9 10 11 12 13 14 15 16 17 18 19 20
	 21 22 23 24 25 26
	---Fragment 1 Bond Connectivity---
	 1 : 2 3 4 9
	 2 : 1
	 3 : 1
	 4 : 1
	 5 : 6 7 8 12
	 6 : 5
	 7 : 5
	 8 : 5
	 9 : 1 10 11 15
	 10 : 9
	 11 : 9
	 12 : 5 13 14 24
	 13 : 12
	 14 : 12
	 15 : 9 16 17 18
	 16 : 15
	 17 : 15
	 18 : 15 19 20 21
	 19 : 18
	 20 : 18
	 21 : 18 22 23 24
	 22 : 21
	 23 : 21
	 24 : 12 21 25 26
	 25 : 24
	 26 : 24

	---Fragment 1 Geometry and Gradient---
	 C          -7.6869880986       -1.2942754325       -0.0026881277
	 H          -8.8153847374        0.2816019212       -0.6916516267
	 H          -7.9310382567       -1.3939210663        2.0376559825
	 H          -8.4437744805       -3.0231393375       -0.8164062376
	 C           8.0413989056       -0.5464130559       -0.1134840210
	 H           9.3762061155       -2.0337884362        0.3659117215
	 H           8.5573433990        1.1370496763        0.9499606687
	 H           8.2613074724       -0.1157421922       -2.1128098229
	 C          -4.9223211088       -0.9299864270       -0.6706388655
	 H          -4.7023067528       -0.8493377223       -2.7206724446
	 H          -3.8433914736       -2.5599572837       -0.0251198700
	 C           5.3412708389       -1.3188707754        0.4634976389
	 H           4.8670046043       -3.0311934515       -0.5825746321
	 H           5.1619564324       -1.7854541859        2.4639099923
	 C          -3.8377797900        1.4638575883        0.4788283690
	 H          -3.9033450562        1.3107775129        2.5376308927
	 H          -5.0521478151        3.0529065933       -0.0295069235
	 C          -1.1447907044        2.0281054006       -0.3407636406
	 H          -0.5397356302        3.8161024414        0.4920660445
	 H          -1.0974670159        2.2894280511       -2.3887301571
	 C           0.7388121394       -0.0106210365        0.3833956627
	 H           0.5540340530       -0.4210374395        2.3998359405
	 H           0.2999030132       -1.7590343182       -0.6164257898
	 C           3.4468809909        0.7292011528       -0.1910166588
	 H           3.6130106928        1.1938483285       -2.1965431409
	 H           3.9178362678        2.4501954242        0.8485694635
	             0.0015295286        0.0001794563       -0.0004097373
	             0.0010651471       -0.0009785929        0.0004086365
	             0.0004758662        0.0001378718       -0.0014334801
	             0.0007472550        0.0011409856        0.0004802108
	            -0.0014558019       -0.0004337738        0.0003100608
	            -0.0010968035        0.0008930101       -0.0002577975
	            -0.0006659832       -0.0011999895       -0.0006788884
	            -0.0004548419       -0.0003483965        0.0014248471
	            -0.0008534505        0.0012954168        0.0012730525
	            -0.0002040021        0.0002114397        0.0015254862
	            -0.0007999498        0.0013764593       -0.0000983376
	             0.0004688074        0.0019945572       -0.0008652982
	             0.0002745406        0.0014402042        0.0005179607
	             0.0001150194        0.0006476869       -0.0014210185
	             0.0011475844       -0.0011971928       -0.0015239882
	             0.0002999176       -0.0001527564       -0.0014259212
	             0.0008658965       -0.0011281866        0.0001316200
	            -0.0006769778       -0.0017334068        0.0012428573
	            -0.0003463694       -0.0013391139       -0.0004243648
	            -0.0001000111       -0.0005440207        0.0013820473
	             0.0005365965        0.0017227996       -0.0008770313
	             0.0000570994        0.0005118574       -0.0014491716
	             0.0003498734        0.0014577358        0.0003930102
	            -0.0005865936       -0.0020585568        0.0008649345
	            -0.0002661998       -0.0005506724        0.0013458846
	            -0.0004261473       -0.0013448216       -0.0004355740

	Previous optimization step data not found.  Starting new optimization.

	---Fragment 1 Intrafragment Coordinates---
	 - Coordinate -           - BOHR/RAD -       - ANG/DEG -
	 R(1,2)           =         2.057022	       1.088529
	 R(1,3)           =         2.057303	       1.088678
	 R(1,4)           =         2.055197	       1.087563
	 R(1,9)           =         2.867446	       1.517387
	 R(5,6)           =         2.055192	       1.087561
	 R(5,7)           =         2.056978	       1.088506
	 R(5,8)           =         2.056974	       1.088504
	 R(5,12)          =         2.867105	       1.517207
	 R(9,10)          =         2.063383	       1.091895
	 R(9,11)          =         2.058540	       1.089333
	 R(9,15)          =         2.868448	       1.517917
	 R(12,13)         =         2.061855	       1.091086
	 R(12,14)         =         2.061917	       1.091120
	 R(12,24)         =         2.865606	       1.516414
	 R(15,16)         =         2.065527	       1.093030
	 R(15,17)         =         2.063534	       1.091975
	 R(15,18)         =         2.870940	       1.519236
	 R(18,19)         =         2.063160	       1.091777
	 R(18,20)         =         2.065114	       1.092811
	 R(18,21)         =         2.868584	       1.517989
	 R(21,22)         =         2.066063	       1.093313
	 R(21,23)         =         2.061367	       1.090828
	 R(21,24)         =         2.865471	       1.516342
	 R(24,25)         =         2.065341	       1.092931
	 R(24,26)         =         2.065033	       1.092768
	 B(1,9,10)        =         1.916870	     109.828587
	 B(1,9,11)        =         1.908898	     109.371808
	 B(1,9,15)        =         1.957586	     112.161432
	 B(2,1,3)         =         1.879899	     107.710290
	 B(2,1,4)         =         1.885827	     108.049951
	 B(2,1,9)         =         1.932159	     110.704533
	 B(3,1,4)         =         1.884141	     107.953324
	 B(3,1,9)         =         1.930023	     110.582162
	 B(4,1,9)         =         1.949453	     111.695457
	 B(5,12,13)       =         1.915876	     109.771619
	 B(5,12,14)       =         1.915699	     109.761488
	 B(5,12,24)       =         1.964982	     112.585160
	 B(6,5,7)         =         1.884726	     107.986869
	 B(6,5,8)         =         1.884742	     107.987742
	 B(6,5,12)        =         1.949514	     111.698934
	 B(7,5,8)         =         1.880038	     107.718249
	 B(7,5,12)        =         1.931226	     110.651074
	 B(8,5,12)        =         1.931244	     110.652148
	 B(9,15,16)       =         1.902413	     109.000242
	 B(9,15,17)       =         1.898035	     108.749422
	 B(9,15,18)       =         1.986985	     113.845877
	 B(10,9,11)       =         1.861487	     106.655369
	 B(10,9,15)       =         1.902021	     108.977776
	 B(11,9,15)       =         1.914494	     109.692411
	 B(12,24,21)      =         1.976268	     113.231798
	 B(12,24,25)      =         1.906469	     109.232602
	 B(12,24,26)      =         1.906979	     109.261851
	 B(13,12,14)      =         1.859054	     106.515973
	 B(13,12,24)      =         1.902451	     109.002440
	 B(14,12,24)      =         1.902684	     109.015766
	 B(15,18,19)      =         1.907286	     109.279437
	 B(15,18,20)      =         1.906542	     109.236835
	 B(15,18,21)      =         1.986881	     113.839924
	 B(16,15,17)      =         1.858687	     106.494944
	 B(16,15,18)      =         1.905924	     109.201427
	 B(17,15,18)      =         1.907461	     109.289492
	 B(18,21,22)      =         1.905867	     109.198124
	 B(18,21,23)      =         1.918304	     109.910743
	 B(18,21,24)      =         1.967590	     112.734595
	 B(19,18,20)      =         1.858687	     106.494903
	 B(19,18,21)      =         1.898057	     108.750629
	 B(20,18,21)      =         1.902057	     108.979852
	 B(21,24,25)      =         1.905784	     109.193399
	 B(21,24,26)      =         1.906877	     109.255976
	 B(22,21,23)      =         1.860688	     106.609545
	 B(22,21,24)      =         1.908642	     109.357121
	 B(23,21,24)      =         1.899678	     108.843519
	 B(25,24,26)      =         1.857724	     106.439740
	 D(1,9,15,16)     =         1.102795	      63.185510
	 D(1,9,15,17)     =        -0.916930	     -52.536243
	 D(1,9,15,18)     =        -3.048038	    -174.639693
	 D(2,1,9,10)      =        -1.067854	     -61.183555
	 D(2,1,9,11)      =        -3.105131	    -177.910901
	 D(2,1,9,15)      =         1.049959	      60.158231
	 D(3,1,9,10)      =         3.133234	     179.521066
	 D(3,1,9,11)      =         1.095957	      62.793720
	 D(3,1,9,15)      =        -1.032138	     -59.137148
	 D(4,1,9,10)      =         1.034486	      59.271701
	 D(4,1,9,11)      =        -1.002790	     -57.455645
	 D(4,1,9,15)      =        -3.130885	    -179.386513
	 D(5,12,24,21)    =        -3.138088	    -179.799181
	 D(5,12,24,25)    =         1.017266	      58.285074
	 D(5,12,24,26)    =        -1.008486	     -57.781982
	 D(6,5,12,13)     =        -1.018995	     -58.384106
	 D(6,5,12,14)     =         1.018720	      58.368370
	 D(6,5,12,24)     =         3.141541	     179.997051
	 D(7,5,12,13)     =        -3.119343	    -178.725192
	 D(7,5,12,14)     =        -1.081628	     -61.972716
	 D(7,5,12,24)     =         1.041193	      59.655965
	 D(8,5,12,13)     =         1.081385	      61.958818
	 D(8,5,12,14)     =         3.119100	     178.711294
	 D(8,5,12,24)     =        -1.041264	     -59.660025
	 D(9,15,18,19)    =         3.094859	     177.322349
	 D(9,15,18,20)    =         1.067740	      61.176979
	 D(9,15,18,21)    =        -1.062602	     -60.882596
	 D(10,9,15,16)    =        -3.054070	    -174.985313
	 D(10,9,15,17)    =         1.209390	      69.292934
	 D(10,9,15,18)    =        -0.921717	     -52.810516
	 D(11,9,15,16)    =        -1.022103	     -58.562205
	 D(11,9,15,17)    =        -3.041829	    -174.283957
	 D(11,9,15,18)    =         1.110249	      63.612592
	 D(12,24,21,18)   =        -3.116386	    -178.555776
	 D(12,24,21,22)   =         1.043162	      59.768806
	 D(12,24,21,23)   =        -0.983263	     -56.336846
	 D(13,12,24,21)   =         1.014840	      58.146043
	 D(13,12,24,25)   =        -1.112991	     -63.769702
	 D(13,12,24,26)   =        -3.138744	    -179.836757
	 D(14,12,24,21)   =        -1.007891	     -57.747876
	 D(14,12,24,25)   =        -3.135722	    -179.663622
	 D(14,12,24,26)   =         1.121711	      64.269323
	 D(15,18,21,22)   =        -0.903672	     -51.776610
	 D(15,18,21,23)   =         1.131701	      64.841696
	 D(15,18,21,24)   =        -3.028879	    -173.541997
	 D(16,15,18,19)   =        -1.057911	     -60.613835
	 D(16,15,18,20)   =        -3.085030	    -176.759205
	 D(16,15,18,21)   =         1.067814	      61.181220
	 D(17,15,18,19)   =         0.968961	      55.517359
	 D(17,15,18,20)   =        -1.058158	     -60.628012
	 D(17,15,18,21)   =         3.094685	     177.312414
	 D(18,21,24,25)   =        -0.988172	     -56.618105
	 D(18,21,24,26)   =         1.037140	      59.423742
	 D(19,18,21,22)   =         1.227154	      70.310756
	 D(19,18,21,23)   =        -3.020658	    -173.070938
	 D(19,18,21,24)   =        -0.898053	     -51.454631
	 D(20,18,21,22)   =        -3.036488	    -173.977945
	 D(20,18,21,23)   =        -1.001115	     -57.359638
	 D(20,18,21,24)   =         1.121490	      64.256669
	 D(22,21,24,25)   =        -3.111809	    -178.293522
	 D(22,21,24,26)   =        -1.086497	     -62.251676
	 D(23,21,24,25)   =         1.144950	      65.600826
	 D(23,21,24,26)   =        -3.112923	    -178.357327

	Current energy   :      -314.9842063578

	Generating empirical Hessian (Schlegel '84) for each fragment.
	Taking RFO optimization step.
	Going to follow RFO solution 1.
	Using RFO vector 1.
	Norm of target step-size    0.11816
	Projected energy change by RFO approximation:        -0.0000820762

	Back-transformation to cartesian coordinates...
	Could not converge backtransformation.
	Using first guess instead.

	--- Internal Coordinate Step in ANG or DEG, aJ/ANG or AJ/DEG ---
	 ---------------------------------------------------------------------------
	   Coordinate                Previous        Force       Change         New 
	   ----------                --------       ------       ------       ------
	    1 R(1,2)          =      1.088529     0.012118     0.002721     1.091250
	    2 R(1,3)          =      1.088678     0.012233     0.002676     1.091353
	    3 R(1,4)          =      1.087563     0.011741     0.002503     1.090066
	    4 R(1,9)          =      1.517387     0.032660     0.006894     1.524281
	    5 R(5,6)          =      1.087561     0.011689     0.002268     1.089829
	    6 R(5,7)          =      1.088506     0.012359     0.002602     1.091108
	    7 R(5,8)          =      1.088504     0.012412     0.002571     1.091075
	    8 R(5,12)         =      1.517207     0.032243     0.006880     1.524086
	    9 R(9,10)         =      1.091895     0.012598     0.002717     1.094612
	   10 R(9,11)         =      1.089333     0.012688     0.002890     1.092222
	   11 R(9,15)         =      1.517917     0.034993     0.007770     1.525688
	   12 R(12,13)        =      1.091086     0.012539     0.002702     1.093788
	   13 R(12,14)        =      1.091120     0.012648     0.002631     1.093751
	   14 R(12,24)        =      1.516414     0.034783     0.007442     1.523855
	   15 R(15,16)        =      1.093030     0.011695     0.002366     1.095395
	   16 R(15,17)        =      1.091975     0.011623     0.002428     1.094403
	   17 R(15,18)        =      1.519236     0.036984     0.007789     1.527026
	   18 R(18,19)        =      1.091777     0.011809     0.002218     1.093995
	   19 R(18,20)        =      1.092811     0.011878     0.002211     1.095022
	   20 R(18,21)        =      1.517989     0.035384     0.007490     1.525479
	   21 R(21,22)        =      1.093313     0.012532     0.002541     1.095855
	   22 R(21,23)        =      1.090828     0.012371     0.002541     1.093370
	   23 R(21,24)        =      1.516342     0.035250     0.007492     1.523834
	   24 R(24,25)        =      1.092931     0.011964     0.002530     1.095461
	   25 R(24,26)        =      1.092768     0.011841     0.002598     1.095367
	   26 B(1,9,10)       =    109.828587     0.000001    -0.034051   109.794536
	   27 B(1,9,11)       =    109.371808    -0.000001     0.007014   109.378822
	   28 B(1,9,15)       =    112.161432    -0.000010    -0.009994   112.151438
	   29 B(2,1,3)        =    107.710290    -0.000022    -0.081585   107.628705
	   30 B(2,1,4)        =    108.049951    -0.000023    -0.114930   107.935020
	   31 B(2,1,9)        =    110.704533     0.000024     0.120773   110.825305
	   32 B(3,1,4)        =    107.953324    -0.000022    -0.092235   107.861089
	   33 B(3,1,9)        =    110.582162     0.000025     0.112428   110.694590
	   34 B(4,1,9)        =    111.695457     0.000015     0.040922   111.736379
	   35 B(5,12,13)      =    109.771619    -0.000000    -0.002054   109.769564
	   36 B(5,12,14)      =    109.761488     0.000001    -0.007670   109.753818
	   37 B(5,12,24)      =    112.585160    -0.000008    -0.005838   112.579322
	   38 B(6,5,7)        =    107.986869    -0.000022    -0.111985   107.874884
	   39 B(6,5,8)        =    107.987742    -0.000021    -0.100322   107.887420
	   40 B(6,5,12)       =    111.698934     0.000014     0.038115   111.737049
	   41 B(7,5,8)        =    107.718249    -0.000022    -0.081967   107.636282
	   42 B(7,5,12)       =    110.651074     0.000025     0.129086   110.780160
	   43 B(8,5,12)       =    110.652148     0.000024     0.112113   110.764261
	   44 B(9,15,16)      =    109.000242    -0.000005     0.114775   109.115017
	   45 B(9,15,17)      =    108.749422    -0.000023    -0.143068   108.606355
	   46 B(9,15,18)      =    113.845877     0.000053     0.231760   114.077637
	   47 B(10,9,11)      =    106.655369    -0.000014    -0.182319   106.473050
	   48 B(10,9,15)      =    108.977776     0.000009     0.068545   109.046321
	   49 B(11,9,15)      =    109.692411     0.000015     0.142306   109.834718
	   50 B(12,24,21)     =    113.231798     0.000006     0.045653   113.277451
	   51 B(12,24,25)     =    109.232602    -0.000002     0.005721   109.238323
	   52 B(12,24,26)     =    109.261851    -0.000002     0.002946   109.264797
	   53 B(13,12,14)     =    106.515973    -0.000013    -0.171110   106.344863
	   54 B(13,12,24)     =    109.002440     0.000011     0.091796   109.094235
	   55 B(14,12,24)     =    109.015766     0.000010     0.086446   109.102212
	   56 B(15,18,19)     =    109.279437    -0.000015    -0.117163   109.162274
	   57 B(15,18,20)     =    109.236835    -0.000016     0.027449   109.264285
	   58 B(15,18,21)     =    113.839924     0.000050     0.225261   114.065185
	   59 B(16,15,17)     =    106.494944    -0.000004    -0.207739   106.287205
	   60 B(16,15,18)     =    109.201427    -0.000011     0.072981   109.274409
	   61 B(17,15,18)     =    109.289492    -0.000013    -0.100095   109.189397
	   62 B(18,21,22)     =    109.198124     0.000002     0.018810   109.216934
	   63 B(18,21,23)     =    109.910743     0.000006     0.095503   110.006247
	   64 B(18,21,24)     =    112.734595     0.000008     0.059259   112.793855
	   65 B(19,18,20)     =    106.494903    -0.000003    -0.197391   106.297513
	   66 B(19,18,21)     =    108.750629    -0.000019    -0.118537   108.632092
	   67 B(20,18,21)     =    108.979852     0.000001     0.150609   109.130460
	   68 B(21,24,25)     =    109.193399     0.000004     0.052723   109.246122
	   69 B(21,24,26)     =    109.255976     0.000004     0.061997   109.317972
	   70 B(22,21,23)     =    106.609545    -0.000010    -0.176359   106.433186
	   71 B(22,21,24)     =    109.357121    -0.000005    -0.046018   109.311103
	   72 B(23,21,24)     =    108.843519    -0.000002     0.034273   108.877792
	   73 B(25,24,26)     =    106.439740    -0.000011    -0.184181   106.255559
	   74 D(1,9,15,16)    =     63.185510    -0.000003    -0.708350    62.477160
	   75 D(1,9,15,17)    =    -52.536243     0.000001    -0.445614   -52.981857
	   76 D(1,9,15,18)    =   -174.639693     0.000001    -0.368442  -175.008136
	   77 D(2,1,9,10)     =    -61.183555    -0.000001    -0.118965   -61.302520
	   78 D(2,1,9,11)     =   -177.910901     0.000003     0.116736  -177.794165
	   79 D(2,1,9,15)     =     60.158231    -0.000000    -0.062273    60.095958
	   80 D(3,1,9,10)     =    179.521066    -0.000002    -0.167638   179.353428
	   81 D(3,1,9,11)     =     62.793720     0.000002     0.068062    62.861782
	   82 D(3,1,9,15)     =    -59.137148    -0.000001    -0.110946   -59.248094
	   83 D(4,1,9,10)     =     59.271701    -0.000002    -0.154646    59.117056
	   84 D(4,1,9,11)     =    -57.455645     0.000002     0.081055   -57.374590
	   85 D(4,1,9,15)     =   -179.386513    -0.000001    -0.097954  -179.484467
	   86 D(5,12,24,21)   =   -179.799181     0.000000     0.047745  -179.751436
	   87 D(5,12,24,25)   =     58.285074    -0.000002    -0.055069    58.230005
	   88 D(5,12,24,26)   =    -57.781982     0.000002     0.160629   -57.621353
	   89 D(6,5,12,13)    =    -58.384106     0.000002     0.137297   -58.246809
	   90 D(6,5,12,14)    =     58.368370    -0.000002    -0.075697    58.292673
	   91 D(6,5,12,24)    =    179.997051    -0.000000     0.025381   180.022433
	   92 D(7,5,12,13)    =   -178.725192     0.000002     0.165644  -178.559548
	   93 D(7,5,12,14)    =    -61.972716    -0.000001    -0.047351   -62.020066
	   94 D(7,5,12,24)    =     59.655965     0.000000     0.053728    59.709693
	   95 D(8,5,12,13)    =     61.958818     0.000001     0.112155    62.070973
	   96 D(8,5,12,14)    =    178.711294    -0.000002    -0.100839   178.610455
	   97 D(8,5,12,24)    =    -59.660025    -0.000000     0.000239   -59.659785
	   98 D(9,15,18,19)   =    177.322349    -0.000005    -1.889584   175.432765
	   99 D(9,15,18,20)   =     61.176979     0.000000    -1.603116    59.573863
	  100 D(9,15,18,21)   =    -60.882596    -0.000005    -1.974805   -62.857401
	  101 D(10,9,15,16)   =   -174.985313    -0.000003    -0.710477  -175.695791
	  102 D(10,9,15,17)   =     69.292934     0.000002    -0.447742    68.845193
	  103 D(10,9,15,18)   =    -52.810516     0.000001    -0.370570   -53.181086
	  104 D(11,9,15,16)   =    -58.562205    -0.000004    -0.810417   -59.372621
	  105 D(11,9,15,17)   =   -174.283957     0.000001    -0.547681  -174.831638
	  106 D(11,9,15,18)   =     63.612592     0.000000    -0.470509    63.142083
	  107 D(12,24,21,18)  =   -178.555776    -0.000001    -0.438298  -178.994074
	  108 D(12,24,21,22)  =     59.768806    -0.000002    -0.469415    59.299391
	  109 D(12,24,21,23)  =    -56.336846     0.000002    -0.252473   -56.589319
	  110 D(13,12,24,21)  =     58.146043    -0.000000    -0.010669    58.135375
	  111 D(13,12,24,25)  =    -63.769702    -0.000002    -0.113482   -63.883184
	  112 D(13,12,24,26)  =   -179.836757     0.000001     0.102215  -179.734542
	  113 D(14,12,24,21)  =    -57.747876     0.000001     0.095227   -57.652650
	  114 D(14,12,24,25)  =   -179.663622    -0.000001    -0.007587  -179.671208
	  115 D(14,12,24,26)  =     64.269323     0.000002     0.208111    64.477433
	  116 D(15,18,21,22)  =    -51.776610     0.000001    -0.837871   -52.614481
	  117 D(15,18,21,23)  =     64.841696    -0.000001    -0.985374    63.856322
	  118 D(15,18,21,24)  =   -173.541997     0.000001    -0.832237  -174.374234
	  119 D(16,15,18,19)  =    -60.613835    -0.000000    -1.525894   -62.139729
	  120 D(16,15,18,20)  =   -176.759205     0.000005    -1.239426  -177.998631
	  121 D(16,15,18,21)  =     61.181220    -0.000000    -1.611116    59.570105
	  122 D(17,15,18,19)  =     55.517359    -0.000004    -1.789779    53.727580
	  123 D(17,15,18,20)  =    -60.628012     0.000001    -1.503310   -62.131322
	  124 D(17,15,18,21)  =    177.312414    -0.000005    -1.875000   175.437414
	  125 D(18,21,24,25)  =    -56.618105     0.000000    -0.361764   -56.979869
	  126 D(18,21,24,26)  =     59.423742    -0.000002    -0.518245    58.905497
	  127 D(19,18,21,22)  =     70.310756     0.000001    -0.923320    69.387436
	  128 D(19,18,21,23)  =   -173.070938    -0.000001    -1.070824  -174.141761
	  129 D(19,18,21,24)  =    -51.454631     0.000001    -0.917687   -52.372317
	  130 D(20,18,21,22)  =   -173.977945    -0.000002    -1.141032  -175.118977
	  131 D(20,18,21,23)  =    -57.359638    -0.000004    -1.288536   -58.648174
	  132 D(20,18,21,24)  =     64.256669    -0.000003    -1.135399    63.121270
	  133 D(22,21,24,25)  =   -178.293522    -0.000001    -0.392881  -178.686404
	  134 D(22,21,24,26)  =    -62.251676    -0.000003    -0.549362   -62.801038
	  135 D(23,21,24,25)  =     65.600826     0.000003    -0.175940    65.424886
	  136 D(23,21,24,26)  =   -178.357327     0.000001    -0.332421  -178.689748
	 ---------------------------------------------------------------------------

  ==> Convergence Check <==

  Measures of convergence in internal coordinates in au.
  Criteria marked as inactive (o), active & met (*), and active & unmet ( ).
  --------------------------------------------------------------------------------------------- ~
   Step     Total Energy     Delta E     MAX Force     RMS Force      MAX Disp      RMS Disp    ~
  --------------------------------------------------------------------------------------------- ~
    Convergence Criteria             o    2.00e-06 *    1.00e-06 *    6.00e-06 *    4.00e-06 *  ~
  --------------------------------------------------------------------------------------------- ~
      1    -314.98420636   -3.15e+02 o    4.49e-03      1.11e-03      3.45e-02      1.02e-02    ~
  ---------------------------------------------------------------------------------------------

	Writing optimization data to binary file.
	Structure for next step:
	Cartesian Geometry (in Angstrom)
	    C    -4.1005051307  -0.6801435184  -0.0086784394
	    H    -4.6988426750   0.1687050682  -0.3437526220
	    H    -4.2194380714  -0.7618555106   1.0730933286
	    H    -4.5149838411  -1.5818491868  -0.4596538476
	    C     4.2829299934  -0.2844572398  -0.0662417255
	    H     4.9965992479  -1.0636383334   0.2007417079
	    H     4.5590086583   0.6221215501   0.4745105075
	    H     4.3932011769  -0.0800102686  -1.1323028801
	    C    -2.6337547095  -0.4880527463  -0.3763415734
	    H    -2.5301163714  -0.4194625162  -1.4638759109
	    H    -2.0641970663  -1.3667380427  -0.0657518290
	    C     2.8516649472  -0.6940685556   0.2601596630
	    H     2.6010590550  -1.6173939378  -0.2699721123
	    H     2.7656369137  -0.9186995384   1.3271321556
	    C    -2.0404368805   0.7650690707   0.2603552035
	    H    -2.0736728408   0.6636227202   1.3505361602
	    H    -2.6787291522   1.6186413411   0.0119286697
	    C    -0.6079251708   1.0662122684  -0.1744205536
	    H    -0.2925945120   2.0182167252   0.2627065872
	    H    -0.5812019327   1.2029475348  -1.2605435447
	    C     0.4005527789  -0.0085862249   0.2191091479
	    H     0.3138125104  -0.2087037974   1.2930397064
	    H     0.1651588695  -0.9469190097  -0.2903790783
	    C     1.8370335089   0.3822189696  -0.1062601458
	    H     1.9172684473   0.6047626699  -1.1758733785
	    H     2.0882030284   1.3097063675   0.4195809130
			--------------------------
			 OPTKING Finished Execution 
			--------------------------

    Structure for next step:
    Molecular point group: c1
    Full point group: C1

    Geometry (in Angstrom), charge = 0, multiplicity = 1:

    C           -4.100698114059    -0.679581389411    -0.009054827974
    H           -4.699035658340     0.169267197207    -0.344129010634
    H           -4.219631054711    -0.761293381670     1.072716939978
    H           -4.515176824405    -1.581287057788    -0.460030236171
    C            4.282737010081    -0.283895110877    -0.066618114107
    H            4.996406264508    -1.063076204461     0.200365319300
    H            4.558815674984     0.622683679076     0.474134118868
    H            4.393008193583    -0.079448139658    -1.132679268725
    C           -2.633947692853    -0.487490617320    -0.376717961981
    H           -2.530309354769    -0.418900387246    -1.464252299476
    H           -2.064390049682    -1.366175913734    -0.066128217643
    C            2.851471963818    -0.693506426678     0.259783274405
    H            2.600866071605    -1.616831808820    -0.270348500927
    H            2.765443930325    -0.918137409465     1.326755766957
    C           -2.040629863851     0.765631199663     0.259978814938
    H           -2.073865824140     0.664184849195     1.350159771605
    H           -2.678922135558     1.619203470081     0.011552281123
    C           -0.608118154163     1.066774397415    -0.174796942195
    H           -0.292787495324     2.018778854178     0.262330198639
    H           -0.581394916103     1.203509663779    -1.260919933279
    C            0.400359795566    -0.008024095954     0.218732759309
    H            0.313619527095    -0.208141668451     1.292663317822
    H            0.164965886154    -0.946356880684    -0.290755466871
    C            1.836840525576     0.382781098576    -0.106636534408
    H            1.917075463977     0.605324798879    -1.176249767134
    H            2.088010045001     1.310268496428     0.419204524387

gradient() will perform analytic gradient computation.

*** tstart() called on wr37
*** at Tue Sep 20 19:38:51 2016


         ---------------------------------------------------------
                                   SCF
            by Justin Turney, Rob Parrish, and Andy Simmonett
                              RHF Reference
                       12 Threads,  30000 MiB Core
         ---------------------------------------------------------

  ==> Geometry <==

    Molecular point group: c1
    Full point group: C1

    Geometry (in Angstrom), charge = 0, multiplicity = 1:

       Center              X                  Y                   Z               Mass       
    ------------   -----------------  -----------------  -----------------  -----------------
           C         -4.100698114059    -0.679581389411    -0.009054827974    12.000000000000
           H         -4.699035658340     0.169267197207    -0.344129010634     1.007825032070
           H         -4.219631054711    -0.761293381670     1.072716939978     1.007825032070
           H         -4.515176824405    -1.581287057788    -0.460030236171     1.007825032070
           C          4.282737010081    -0.283895110877    -0.066618114107    12.000000000000
           H          4.996406264508    -1.063076204461     0.200365319300     1.007825032070
           H          4.558815674984     0.622683679076     0.474134118868     1.007825032070
           H          4.393008193583    -0.079448139658    -1.132679268725     1.007825032070
           C         -2.633947692853    -0.487490617320    -0.376717961981    12.000000000000
           H         -2.530309354769    -0.418900387246    -1.464252299476     1.007825032070
           H         -2.064390049682    -1.366175913734    -0.066128217643     1.007825032070
           C          2.851471963818    -0.693506426678     0.259783274405    12.000000000000
           H          2.600866071605    -1.616831808820    -0.270348500927     1.007825032070
           H          2.765443930325    -0.918137409465     1.326755766957     1.007825032070
           C         -2.040629863851     0.765631199663     0.259978814938    12.000000000000
           H         -2.073865824140     0.664184849195     1.350159771605     1.007825032070
           H         -2.678922135558     1.619203470081     0.011552281123     1.007825032070
           C         -0.608118154163     1.066774397415    -0.174796942195    12.000000000000
           H         -0.292787495324     2.018778854178     0.262330198639     1.007825032070
           H         -0.581394916103     1.203509663779    -1.260919933279     1.007825032070
           C          0.400359795566    -0.008024095954     0.218732759309    12.000000000000
           H          0.313619527095    -0.208141668451     1.292663317822     1.007825032070
           H          0.164965886154    -0.946356880684    -0.290755466871     1.007825032070
           C          1.836840525576     0.382781098576    -0.106636534408    12.000000000000
           H          1.917075463977     0.605324798879    -1.176249767134     1.007825032070
           H          2.088010045001     1.310268496428     0.419204524387     1.007825032070

  Running in c1 symmetry.

  Rotational constants: A =      0.21718  B =      0.01895  C =      0.01811 [cm^-1]
  Rotational constants: A =   6510.80820  B =    567.99854  C =    542.83635 [MHz]
  Nuclear repulsion =  381.440028442007417

  Charge       = 0
  Multiplicity = 1
  Electrons    = 66
  Nalpha       = 33
  Nbeta        = 33

  ==> Algorithm <==

  SCF Algorithm Type is DF.
  DIIS enabled.
  MOM disabled.
  Fractional occupation disabled.
  Guess Type is READ.
  Energy threshold   = 1.00e-10
  Density threshold  = 1.00e-10
  Integral threshold = 0.00e+00

  ==> Primary Basis <==

  Basis Set: AUG-CC-PVTZ
    Number of shells: 274
    Number of basis function: 782
    Number of Cartesian functions: 890
    Spherical Harmonics?: true
    Max angular momentum: 3

  ==> Pre-Iterations <==

   -------------------------------------------------------
    Irrep   Nso     Nmo     Nalpha   Nbeta   Ndocc  Nsocc
   -------------------------------------------------------
     A        782     782       0       0       0       0
   -------------------------------------------------------
    Total     782     782      33      33      33       0
   -------------------------------------------------------

  ==> Integral Setup <==

  ==> DFJK: Density-Fitted J/K Matrices <==

    J tasked:                  Yes
    K tasked:                  Yes
    wK tasked:                  No
    OpenMP threads:             12
    Integrals threads:          12
    Memory (MB):             21457
    Algorithm:                Core
    Integral Cache:           NONE
    Schwarz Cutoff:          1E-12
    Fitting Condition:       1E-12

   => Auxiliary Basis Set <=

  Basis Set: 
    Number of shells: 492
    Number of basis function: 1660
    Number of Cartesian functions: 2038
    Spherical Harmonics?: true
    Max angular momentum: 4

  Minimum eigenvalue in the overlap matrix is 2.5237194873E-06.
  Using Symmetric Orthogonalization.
  SCF Guess: Reading in previously saved MOs, projecting if necessary.

  Using orbitals from previous SCF, no projection.
  Recomputing DOCC and SOCC from number of alpha and beta electrons from previous calculation.
              A 
    DOCC [    33 ]

  ==> Iterations <==

                           Total Energy        Delta E     RMS |[F,P]|

   @DF-RHF iter   0:  -313.48409258183466   -3.13484e+02   9.39952e-05 
   @DF-RHF iter   1:  -313.54560708589321   -6.15145e-02   2.45738e-05 
   @DF-RHF iter   2:  -313.54591230371847   -3.05218e-04   1.10177e-05 DIIS
   @DF-RHF iter   3:  -313.54596243877967   -5.01351e-05   3.65080e-06 DIIS
   @DF-RHF iter   4:  -313.54597312473771   -1.06860e-05   4.87298e-07 DIIS
   @DF-RHF iter   5:  -313.54597329117502   -1.66437e-07   1.65184e-07 DIIS
   @DF-RHF iter   6:  -313.54597330461246   -1.34374e-08   3.23925e-08 DIIS
   @DF-RHF iter   7:  -313.54597330531766   -7.05199e-10   7.38709e-09 DIIS
   @DF-RHF iter   8:  -313.54597330534574   -2.80806e-11   2.43834e-09 DIIS
   @DF-RHF iter   9:  -313.54597330534835   -2.61480e-12   4.55656e-10 DIIS
   @DF-RHF iter  10:  -313.54597330534801    3.41061e-13   1.18062e-10 DIIS
   @DF-RHF iter  11:  -313.54597330534915   -1.13687e-12   3.37504e-11 DIIS

  ==> Post-Iterations <==

    Orbital Energies (a.u.)
    -----------------------

    Doubly Occupied:                                                      

       1A    -11.212756     2A    -11.212279     3A    -11.210987  
       4A    -11.210486     5A    -11.210305     6A    -11.209560  
       7A    -11.207276     8A    -11.207209     9A     -1.093059  
      10A     -1.061441    11A     -1.011418    12A     -0.949777  
      13A     -0.875616    14A     -0.823788    15A     -0.788616  
      16A     -0.768958    17A     -0.649750    18A     -0.631037  
      19A     -0.601455    20A     -0.594055    21A     -0.573087  
      22A     -0.563884    23A     -0.547691    24A     -0.526253  
      25A     -0.513531    26A     -0.498115    27A     -0.486410  
      28A     -0.474769    29A     -0.468506    30A     -0.459515  
      31A     -0.454569    32A     -0.442514    33A     -0.432336  

    Virtual:                                                              

      34A      0.030905    35A      0.032079    36A      0.034161  
      37A      0.036413    38A      0.044409    39A      0.046813  
      40A      0.048856    41A      0.054341    42A      0.059428  
      43A      0.062828    44A      0.065394    45A      0.066903  
      46A      0.075646    47A      0.084679    48A      0.086357  
      49A      0.091987    50A      0.097071    51A      0.105897  
      52A      0.110660    53A      0.113126    54A      0.115734  
      55A      0.120510    56A      0.124736    57A      0.133616  
      58A      0.136167    59A      0.138739    60A      0.141181  
      61A      0.143177    62A      0.146647    63A      0.152947  
      64A      0.155876    65A      0.158057    66A      0.165679  
      67A      0.166140    68A      0.168581    69A      0.174224  
      70A      0.179395    71A      0.185284    72A      0.186662  
      73A      0.193265    74A      0.199868    75A      0.206505  
      76A      0.210030    77A      0.218917    78A      0.227042  
      79A      0.232366    80A      0.232496    81A      0.237857  
      82A      0.249678    83A      0.253204    84A      0.256548  
      85A      0.266985    86A      0.268922    87A      0.271205  
      88A      0.272455    89A      0.277783    90A      0.285772  
      91A      0.289835    92A      0.295798    93A      0.300831  
      94A      0.309832    95A      0.314469    96A      0.317909  
      97A      0.321920    98A      0.327597    99A      0.332663  
     100A      0.337844   101A      0.343189   102A      0.347894  
     103A      0.349251   104A      0.353215   105A      0.356516  
     106A      0.357057   107A      0.362722   108A      0.365512  
     109A      0.368856   110A      0.371236   111A      0.378028  
     112A      0.380571   113A      0.382115   114A      0.386074  
     115A      0.388000   116A      0.394274   117A      0.397484  
     118A      0.401190   119A      0.404693   120A      0.406357  
     121A      0.409414   122A      0.413818   123A      0.415480  
     124A      0.417468   125A      0.424934   126A      0.432964  
     127A      0.433360   128A      0.439716   129A      0.444200  
     130A      0.448538   131A      0.450560   132A      0.453574  
     133A      0.456143   134A      0.458822   135A      0.462776  
     136A      0.463149   137A      0.467723   138A      0.470727  
     139A      0.476096   140A      0.481106   141A      0.485650  
     142A      0.486288   143A      0.487620   144A      0.496006  
     145A      0.500616   146A      0.500765   147A      0.503780  
     148A      0.508714   149A      0.513386   150A      0.514043  
     151A      0.522487   152A      0.526671   153A      0.527699  
     154A      0.530324   155A      0.537701   156A      0.538970  
     157A      0.540864   158A      0.547145   159A      0.551216  
     160A      0.557412   161A      0.560754   162A      0.564926  
     163A      0.569552   164A      0.577647   165A      0.578970  
     166A      0.579999   167A      0.586225   168A      0.591593  
     169A      0.596754   170A      0.605843   171A      0.609227  
     172A      0.612599   173A      0.618224   174A      0.626028  
     175A      0.627885   176A      0.635483   177A      0.641193  
     178A      0.649969   179A      0.653496   180A      0.656692  
     181A      0.661497   182A      0.668696   183A      0.671749  
     184A      0.680538   185A      0.694302   186A      0.697832  
     187A      0.702048   188A      0.708882   189A      0.712563  
     190A      0.716482   191A      0.723199   192A      0.725295  
     193A      0.732664   194A      0.741316   195A      0.748937  
     196A      0.753726   197A      0.768132   198A      0.777857  
     199A      0.791011   200A      0.796899   201A      0.805830  
     202A      0.809299   203A      0.815144   204A      0.828521  
     205A      0.836783   206A      0.840146   207A      0.843595  
     208A      0.847995   209A      0.849599   210A      0.854062  
     211A      0.860224   212A      0.867443   213A      0.870685  
     214A      0.875774   215A      0.881454   216A      0.885052  
     217A      0.892220   218A      0.895675   219A      0.897869  
     220A      0.902315   221A      0.905517   222A      0.906395  
     223A      0.910273   224A      0.915578   225A      0.927270  
     226A      0.931630   227A      0.933880   228A      0.937923  
     229A      0.939349   230A      0.946189   231A      0.947852  
     232A      0.949249   233A      0.959423   234A      0.960562  
     235A      0.970373   236A      0.970893   237A      0.977971  
     238A      0.980390   239A      0.986311   240A      0.990391  
     241A      0.994580   242A      1.006927   243A      1.008802  
     244A      1.012983   245A      1.021413   246A      1.026357  
     247A      1.034577   248A      1.035914   249A      1.039577  
     250A      1.045582   251A      1.050760   252A      1.052904  
     253A      1.063582   254A      1.074959   255A      1.079076  
     256A      1.082565   257A      1.092865   258A      1.096750  
     259A      1.101728   260A      1.106670   261A      1.109836  
     262A      1.113226   263A      1.123540   264A      1.126175  
     265A      1.130867   266A      1.132083   267A      1.141808  
     268A      1.148147   269A      1.152270   270A      1.156478  
     271A      1.161077   272A      1.167476   273A      1.173028  
     274A      1.176945   275A      1.180991   276A      1.185363  
     277A      1.188178   278A      1.192912   279A      1.200091  
     280A      1.205605   281A      1.208318   282A      1.215939  
[...]

	Current energy   :      -314.9844884271

	Energy change for the previous step:
		Projected    :        -0.0000000000
		Actual       :         0.0000000018

	Performing BFGS update.
	Previous computed or guess Hessian on step 1.
	Denominators (dg)(dq) or (dq)(dq) are very small.
	 Skipping Hessian update for step 17.
	Denominators (dg)(dq) or (dq)(dq) are very small.
	 Skipping Hessian update for step 16.
	Denominators (dg)(dq) or (dq)(dq) are very small.
	 Skipping Hessian update for step 15.
	Denominators (dg)(dq) or (dq)(dq) are very small.
	 Skipping Hessian update for step 14.
	Denominators (dg)(dq) or (dq)(dq) are very small.
	 Skipping Hessian update for step 13.
	Denominators (dg)(dq) or (dq)(dq) are very small.
	 Skipping Hessian update for step 12.
	Denominators (dg)(dq) or (dq)(dq) are very small.
	 Skipping Hessian update for step 11.
	Denominators (dg)(dq) or (dq)(dq) are very small.
	 Skipping Hessian update for step 10.
	Denominators (dg)(dq) or (dq)(dq) are very small.
	 Skipping Hessian update for step 9.
	Denominators (dg)(dq) or (dq)(dq) are very small.
	 Skipping Hessian update for step 8.
	Denominators (dg)(dq) or (dq)(dq) are very small.
	 Skipping Hessian update for step 7.
	Denominators (dg)(dq) or (dq)(dq) are very small.
	 Skipping Hessian update for step 6.
	Denominators (dg)(dq) or (dq)(dq) are very small.
	 Skipping Hessian update for step 5.
	Steps to be used in Hessian update: 4 3
	Taking RFO optimization step.
	Going to follow RFO solution 1.
	Using RFO vector 1.
	Norm of target step-size    0.00002
	Projected energy change by RFO approximation:        -0.0000000000

	Back-transformation to cartesian coordinates...
	Successfully converged to displaced geometry.

	--- Internal Coordinate Step in ANG or DEG, aJ/ANG or AJ/DEG ---
	 ---------------------------------------------------------------------------
	   Coordinate                Previous        Force       Change         New 
	   ----------                --------       ------       ------       ------
	    1 R(1,2)          =      1.090697     0.000001     0.000000     1.090697
	    2 R(1,3)          =      1.090797     0.000001     0.000000     1.090797
	    3 R(1,4)          =      1.089710     0.000001     0.000000     1.089711
	    4 R(1,9)          =      1.523950     0.000001     0.000000     1.523950
	    5 R(5,6)          =      1.089706     0.000002     0.000000     1.089706
	    6 R(5,7)          =      1.090687     0.000002     0.000000     1.090688
	    7 R(5,8)          =      1.090693     0.000002     0.000000     1.090694
	    8 R(5,12)         =      1.523694     0.000000     0.000000     1.523694
	    9 R(9,10)         =      1.093917     0.000002     0.000000     1.093918
	   10 R(9,11)         =      1.091607     0.000001     0.000000     1.091607
	   11 R(9,15)         =      1.524675     0.000001     0.000000     1.524675
	   12 R(12,13)        =      1.093238     0.000002     0.000000     1.093238
	   13 R(12,14)        =      1.093259     0.000002     0.000000     1.093260
	   14 R(12,24)        =      1.523385     0.000002     0.000000     1.523385
	   15 R(15,16)        =      1.095033     0.000002     0.000000     1.095033
	   16 R(15,17)        =      1.094027     0.000002     0.000000     1.094027
	   17 R(15,18)        =      1.526554     0.000000     0.000000     1.526554
	   18 R(18,19)        =      1.093849     0.000002     0.000000     1.093850
	   19 R(18,20)        =      1.094881     0.000002     0.000000     1.094881
	   20 R(18,21)        =      1.524664    -0.000000    -0.000000     1.524664
	   21 R(21,22)        =      1.095332     0.000003     0.000001     1.095332
	   22 R(21,23)        =      1.093026     0.000002     0.000000     1.093026
	   23 R(21,24)        =      1.523404     0.000001     0.000000     1.523404
	   24 R(24,25)        =      1.094908     0.000005     0.000001     1.094909
	   25 R(24,26)        =      1.094810     0.000004     0.000001     1.094811
	   26 B(1,9,10)       =    109.791576    -0.000000     0.000006   109.791582
	   27 B(1,9,11)       =    109.377091    -0.000000    -0.000027   109.377064
	   28 B(1,9,15)       =    112.051239     0.000000     0.000007   112.051245
	   29 B(2,1,3)        =    107.683858    -0.000000     0.000000   107.683858
	   30 B(2,1,4)        =    107.963472    -0.000000     0.000001   107.963473
	   31 B(2,1,9)        =    110.775011     0.000000     0.000000   110.775011
	   32 B(3,1,4)        =    107.894167    -0.000000    -0.000002   107.894165
	   33 B(3,1,9)        =    110.678710    -0.000000    -0.000006   110.678704
	   34 B(4,1,9)        =    111.692511     0.000000     0.000007   111.692518
	   35 B(5,12,13)      =    109.754695     0.000000    -0.000018   109.754678
	   36 B(5,12,14)      =    109.754332    -0.000000    -0.000021   109.754311
	   37 B(5,12,24)      =    112.474441    -0.000000    -0.000022   112.474419
	   38 B(6,5,7)        =    107.917054    -0.000000     0.000002   107.917056
	   39 B(6,5,8)        =    107.917936    -0.000000    -0.000001   107.917936
	   40 B(6,5,12)       =    111.696510     0.000000     0.000005   111.696515
	   41 B(7,5,8)        =    107.691545    -0.000000    -0.000003   107.691542
	   42 B(7,5,12)       =    110.733746     0.000000     0.000003   110.733749
	   43 B(8,5,12)       =    110.730386    -0.000000    -0.000006   110.730380
	   44 B(9,15,16)      =    109.115482     0.000000     0.000008   109.115490
	   45 B(9,15,17)      =    108.597993    -0.000000    -0.000017   108.597976
	   46 B(9,15,18)      =    113.966113    -0.000000    -0.000004   113.966109
	   47 B(10,9,11)      =    106.575956     0.000000     0.000003   106.575959
	   48 B(10,9,15)      =    109.001719     0.000000     0.000045   109.001764
	   49 B(11,9,15)      =    109.891769    -0.000000    -0.000034   109.891735
	   50 B(12,24,21)     =    113.166216     0.000000     0.000113   113.166328
	   51 B(12,24,25)     =    109.220030    -0.000000    -0.000018   109.220012
	   52 B(12,24,26)     =    109.257413    -0.000000    -0.000037   109.257376
	   53 B(13,12,14)     =    106.455747    -0.000000    -0.000016   106.455731
	   54 B(13,12,24)     =    109.110496     0.000000     0.000030   109.110525
	   55 B(14,12,24)     =    109.106694     0.000000     0.000048   109.106743
	   56 B(15,18,19)     =    109.188484     0.000000    -0.000001   109.188483
	   57 B(15,18,20)     =    109.246404     0.000000    -0.000013   109.246391
	   58 B(15,18,21)     =    113.925613    -0.000000    -0.000054   113.925559
	   59 B(16,15,17)     =    106.392677     0.000000     0.000025   106.392702
	   60 B(16,15,18)     =    109.278136    -0.000000    -0.000024   109.278113
	   61 B(17,15,18)     =    109.214909     0.000000     0.000012   109.214922
	   62 B(18,21,22)     =    109.163352     0.000000     0.000018   109.163370
	   63 B(18,21,23)     =    110.061484    -0.000000    -0.000020   110.061464
	   64 B(18,21,24)     =    112.696279    -0.000000    -0.000026   112.696253
	   65 B(19,18,20)     =    106.416918    -0.000000     0.000041   106.416959
	   66 B(19,18,21)     =    108.642186     0.000000    -0.000004   108.642182
	   67 B(20,18,21)     =    109.150512     0.000000     0.000038   109.150550
	   68 B(21,24,25)     =    109.264761    -0.000000    -0.000011   109.264749
	   69 B(21,24,26)     =    109.331191    -0.000000    -0.000029   109.331162
	   70 B(22,21,23)     =    106.547038    -0.000000    -0.000015   106.547023
	   71 B(22,21,24)     =    109.305123     0.000000     0.000026   109.305149
	   72 B(23,21,24)     =    108.877998     0.000000     0.000018   108.878015
	   73 B(25,24,26)     =    106.375359     0.000000    -0.000026   106.375333
	   74 D(1,9,15,16)    =     61.694137    -0.000000    -0.000214    61.693922
	   75 D(1,9,15,17)    =    -53.885816    -0.000000    -0.000240   -53.886056
	   76 D(1,9,15,18)    =   -175.863436    -0.000000    -0.000241  -175.863677
	   77 D(2,1,9,10)     =    -61.422671    -0.000000     0.000040   -61.422631
	   78 D(2,1,9,11)     =   -178.035871    -0.000000     0.000048  -178.035823
	   79 D(2,1,9,15)     =     59.850130     0.000000     0.000106    59.850236
	   80 D(3,1,9,10)     =    179.207158    -0.000000     0.000044   179.207202
	   81 D(3,1,9,11)     =     62.593959    -0.000000     0.000052    62.594011
	   82 D(3,1,9,15)     =    -59.520041     0.000000     0.000110   -59.519931
	   83 D(4,1,9,10)     =     58.969032    -0.000000     0.000046    58.969079
	   84 D(4,1,9,11)     =    -57.644167    -0.000000     0.000054   -57.644113
	   85 D(4,1,9,15)     =   -179.758167     0.000000     0.000112  -179.758055
	   86 D(5,12,24,21)   =   -179.898984     0.000000    -0.000026  -179.899010
	   87 D(5,12,24,25)   =     58.147338    -0.000000    -0.000075    58.147263
	   88 D(5,12,24,26)   =    -57.833106     0.000000    -0.000014   -57.833119
	   89 D(6,5,12,13)    =    -58.315349     0.000000     0.000002   -58.315348
	   90 D(6,5,12,14)    =     58.350100    -0.000000    -0.000040    58.350060
	   91 D(6,5,12,24)    =   -179.985179     0.000000    -0.000008  -179.985188
	   92 D(7,5,12,13)    =   -178.622664     0.000000    -0.000006  -178.622669
	   93 D(7,5,12,14)    =    -61.957214    -0.000000    -0.000048   -61.957262
	   94 D(7,5,12,24)    =     59.707506     0.000000    -0.000016    59.707491
	   95 D(8,5,12,13)    =     61.990791     0.000000     0.000000    61.990792
	   96 D(8,5,12,14)    =    178.656241    -0.000000    -0.000042   178.656199
	   97 D(8,5,12,24)    =    -59.679039     0.000000    -0.000010   -59.679049
	   98 D(9,15,18,19)   =    174.713901     0.000000    -0.000030   174.713871
	   99 D(9,15,18,20)   =     58.707460    -0.000000    -0.000071    58.707390
	  100 D(9,15,18,21)   =    -63.639279    -0.000000    -0.000072   -63.639351
	  101 D(10,9,15,16)   =   -176.579234     0.000000    -0.000171  -176.579405
	  102 D(10,9,15,17)   =     67.840813    -0.000000    -0.000197    67.840617
	  103 D(10,9,15,18)   =    -54.136806    -0.000000    -0.000198   -54.137004
	  104 D(11,9,15,16)   =    -60.125634     0.000000    -0.000161   -60.125795
	  105 D(11,9,15,17)   =   -175.705587    -0.000000    -0.000186  -175.705774
	  106 D(11,9,15,18)   =     62.316793    -0.000000    -0.000187    62.316606
	  107 D(12,24,21,18)  =   -179.564330     0.000000     0.000176  -179.564154
	  108 D(12,24,21,22)  =     58.867019    -0.000000     0.000151    58.867171
	  109 D(12,24,21,23)  =    -57.154477    -0.000000     0.000145   -57.154331
	  110 D(13,12,24,21)  =     58.065385     0.000000    -0.000010    58.065376
	  111 D(13,12,24,25)  =    -63.888292    -0.000000    -0.000059   -63.888351
	  112 D(13,12,24,26)  =   -179.868736     0.000000     0.000003  -179.868733
	  113 D(14,12,24,21)  =    -57.866494    -0.000000    -0.000034   -57.866528
	  114 D(14,12,24,25)  =   -179.820172    -0.000000    -0.000083  -179.820255
	  115 D(14,12,24,26)  =     64.199384     0.000000    -0.000021    64.199363
	  116 D(15,18,21,22)  =    -54.006245     0.000000     0.000052   -54.006193
	  117 D(15,18,21,23)  =     62.602483    -0.000000     0.000033    62.602516
	  118 D(15,18,21,24)  =   -175.655272    -0.000000     0.000023  -175.655249
	  119 D(16,15,18,19)  =    -62.932917     0.000000    -0.000039   -62.932956
	  120 D(16,15,18,20)  =   -178.939358    -0.000000    -0.000080  -178.939438
	  121 D(16,15,18,21)  =     58.713903    -0.000000    -0.000081    58.713822
	  122 D(17,15,18,19)  =     53.076972     0.000000    -0.000015    53.076957
	  123 D(17,15,18,20)  =    -62.929469     0.000000    -0.000056   -62.929525
	  124 D(17,15,18,21)  =    174.723792    -0.000000    -0.000057   174.723735
	  125 D(18,21,24,25)  =    -57.635698     0.000000     0.000221   -57.635476
	  126 D(18,21,24,26)  =     58.411053    -0.000000     0.000168    58.411221
	  127 D(19,18,21,22)  =     67.942530    -0.000000     0.000012    67.942542
	  128 D(19,18,21,23)  =   -175.448742    -0.000000    -0.000007  -175.448749
	  129 D(19,18,21,24)  =    -53.706497    -0.000000    -0.000017   -53.706514
	  130 D(20,18,21,22)  =   -176.405653     0.000000     0.000079  -176.405575
	  131 D(20,18,21,23)  =    -59.796925     0.000000     0.000060   -59.796866
	  132 D(20,18,21,24)  =     61.945319     0.000000     0.000050    61.945369
	  133 D(22,21,24,25)  =   -179.204348     0.000000     0.000197  -179.204151
	  134 D(22,21,24,26)  =    -63.157598    -0.000000     0.000143   -63.157454
	  135 D(23,21,24,25)  =     64.774156     0.000000     0.000191    64.774347
	  136 D(23,21,24,26)  =   -179.179094    -0.000000     0.000137  -179.178956
	 ---------------------------------------------------------------------------

  ==> Convergence Check <==

  Measures of convergence in internal coordinates in au.
  Criteria marked as inactive (o), active & met (*), and active & unmet ( ).
  ---------------------------------------------------------------------------------------------
   Step     Total Energy     Delta E     MAX Force     RMS Force      MAX Disp      RMS Disp   
  ---------------------------------------------------------------------------------------------
    Convergence Criteria             o    2.00e-06 *    1.00e-06 *    6.00e-06 *    4.00e-06 *
  ---------------------------------------------------------------------------------------------
     18    -314.98448843    1.83e-09 o    5.63e-07 *    1.21e-07 *    4.21e-06 *    1.36e-06 *  ~
  ---------------------------------------------------------------------------------------------


  **** Optimization is complete! (in 18 steps) ****

  ==> Optimization Summary <==

  Measures of convergence in internal coordinates in au.
  --------------------------------------------------------------------------------------------------------------- ~
   Step         Total Energy             Delta E       MAX Force       RMS Force        MAX Disp        RMS Disp  ~
  --------------------------------------------------------------------------------------------------------------- ~
      1    -314.984206357815   -314.984206357815      0.00448899      0.00110619      0.03446686      0.01015434  ~
      2    -314.984469749910     -0.000263392095      0.00072582      0.00019919      0.02007307      0.00608616  ~
      3    -314.984485154562     -0.000015404651      0.00027038      0.00008015      0.01390415      0.00347259  ~
      4    -314.984488107803     -0.000002953241      0.00009474      0.00002426      0.00233653      0.00080072  ~
      5    -314.984488406308     -0.000000298505      0.00002240      0.00000804      0.00027472      0.00007848  ~
      6    -314.984488430974     -0.000000024666      0.00000322      0.00000085      0.00007222      0.00002597  ~
      7    -314.984488425949      0.000000005025      0.00000244      0.00000063      0.00003589      0.00001144  ~
      8    -314.984488431090     -0.000000005141      0.00000289      0.00000074      0.00005006      0.00001851  ~
      9    -314.984488429077      0.000000002013      0.00000067      0.00000012      0.00000965      0.00000295  ~
     10    -314.984488428954      0.000000000122      0.00000099      0.00000024      0.00001553      0.00000581  ~
     11    -314.984488425446      0.000000003508      0.00000116      0.00000027      0.00002117      0.00000633  ~
     12    -314.984488426765     -0.000000001319      0.00000077      0.00000017      0.00001431      0.00000472  ~
     13    -314.984488429090     -0.000000002325      0.00000089      0.00000019      0.00001620      0.00000442  ~
     14    -314.984488430423     -0.000000001333      0.00000085      0.00000020      0.00001530      0.00000492  ~
     15    -314.984488428026      0.000000002397      0.00000101      0.00000025      0.00000879      0.00000272  ~
     16    -314.984488425477      0.000000002548      0.00000030      0.00000009      0.00000617      0.00000197  ~
     17    -314.984488428934     -0.000000003456      0.00000061      0.00000014      0.00001230      0.00000419  ~
     18    -314.984488427099      0.000000001835      0.00000056      0.00000012      0.00000421      0.00000136  ~
  --------------------------------------------------------------------------------------------------------------- ~

	Writing optimization data to binary file.
	Final energy is   -314.9844884270990
	Final (previous) structure:
	Cartesian Geometry (in Angstrom)
	    C    -4.0916100561  -0.6862364459  -0.0184048711
	    H    -4.6960299338   0.1677424917  -0.3266518955
	    H    -4.1989670829  -0.7955904661   1.0615735660
	    H    -4.5057243645  -1.5780926220  -0.4880541942
	    C     4.2759044288  -0.2925190934  -0.0754523179
	    H     4.9900430674  -1.0666270180   0.2042284060
	    H     4.5575013197   0.6260943712   0.4407368189
	    H     4.3761872660  -0.1147441731  -1.1468770876
	    C    -2.6298061849  -0.4781314996  -0.3955589055
	    H    -2.5371848565  -0.3844014977  -1.4815105406
	    H    -2.0527807551  -1.3592407299  -0.1086891656
	    C     2.8473709359  -0.6912868902   0.2737180778
	    H     2.5904130703  -1.6257019223  -0.2322557165
	    H     2.7704839197  -0.8885877480   1.3462741785
	    C    -2.0403178984   0.7647172422   0.2620610504
	    H    -2.0764203741   0.6460696265   1.3500485674
	    H    -2.6777473901   1.6212793226   0.0235649750
	    C    -0.6068627479   1.0710709195  -0.1642263313
	    H    -0.2961273901   2.0225378885   0.2769770655
	    H    -0.5747380581   1.2083137311  -1.2499964623
	    C     0.3995845494  -0.0026725778   0.2341929684
	    H     0.3224458810  -0.1858465038   1.3113411934
	    H     0.1562926783  -0.9465958363  -0.2602998779
	    C     1.8335984925   0.3789744818  -0.1103483883
	    H     1.9068109849   0.5757448378  -1.1849393809
	    H     2.0900728263   1.3166077594   0.3933114448
	Saving final (previous) structure.
			--------------------------
			 OPTKING Finished Execution 
			--------------------------

    Final optimized geometry and variables:
    Molecular point group: c1
    Full point group: C1

    Geometry (in Angstrom), charge = 0, multiplicity = 1:

    C           -4.091610056053    -0.686236445901    -0.018404871111
    H           -4.696029933843     0.167742491705    -0.326651895542
    H           -4.198967082949    -0.795590466111     1.061573566040
    H           -4.505724364497    -1.578092621957    -0.488054194203
    C            4.275904428801    -0.292519093394    -0.075452317898
    H            4.990043067418    -1.066627018033     0.204228406002
    H            4.557501319739     0.626094371190     0.440736818880
    H            4.376187266015    -0.114744173053    -1.146877087648
    C           -2.629806184882    -0.478131499586    -0.395558905521
    H           -2.537184856466    -0.384401497710    -1.481510540584
    H           -2.052780755071    -1.359240729898    -0.108689165590
    C            2.847370935924    -0.691286890221     0.273718077797
    H            2.590413070287    -1.625701922291    -0.232255716453
    H            2.770483919730    -0.888587748005     1.346274178526
    C           -2.040317898394     0.764717242215     0.262061050386
    H           -2.076420374120     0.646069626487     1.350048567367
    H           -2.677747390131     1.621279322583     0.023564974979
    C           -0.606862747864     1.071070919499    -0.164226331289
    H           -0.296127390145     2.022537888466     0.276977065538
    H           -0.574738058083     1.208313731086    -1.249996462284
    C            0.399584549373    -0.002672577813     0.234192968408
    H            0.322445881031    -0.185846503845     1.311341193407
    H            0.156292678346    -0.946595836323    -0.260299877929
    C            1.833598492539     0.378974481793    -0.110348388311
    H            1.906810984856     0.575744837755    -1.184939380892
    H            2.090072826330     1.316607759435     0.393311444804

	Cleaning optimization helper files.

*** Psi4 exiting successfully. Buy a developer a beer!
