    -----------------------------------------------------------------------
          Psi4: An Open-Source Ab Initio Electronic Structure Package
                              Psi4 1.0.0 Driver

                          Git: Rev {master} 6a9a71b dirty

    J. M. Turney, A. C. Simmonett, R. M. Parrish, E. G. Hohenstein,
    F. A. Evangelista, J. T. Fermann, B. J. Mintz, L. A. Burns, J. J. Wilke,
    M. L. Abrams, N. J. Russ, M. L. Leininger, C. L. Janssen, E. T. Seidl,
    W. D. Allen, H. F. Schaefer, R. A. King, E. F. Valeev, C. D. Sherrill,
    and T. D. Crawford, WIREs Comput. Mol. Sci. 2, 556-565 (2012)
    (doi: 10.1002/wcms.93)

                         Additional Contributions by
    A. E. DePrince, U. Bozkaya, A. Yu. Sokolov, D. G. A. Smith, R. Di Remigio,
    R. M. Richard, J. F. Gonthier, H. R. McAlexander, M. Saitow, and
    B. P. Pritchard
    -----------------------------------------------------------------------


    Psi4 started on: Wed Sep 21 04:57:33 2016

    Process ID:  11406
    PSI4DATADIR: /usr/local/hpc5/psi4conda/share/psi4
    Memory level set to 256.000 MB

  ==> Input File <==

--------------------------------------------------------------------------
memory 60 Gb

molecule molecule_92_psi {
0 1
C           -2.378033863571     0.894208153546    -0.997646593493
H           -2.077667884973     0.616268539965    -2.009138997238
H           -1.660851061090     1.625676456309    -0.630122736799
H           -3.350006477950     1.384000724062    -1.062517011547
C            2.378092443461    -0.894305595990    -0.997416705167
H            3.350073206145    -1.384094170131    -1.062192469498
H            2.077765701822    -0.616480569379    -2.008952070004
H            1.660903080503    -1.625741702877    -0.629842450338
C           -2.446596556363    -0.343524873748    -0.106440571061
H           -3.220601012545    -1.003344309016    -0.503679962072
H           -2.775434383050    -0.060535530760     0.897920840148
C            2.446603473913     0.343525615990    -0.106343339317
H            2.775399155808     0.060650057697     0.898063792832
H            3.220618757290     1.003309600094    -0.503620613300
C           -1.128626234586    -1.124393659775    -0.004475938316
H           -0.577856904540    -1.023620375014    -0.943748843089
H           -1.351916988134    -2.188700592553     0.101099455739
C           -0.244352339315    -0.723424039007     1.177609376064
H            0.616785465472    -1.394667697430     1.229355585965
H           -0.812464997103    -0.894657023219     2.097083165747
C            0.244288434568     0.723528181272     1.177553887444
H           -0.616854090291     1.394774815759     1.229192890084
H            0.812353152241     0.894850260689     2.097040917413
C            1.128620960863     1.124392623792    -0.004523422005
H            0.577902470952     1.023523245979    -0.943816348026
H            1.351896638838     2.188711993743     0.100961672658
}

set globals {
  reference rhf
  g_convergence gau_verytight
  basis aug-cc-pvtz
  freeze_core true
  scf_type df
  mp_type df
}
optimize('mp2')
--------------------------------------------------------------------------
/usr/local/hpc5/psi4conda/lib/python2.7/site-packages/v2rdm_casscf/v2rdm_casscf.so loaded.

  Memory set to  60.000 GiB by Python script.
gradient() will perform analytic gradient computation.

*** tstart() called on wr32
*** at Wed Sep 21 04:57:34 2016


         ---------------------------------------------------------
                                   SCF
            by Justin Turney, Rob Parrish, and Andy Simmonett
                              RHF Reference
                       12 Threads,  60000 MiB Core
         ---------------------------------------------------------

  ==> Geometry <==

    Molecular point group: c1
    Full point group: C1

    Geometry (in Angstrom), charge = 0, multiplicity = 1:

       Center              X                  Y                   Z               Mass       
    ------------   -----------------  -----------------  -----------------  -----------------
           C         -2.378033863571     0.894208153546    -0.997646593493    12.000000000000
           H         -2.077667884973     0.616268539965    -2.009138997238     1.007825032070
           H         -1.660851061090     1.625676456309    -0.630122736799     1.007825032070
           H         -3.350006477950     1.384000724062    -1.062517011547     1.007825032070
           C          2.378092443461    -0.894305595990    -0.997416705167    12.000000000000
           H          3.350073206145    -1.384094170131    -1.062192469498     1.007825032070
           H          2.077765701822    -0.616480569379    -2.008952070004     1.007825032070
           H          1.660903080503    -1.625741702877    -0.629842450338     1.007825032070
           C         -2.446596556363    -0.343524873748    -0.106440571061    12.000000000000
           H         -3.220601012545    -1.003344309016    -0.503679962072     1.007825032070
           H         -2.775434383050    -0.060535530760     0.897920840148     1.007825032070
           C          2.446603473913     0.343525615990    -0.106343339317    12.000000000000
           H          2.775399155808     0.060650057697     0.898063792832     1.007825032070
           H          3.220618757290     1.003309600094    -0.503620613300     1.007825032070
           C         -1.128626234586    -1.124393659775    -0.004475938316    12.000000000000
           H         -0.577856904540    -1.023620375014    -0.943748843089     1.007825032070
           H         -1.351916988134    -2.188700592553     0.101099455739     1.007825032070
           C         -0.244352339315    -0.723424039007     1.177609376064    12.000000000000
           H          0.616785465472    -1.394667697430     1.229355585965     1.007825032070
           H         -0.812464997103    -0.894657023219     2.097083165747     1.007825032070
           C          0.244288434568     0.723528181272     1.177553887444    12.000000000000
           H         -0.616854090291     1.394774815759     1.229192890084     1.007825032070
           H          0.812353152241     0.894850260689     2.097040917413     1.007825032070
           C          1.128620960863     1.124392623792    -0.004523422005    12.000000000000
           H          0.577902470952     1.023523245979    -0.943816348026     1.007825032070
           H          1.351896638838     2.188711993743     0.100961672658     1.007825032070

  Running in c1 symmetry.

  Rotational constants: A =      0.09432  B =      0.03544  C =      0.03473 [cm^-1]
  Rotational constants: A =   2827.61530  B =   1062.46428  C =   1041.20068 [MHz]
  Nuclear repulsion =  410.444989792596232

  Charge       = 0
  Multiplicity = 1
  Electrons    = 66
  Nalpha       = 33
  Nbeta        = 33

  ==> Algorithm <==

  SCF Algorithm Type is DF.
  DIIS enabled.
  MOM disabled.
  Fractional occupation disabled.
  Guess Type is SAD.
  Energy threshold   = 1.00e-10
  Density threshold  = 1.00e-10
  Integral threshold = 0.00e+00

  ==> Primary Basis <==

  Basis Set: AUG-CC-PVTZ
    Number of shells: 274
    Number of basis function: 782
    Number of Cartesian functions: 890
    Spherical Harmonics?: true
    Max angular momentum: 3

  ==> Pre-Iterations <==

   -------------------------------------------------------
    Irrep   Nso     Nmo     Nalpha   Nbeta   Ndocc  Nsocc
   -------------------------------------------------------
     A        782     782       0       0       0       0
   -------------------------------------------------------
    Total     782     782      33      33      33       0
   -------------------------------------------------------

  ==> Integral Setup <==

  ==> DFJK: Density-Fitted J/K Matrices <==

    J tasked:                  Yes
    K tasked:                  Yes
    wK tasked:                  No
    OpenMP threads:             12
    Integrals threads:          12
    Memory (MB):             42915
    Algorithm:                Core
    Integral Cache:           NONE
    Schwarz Cutoff:          1E-12
    Fitting Condition:       1E-12

   => Auxiliary Basis Set <=

  Basis Set: 
    Number of shells: 492
    Number of basis function: 1660
    Number of Cartesian functions: 2038
    Spherical Harmonics?: true
    Max angular momentum: 4

  Minimum eigenvalue in the overlap matrix is 1.2504901650E-06.
  Using Symmetric Orthogonalization.
  SCF Guess: Superposition of Atomic Densities via on-the-fly atomic UHF.

  ==> Iterations <==

                           Total Energy        Delta E     RMS |[F,P]|

   @DF-RHF iter   0:  -317.15026793256703   -3.17150e+02   7.09676e-03 
   @DF-RHF iter   1:  -313.31515356182280    3.83511e+00   6.48539e-04 
   @DF-RHF iter   2:  -313.50432760747543   -1.89174e-01   2.27223e-04 DIIS
   @DF-RHF iter   3:  -313.52654357683531   -2.22160e-02   1.00922e-04 DIIS
   @DF-RHF iter   4:  -313.53106114542521   -4.51757e-03   1.46923e-05 DIIS
   @DF-RHF iter   5:  -313.53121445465166   -1.53309e-04   3.71708e-06 DIIS
   @DF-RHF iter   6:  -313.53122293584880   -8.48120e-06   1.22993e-06 DIIS
   @DF-RHF iter   7:  -313.53122364028542   -7.04437e-07   2.32433e-07 DIIS
   @DF-RHF iter   8:  -313.53122367913278   -3.88474e-08   5.92540e-08 DIIS
   @DF-RHF iter   9:  -313.53122368152259   -2.38981e-09   1.75839e-08 DIIS
   @DF-RHF iter  10:  -313.53122368174917   -2.26578e-10   4.75390e-09 DIIS
   @DF-RHF iter  11:  -313.53122368176258   -1.34150e-11   1.24580e-09 DIIS
   @DF-RHF iter  12:  -313.53122368176452   -1.93268e-12   2.74727e-10 DIIS
   @DF-RHF iter  13:  -313.53122368176440    1.13687e-13   7.91409e-11 DIIS

  ==> Post-Iterations <==

    Orbital Energies (a.u.)
    -----------------------

    Doubly Occupied:                                                      

       1A    -11.213129     2A    -11.213129     3A    -11.210821  
       4A    -11.210348     5A    -11.209854     6A    -11.209715  
       7A    -11.206332     8A    -11.206331     9A     -1.094412  
      10A     -1.054806    11A     -1.004339    12A     -0.954681  
      13A     -0.887629    14A     -0.827315    15A     -0.796517  
      16A     -0.744005    17A     -0.651239    18A     -0.632439  
      19A     -0.607862    20A     -0.585595    21A     -0.572708  
      22A     -0.569590    23A     -0.541016    24A     -0.539889  
      25A     -0.515880    26A     -0.502678    27A     -0.492269  
      28A     -0.474063    29A     -0.467975    30A     -0.454223  
      31A     -0.440068    32A     -0.436835    33A     -0.433765  

    Virtual:                                                              

      34A      0.029262    35A      0.033158    36A      0.034694  
      37A      0.035357    38A      0.046190    39A      0.048315  
      40A      0.051075    41A      0.052711    42A      0.054026  
      43A      0.069783    44A      0.070825    45A      0.072567  
      46A      0.074232    47A      0.078148    48A      0.079579  
      49A      0.085506    50A      0.099492    51A      0.103063  
      52A      0.113444    53A      0.120262    54A      0.123657  
      55A      0.124510    56A      0.132175    57A      0.132966  
      58A      0.133976    59A      0.136421    60A      0.137639  
      61A      0.141672    62A      0.147453    63A      0.149248  
      64A      0.152859    65A      0.153159    66A      0.162327  
      67A      0.167272    68A      0.172142    69A      0.174478  
      70A      0.175781    71A      0.177894    72A      0.183197  
      73A      0.187980    74A      0.189621    75A      0.193119  
      76A      0.196076    77A      0.200161    78A      0.211225  
      79A      0.219226    80A      0.230539    81A      0.236519  
      82A      0.247782    83A      0.258379    84A      0.266874  
      85A      0.267331    86A      0.280941    87A      0.283149  
      88A      0.290103    89A      0.290656    90A      0.296025  
      91A      0.306975    92A      0.307498    93A      0.312414  
      94A      0.317286    95A      0.319801    96A      0.326312  
      97A      0.332718    98A      0.334724    99A      0.334981  
     100A      0.337889   101A      0.345159   102A      0.350941  
     103A      0.353552   104A      0.355321   105A      0.358857  
     106A      0.360687   107A      0.365205   108A      0.367543  
     109A      0.374438   110A      0.376338   111A      0.376653  
     112A      0.380658   113A      0.383279   114A      0.389727  
     115A      0.390278   116A      0.397323   117A      0.399343  
     118A      0.402135   119A      0.404526   120A      0.406568  
     121A      0.421134   122A      0.424418   123A      0.430698  
     124A      0.435922   125A      0.436845   126A      0.439649  
     127A      0.448585   128A      0.453489   129A      0.459678  
     130A      0.461771   131A      0.464132   132A      0.465490  
     133A      0.472977   134A      0.473398   135A      0.475187  
     136A      0.487196   137A      0.487875   138A      0.488172  
     139A      0.490938   140A      0.497429   141A      0.503948  
     142A      0.506386   143A      0.510569   144A      0.510619  
     145A      0.514406   146A      0.516754   147A      0.518085  
     148A      0.530518   149A      0.537639   150A      0.542445  
     151A      0.543006   152A      0.543495   153A      0.549551  
     154A      0.560045   155A      0.561991   156A      0.564120  
     157A      0.567817   158A      0.581523   159A      0.583592  
     160A      0.584124   161A      0.593312   162A      0.597158  
     163A      0.597231   164A      0.605604   165A      0.608273  
     166A      0.608334   167A      0.614697   168A      0.623396  
     169A      0.624256   170A      0.628742   171A      0.631233  
     172A      0.644262   173A      0.648919   174A      0.650648  
     175A      0.654351   176A      0.656073   177A      0.667061  
     178A      0.670418   179A      0.670763   180A      0.678014  
     181A      0.680631   182A      0.681735   183A      0.691792  
     184A      0.694540   185A      0.696642   186A      0.703557  
     187A      0.704300   188A      0.716558   189A      0.717456  
     190A      0.720326   191A      0.733234   192A      0.742493  
     193A      0.746100   194A      0.749076   195A      0.755094  
     196A      0.758807   197A      0.769824   198A      0.777230  
     199A      0.781907   200A      0.785597   201A      0.796761  
     202A      0.805485   203A      0.805747   204A      0.822509  
     205A      0.823229   206A      0.837683   207A      0.848234  
     208A      0.860098   209A      0.861989   210A      0.862105  
     211A      0.864920   212A      0.873903   213A      0.875108  
     214A      0.889495   215A      0.893435   216A      0.901799  
     217A      0.905137   218A      0.905559   219A      0.915126  
     220A      0.922116   221A      0.924114   222A      0.925605  
     223A      0.938424   224A      0.942488   225A      0.945887  
     226A      0.946220   227A      0.955670   228A      0.960678  
     229A      0.965076   230A      0.973495   231A      0.974682  
     232A      0.979211   233A      0.984884   234A      0.990660  
     235A      0.995192   236A      1.005682   237A      1.013513  
     238A      1.020113   239A      1.023148   240A      1.025284  
     241A      1.029532   242A      1.034680   243A      1.039956  
     244A      1.045672   245A      1.047350   246A      1.055606  
     247A      1.066157   248A      1.066805   249A      1.067827  
     250A      1.075115   251A      1.080681   252A      1.081517  
     253A      1.100148   254A      1.106254   255A      1.113226  
     256A      1.114028   257A      1.117550   258A      1.127575  
     259A      1.127689   260A      1.132316   261A      1.142941  
     262A      1.148252   263A      1.150433   264A      1.155064  
     265A      1.160258   266A      1.167535   267A      1.176764  
     268A      1.184457   269A      1.188797   270A      1.195718  
     271A      1.199508   272A      1.202561   273A      1.203899  
     274A      1.213040   275A      1.220907   276A      1.220986  
     277A      1.231415   278A      1.233723   279A      1.236959  
     280A      1.250974   281A      1.252102   282A      1.253739  
     283A      1.262648   284A      1.268345   285A      1.271652  
     286A      1.280259   287A      1.286686   288A      1.292245  
     289A      1.298327   290A      1.302832   291A      1.309757  
     292A      1.313203   293A      1.323249   294A      1.323895  
     295A      1.335507   296A      1.337261   297A      1.337747  
     298A      1.345404   299A      1.350108   300A      1.354399  
     301A      1.361138   302A      1.368817   303A      1.374597  
     304A      1.380992   305A      1.390891   306A      1.395805  
     307A      1.397647   308A      1.402762   309A      1.415727  
     310A      1.421136   311A      1.432237   312A      1.440734  
     313A      1.450199   314A      1.452622   315A      1.463352  
     316A      1.467216   317A      1.482152   318A      1.483625  
     319A      1.489101   320A      1.502904   321A      1.504477  
     322A      1.508001   323A      1.517178   324A      1.518134  
     325A      1.533004   326A      1.546865   327A      1.547983  
     328A      1.553382   329A      1.561154   330A      1.577491  
     331A      1.577582   332A      1.583472   333A      1.583847  
     334A      1.594127   335A      1.604495   336A      1.610281  
     337A      1.612841   338A      1.622330   339A      1.634351  
     340A      1.645177   341A      1.648916   342A      1.649235  
     343A      1.666087   344A      1.667513   345A      1.671318  
     346A      1.674224   347A      1.686514   348A      1.693212  
     349A      1.694999   350A      1.698917   351A      1.701162  
     352A      1.717502   353A      1.731769   354A      1.734938  
     355A      1.736408   356A      1.745826   357A      1.757443  
     358A      1.760538   359A      1.763611   360A      1.768324  
     361A      1.772618   362A      1.784510   363A      1.795757  
     364A      1.797441   365A      1.802207   366A      1.802598  
     367A      1.810914   368A      1.815356   369A      1.821091  
     370A      1.826455   371A      1.833173   372A      1.842459  
     373A      1.847049   374A      1.848492   375A      1.854431  
     376A      1.855679   377A      1.865803   378A      1.881142  
     379A      1.888201   380A      1.894640   381A      1.899465  
     382A      1.902713   383A      1.904686   384A      1.911971  
     385A      1.921492   386A      1.922484   387A      1.934744  
     388A      1.941248   389A      1.953138   390A      1.955932  
     391A      1.966114   392A      1.974468   393A      1.984958  
     394A      1.987942   395A      1.992116   396A      1.997975  
     397A      2.012327   398A      2.017000   399A      2.019698  
     400A      2.028479   401A      2.031087   402A      2.044899  
     403A      2.049112   404A      2.056541   405A      2.069987  
     406A      2.078121   407A      2.081420   408A      2.095366  
     409A      2.095869   410A      2.101004   411A      2.101751  
     412A      2.115634   413A      2.121541   414A      2.133042  
     415A      2.136525   416A      2.140743   417A      2.143324  
     418A      2.152480   419A      2.163890   420A      2.173998  
     421A      2.181041   422A      2.183249   423A      2.199301  
     424A      2.206402   425A      2.210140   426A      2.215181  
     427A      2.224146   428A      2.226585   429A      2.249980  
     430A      2.251263   431A      2.265697   432A      2.278496  
     433A      2.290929   434A      2.308994   435A      2.312535  
     436A      2.315805   437A      2.323809   438A      2.337220  
     439A      2.343452   440A      2.347661   441A      2.349858  
     442A      2.359033   443A      2.371196   444A      2.377192  
     445A      2.382701   446A      2.403003   447A      2.406761  
     448A      2.410144   449A      2.424284   450A      2.435261  
     451A      2.443851   452A      2.448324   453A      2.462546  
     454A      2.464894   455A      2.488631   456A      2.489045  
     457A      2.503931   458A      2.504230   459A      2.516210  
     460A      2.535676   461A      2.541279   462A      2.548166  
     463A      2.569644   464A      2.573450   465A      2.581107  
     466A      2.594885   467A      2.599762   468A      2.616526  
     469A      2.641070   470A      2.650722   471A      2.653786  
     472A      2.667949   473A      2.681553   474A      2.690754  
     475A      2.695988   476A      2.714036   477A      2.715101  
     478A      2.746383   479A      2.750010   480A      2.756901  
     481A      2.758164   482A      2.817116   483A      2.822013  
     484A      2.839455   485A      2.917720   486A      3.010771  
     487A      3.057920   488A      3.065538   489A      3.084996  
     490A      3.142065   491A      3.195297   492A      3.257719  
     493A      3.291714   494A      3.367054   495A      3.382483  
     496A      3.424252   497A      3.430250   498A      3.460144  
     499A      3.460739   500A      3.501894   501A      3.506363  
     502A      3.516847   503A      3.535317   504A      3.553928  
     505A      3.566194   506A      3.574284   507A      3.588222  
     508A      3.594518   509A      3.597045   510A      3.607759  
     511A      3.616842   512A      3.632728   513A      3.649960  
     514A      3.670428   515A      3.680135   516A      3.690731  
     517A      3.694640   518A      3.710618   519A      3.723304  
     520A      3.737342   521A      3.740615   522A      3.750888  
     523A      3.755328   524A      3.765721   525A      3.775501  
     526A      3.794559   527A      3.796528   528A      3.800798  
     529A      3.807240   530A      3.813875   531A      3.821855  
     532A      3.835443   533A      3.847179   534A      3.847235  
     535A      3.852162   536A      3.862310   537A      3.872028  
     538A      3.876209   539A      3.888743   540A      3.901408  
     541A      3.907675   542A      3.916155   543A      3.923860  
     544A      3.924263   545A      3.934783   546A      3.948407  
     547A      3.955294   548A      3.966515   549A      3.967267  
     550A      3.974829   551A      3.978308   552A      3.988504  
     553A      3.999609   554A      4.009279   555A      4.013791  
     556A      4.017900   557A      4.049620   558A      4.055663  
     559A      4.058624   560A      4.061878   561A      4.069370  
     562A      4.072317   563A      4.081942   564A      4.085612  
     565A      4.103226   566A      4.104516   567A      4.106325  
     568A      4.108617   569A      4.114443   570A      4.126089  
     571A      4.127610   572A      4.144091   573A      4.149782  
     574A      4.152627   575A      4.170036   576A      4.177955  
     577A      4.179755   578A      4.192480   579A      4.196848  
     580A      4.212629   581A      4.215677   582A      4.227366  
     583A      4.227777   584A      4.234368   585A      4.248358  
     586A      4.249792   587A      4.263997   588A      4.287071  
     589A      4.287698   590A      4.300269   591A      4.307888  
     592A      4.319371   593A      4.319914   594A      4.341273  
     595A      4.343464   596A      4.352225   597A      4.360576  
     598A      4.375642   599A      4.379073   600A      4.388347  
     601A      4.396492   602A      4.422231   603A      4.433495  
     604A      4.444905   605A      4.450713   606A      4.467907  
     607A      4.476764   608A      4.499322   609A      4.511175  
     610A      4.526658   611A      4.529049   612A      4.546580  
     613A      4.557644   614A      4.564416   615A      4.566334  
     616A      4.583504   617A      4.590653   618A      4.594111  
     619A      4.616350   620A      4.634981   621A      4.646301  
     622A      4.655196   623A      4.663466   624A      4.674980  
     625A      4.684509   626A      4.697059   627A      4.711477  
     628A      4.720421   629A      4.725433   630A      4.730591  
     631A      4.773751   632A      4.775759   633A      4.787174  
     634A      4.806655   635A      4.817071   636A      4.820809  
     637A      4.826863   638A      4.835037   639A      4.856151  
     640A      4.863745   641A      4.879569   642A      4.885465  
     643A      4.896298   644A      4.908135   645A      4.920419  
     646A      4.933558   647A      4.946487   648A      4.949101  
     649A      4.967568   650A      4.971517   651A      4.988034  
     652A      4.988622   653A      5.008656   654A      5.009786  
     655A      5.020702   656A      5.036891   657A      5.049284  
     658A      5.050360   659A      5.068716   660A      5.078184  
     661A      5.083413   662A      5.097335   663A      5.115913  
     664A      5.118697   665A      5.138056   666A      5.151309  
     667A      5.161432   668A      5.192921   669A      5.197797  
     670A      5.203447   671A      5.213138   672A      5.226527  
     673A      5.230051   674A      5.235452   675A      5.249044  
     676A      5.256965   677A      5.274292   678A      5.280926  
     679A      5.315132   680A      5.320838   681A      5.328680  
     682A      5.333831   683A      5.348388   684A      5.366514  
     685A      5.379725   686A      5.392148   687A      5.405444  
     688A      5.413227   689A      5.414151   690A      5.436163  
     691A      5.446221   692A      5.449475   693A      5.460676  
     694A      5.462880   695A      5.474835   696A      5.480797  
     697A      5.481658   698A      5.494545   699A      5.508524  
     700A      5.526815   701A      5.544117   702A      5.566100  
     703A      5.566231   704A      5.571288   705A      5.575245  
     706A      5.598758   707A      5.603262   708A      5.610154  
     709A      5.647480   710A      5.649413   711A      5.665568  
     712A      5.668097   713A      5.702993   714A      5.709069  
     715A      5.720860   716A      5.734458   717A      5.741463  
     718A      5.744332   719A      5.745254   720A      5.757363  
     721A      5.763035   722A      5.769788   723A      5.791967  
     724A      5.816885   725A      5.834716   726A      5.856394  
     727A      5.861818   728A      5.872262   729A      5.892803  
     730A      5.897433   731A      5.930861   732A      5.980020  
     733A      6.000834   734A      6.005013   735A      6.070932  
     736A      6.078394   737A      6.110083   738A      6.124394  
     739A      6.126868   740A      6.128419   741A      6.167939  
     742A      6.192367   743A      6.203345   744A      6.211328  
     745A      6.228192   746A      6.271314   747A      6.276788  
     748A      6.303424   749A      6.312839   750A      6.343905  
     751A      6.344473   752A      6.366225   753A      6.375607  
     754A      6.396686   755A      6.415463   756A      6.416979  
     757A      6.479425   758A      6.482849   759A      6.634167  
     760A      6.673794   761A      6.692875   762A      6.710349  
     763A      6.763774   764A      6.803605   765A      6.852559  
     766A      6.855865   767A      6.961663   768A      6.969401  
     769A      7.009949   770A      7.013540   771A      7.096867  
     772A      7.134995   773A      7.174602   774A      7.188994  
     775A     18.135136   776A     18.152481   777A     18.255799  
     778A     18.589113   779A     19.368373   780A     19.387041  
     781A     19.522720   782A     20.020747  

    Final Occupation by Irrep:
              A 
    DOCC [    33 ]

  Energy converged.

  @DF-RHF Final Energy:  -313.53122368176440

   => Energetics <=

    Nuclear Repulsion Energy =            410.4449897925962318
    One-Electron Energy =               -1236.0295090697427440
    Two-Electron Energy =                 512.0532955953821102
    DFT Exchange-Correlation Energy =       0.0000000000000000
    Empirical Dispersion Energy =           0.0000000000000000
    PCM Polarization Energy =               0.0000000000000000
    EFP Energy =                            0.0000000000000000
    Total Energy =                       -313.5312236817643452


  Saving occupied orbitals to File 180.

*** tstop() called on wr32 at Wed Sep 21 04:58:50 2016
Module time:
	user time   =     814.58 seconds =      13.58 minutes
	system time =      10.82 seconds =       0.18 minutes
	total time  =         76 seconds =       1.27 minutes
Total time:
	user time   =     814.58 seconds =      13.58 minutes
	system time =      10.82 seconds =       0.18 minutes
	total time  =         76 seconds =       1.27 minutes


Properties will be evaluated at   0.000000,   0.000000,   0.000000 Bohr

Properties computed using the SCF density matrix

  Nuclear Dipole Moment: (a.u.)
     X:     0.0000      Y:    -0.0001      Z:    -1.5439

  Electronic Dipole Moment: (a.u.)
     X:    -0.0000      Y:     0.0001      Z:     1.5710

  Dipole Moment: (a.u.)
     X:    -0.0000      Y:     0.0000      Z:     0.0271     Total:     0.0271

  Dipole Moment: (Debye)
     X:    -0.0000      Y:     0.0000      Z:     0.0688     Total:     0.0688


  //>>>>>>>>>>>>>>>>>>>>>>>>>>>>>>>>>>>//
  //               DFMP2               //
  //<<<<<<<<<<<<<<<<<<<<<<<<<<<<<<<<<<<//


*** tstart() called on wr32
*** at Wed Sep 21 04:58:50 2016


*** tstop() called on wr32 at Wed Sep 21 04:58:50 2016
Module time:
	user time   =       3.32 seconds =       0.06 minutes
	system time =       0.13 seconds =       0.00 minutes
	total time  =          0 seconds =       0.00 minutes
Total time:
	user time   =     819.65 seconds =      13.66 minutes
	system time =      11.04 seconds =       0.18 minutes
	total time  =         76 seconds =       1.27 minutes
	 --------------------------------------------------------
	                          DF-MP2                         
	      2nd-Order Density-Fitted Moller-Plesset Theory     
	              RMP2 Wavefunction,  12 Threads             
	                                                         
	        Rob Parrish, Justin Turney, Andy Simmonett,      
	           Ed Hohenstein, and C. David Sherrill          
	 --------------------------------------------------------

   => Auxiliary Basis Set <=

  Basis Set: 
    Number of shells: 476
    Number of basis function: 1676
    Number of Cartesian functions: 2078
    Spherical Harmonics?: true
    Max angular momentum: 4

	 --------------------------------------------------------
	                 NBF =   782, NAUX =  1676
	 --------------------------------------------------------
	   CLASS    FOCC     OCC    AOCC    AVIR     VIR    FVIR
	   PAIRS       8      33      25     749     749       0
	 --------------------------------------------------------

DGAS Warning! /src/lib/libfock/apps.cc:80 is not currently checking restricted

         ------------------------------------------------------------
                                     CPHF                           
                                  Rob Parrish                       
         ------------------------------------------------------------

  ==> Geometry <==

    Molecular point group: c1
    Full point group: C1

    Geometry (in Angstrom), charge = 0, multiplicity = 1:

       Center              X                  Y                   Z               Mass       
    ------------   -----------------  -----------------  -----------------  -----------------
           C         -2.378033863571     0.894208153546    -0.997646593493    12.000000000000
           H         -2.077667884973     0.616268539965    -2.009138997238     1.007825032070
           H         -1.660851061090     1.625676456309    -0.630122736799     1.007825032070
           H         -3.350006477950     1.384000724062    -1.062517011547     1.007825032070
           C          2.378092443461    -0.894305595990    -0.997416705167    12.000000000000
           H          3.350073206145    -1.384094170131    -1.062192469498     1.007825032070
           H          2.077765701822    -0.616480569379    -2.008952070004     1.007825032070
           H          1.660903080503    -1.625741702877    -0.629842450338     1.007825032070
           C         -2.446596556363    -0.343524873748    -0.106440571061    12.000000000000
           H         -3.220601012545    -1.003344309016    -0.503679962072     1.007825032070
           H         -2.775434383050    -0.060535530760     0.897920840148     1.007825032070
           C          2.446603473913     0.343525615990    -0.106343339317    12.000000000000
           H          2.775399155808     0.060650057697     0.898063792832     1.007825032070
           H          3.220618757290     1.003309600094    -0.503620613300     1.007825032070
           C         -1.128626234586    -1.124393659775    -0.004475938316    12.000000000000
           H         -0.577856904540    -1.023620375014    -0.943748843089     1.007825032070
           H         -1.351916988134    -2.188700592553     0.101099455739     1.007825032070
           C         -0.244352339315    -0.723424039007     1.177609376064    12.000000000000
           H          0.616785465472    -1.394667697430     1.229355585965     1.007825032070
           H         -0.812464997103    -0.894657023219     2.097083165747     1.007825032070
           C          0.244288434568     0.723528181272     1.177553887444    12.000000000000
           H         -0.616854090291     1.394774815759     1.229192890084     1.007825032070
           H          0.812353152241     0.894850260689     2.097040917413     1.007825032070
           C          1.128620960863     1.124392623792    -0.004523422005    12.000000000000
           H          0.577902470952     1.023523245979    -0.943816348026     1.007825032070
           H          1.351896638838     2.188711993743     0.100961672658     1.007825032070

  Nuclear repulsion =  410.444989792596232
  Reference energy  = -313.531223681764402

  ==> Basis Set <==

  Basis Set: AUG-CC-PVTZ
    Number of shells: 274
    Number of basis function: 782
    Number of Cartesian functions: 890
    Spherical Harmonics?: true
    Max angular momentum: 3

  ==> CGRSolver (by Rob Parrish) <==

   Number of roots    =         1
   Preconditioning    =    JACOBI
   Convergence cutoff =     1E-06
   Maximum iterations =       100

  ==> CPHFRHamiltonian (by Rob Parrish) <== 

  ==> DFJK: Density-Fitted J/K Matrices <==

    J tasked:                  Yes
    K tasked:                  Yes
    wK tasked:                  No
    OpenMP threads:             12
    Integrals threads:          12
    Memory (MB):             42915
    Algorithm:                Core
    Integral Cache:           NONE
    Schwarz Cutoff:          1E-12
    Fitting Condition:       1E-12

   => Auxiliary Basis Set <=

  Basis Set: 
    Number of shells: 492
    Number of basis function: 1660
    Number of Cartesian functions: 2038
    Spherical Harmonics?: true
    Max angular momentum: 4

  ==> CPHF Iterations <==

  => Iterations <=

             Iter  Converged  Remaining    Residual
  CGR           1          0          1   9.549E-02
  CGR           2          0          1   1.396E-02
  CGR           3          0          1   4.107E-03
  CGR           4          0          1   8.840E-04
  CGR           5          0          1   2.374E-04
  CGR           6          0          1   4.342E-05
  CGR           7          0          1   1.020E-05
  CGR           8          0          1   2.740E-06
  CGR           9          1          0   7.317E-07

    CGRSolver converged.

  ==> DFCorrGrad: Density-Fitted Correlated Gradients <==

    OpenMP threads:             12
    Integrals threads:          12
    Memory (MB):             42915
    Schwarz Cutoff:          0E+00
    Fitting Condition:       1E-12

   => Auxiliary Basis Set <=

  Basis Set: 
    Number of shells: 492
    Number of basis function: 1660
    Number of Cartesian functions: 2038
    Spherical Harmonics?: true
    Max angular momentum: 4

	-----------------------------------------------------------
	 ==================> DF-MP2 Energies <==================== 
	-----------------------------------------------------------
	 Reference Energy          =    -313.5312236817644020 [Eh]
	 Singles Energy            =      -0.0000000000000002 [Eh]
	 Same-Spin Energy          =      -0.3181163283603395 [Eh]
	 Opposite-Spin Energy      =      -1.1282503236610504 [Eh]
	 Correlation Energy        =      -1.4463666520213903 [Eh]
	 Total Energy              =    -314.9775903337857699 [Eh]
	-----------------------------------------------------------
	 ================> DF-SCS-MP2 Energies <================== 
	-----------------------------------------------------------
	 SCS Same-Spin Scale       =       0.3333333333333333 [-]
	 SCS Opposite-Spin Scale   =       1.2000000000000000 [-]
	 SCS Same-Spin Energy      =      -0.1060387761201132 [Eh]
	 SCS Opposite-Spin Energy  =      -1.3539003883932603 [Eh]
	 SCS Correlation Energy    =      -1.4599391645133737 [Eh]
	 SCS Total Energy          =    -314.9911628462778026 [Eh]
	-----------------------------------------------------------


  -Total Gradient:
     Atom            X                  Y                   Z
    ------   -----------------  -----------------  -----------------
       1        0.000000034704     0.000000538177    -0.000000454020
       2       -0.000000117796     0.000000023302     0.000000393962
       3       -0.000000267691    -0.000000357145    -0.000000069077
       4        0.000000292654    -0.000000072950    -0.000000007789
       5        0.000000120653    -0.000000094950    -0.000000159624
       6        0.000000020913     0.000000006077     0.000000001824
       7       -0.000000002813    -0.000000005608    -0.000000068712
       8       -0.000000051501    -0.000000005632     0.000000109335
       9       -0.000000325413    -0.000000529256     0.000000588872
      10        0.000000304060     0.000000250092     0.000000277299
      11        0.000000209401    -0.000000099930    -0.000000614190
      12       -0.000000113159    -0.000000038962     0.000000424578
      13       -0.000000014893     0.000000003078    -0.000000067383
      14        0.000000033135     0.000000038591    -0.000000059791
      15        0.000000682235    -0.000000190432    -0.000000913683
      16       -0.000000576969     0.000000054669     0.000000774076
      17        0.000000092560     0.000000472216    -0.000000099226
      18        0.000000086956    -0.000000313010     0.000000269418
      19       -0.000000560599     0.000000397278    -0.000000027686
      20        0.000000261244     0.000000068937    -0.000000270375
      21       -0.000000906469    -0.000000098024     0.000000561477
      22        0.000000460396    -0.000000373105     0.000000011253
      23       -0.000000090502     0.000000053786    -0.000000174371
      24        0.000000566037     0.000000406835    -0.000000536996
      25       -0.000000140024    -0.000000047799     0.000000125989
      26        0.000000002881    -0.000000086237    -0.000000015155


			-----------------------------------------
			 OPTKING 2.0: for geometry optimizations 
			  - R.A. King,  Bethel University        
			-----------------------------------------

	Internal coordinates to be generated automatically.
	Detected frag 1 with atoms:  1 2 3 4 5 6 7 8 9 10 11 12 13 14 15 16 17 18 19 20
	 21 22 23 24 25 26
	---Fragment 1 Bond Connectivity---
	 1 : 2 3 4 9
	 2 : 1
	 3 : 1
	 4 : 1
	 5 : 6 7 8 12
	 6 : 5
	 7 : 5
	 8 : 5
	 9 : 1 10 11 15
	 10 : 9
	 11 : 9
	 12 : 5 13 14 24
	 13 : 12
	 14 : 12
	 15 : 9 16 17 18
	 16 : 15
	 17 : 15
	 18 : 15 19 20 21
	 19 : 18
	 20 : 18
	 21 : 18 22 23 24
	 22 : 21
	 23 : 21
	 24 : 12 21 25 26
	 25 : 24
	 26 : 24

	---Fragment 1 Geometry and Gradient---
	 C          -4.4938327369        1.6898085160       -1.8852788391
	 H          -3.9262232977        1.1645787648       -3.7967224677
	 H          -3.1385536530        3.0720832831       -1.1907594027
	 H          -6.3305947867        2.6153823362       -2.0078661634
	 C           4.4939434368       -1.6899926555       -1.8848444131
	 H           6.3307208847       -2.6155589237       -2.0072528678
	 H           3.9264081447       -1.1649794424       -3.7963692264
	 H           3.1386519554       -3.0722065812       -1.1902297380
	 C          -4.6233974492       -0.6491679312       -0.2011435287
	 H          -6.0860538970       -1.8960459610       -0.9518171869
	 H          -5.2448108838       -0.1143955744        1.6968244769
	 C           4.6234105215        0.6491693339       -0.2009597874
	 H           5.2447443139        0.1146119990        1.6970946183
	 H           6.0860874297        1.8959803707       -0.9517050340
	 C          -2.1327944898       -2.1247960825       -0.0084582976
	 H          -1.0919912936       -1.9343621728       -1.7834268517
	 H          -2.5547528620       -4.1360447068        0.1910502835
	 C          -0.4617590012       -1.3670733117        2.2253592123
	 H           1.1655556125       -2.6355399945        2.3231453774
	 H          -1.5353363371       -1.6906567567        3.9629128611
	 C           0.4616382388        1.3672701120        2.2252543540
	 H          -1.1656852946        2.6357424188        2.3228379267
	 H           1.5351249809        1.6910219226        3.9628330234
	 C           2.1327845239        2.1247941248       -0.0085480288
	 H           1.0920774016        1.9341786255       -1.7835544175
	 H           2.5547144074        4.1360662519        0.1907899112
	             0.0000000347        0.0000005382       -0.0000004540
	            -0.0000001178        0.0000000233        0.0000003940
	            -0.0000002677       -0.0000003571       -0.0000000691
	             0.0000002927       -0.0000000729       -0.0000000078
	             0.0000001207       -0.0000000949       -0.0000001596
	             0.0000000209        0.0000000061        0.0000000018
	            -0.0000000028       -0.0000000056       -0.0000000687
	            -0.0000000515       -0.0000000056        0.0000001093
	            -0.0000003254       -0.0000005293        0.0000005889
	             0.0000003041        0.0000002501        0.0000002773
	             0.0000002094       -0.0000000999       -0.0000006142
	            -0.0000001132       -0.0000000390        0.0000004246
	            -0.0000000149        0.0000000031       -0.0000000674
	             0.0000000331        0.0000000386       -0.0000000598
	             0.0000006822       -0.0000001904       -0.0000009137
	            -0.0000005770        0.0000000547        0.0000007741
	             0.0000000926        0.0000004722       -0.0000000992
	             0.0000000870       -0.0000003130        0.0000002694
	            -0.0000005606        0.0000003973       -0.0000000277
	             0.0000002612        0.0000000689       -0.0000002704
	            -0.0000009065       -0.0000000980        0.0000005615
	             0.0000004604       -0.0000003731        0.0000000113
	            -0.0000000905        0.0000000538       -0.0000001744
	             0.0000005660        0.0000004068       -0.0000005370
	            -0.0000001400       -0.0000000478        0.0000001260
	             0.0000000029       -0.0000000862       -0.0000000152

	Previous optimization step data not found.  Starting new optimization.

	---Fragment 1 Intrafragment Coordinates---
	 - Coordinate -           - BOHR/RAD -       - ANG/DEG -
	 R(1,2)           =         2.061956	       1.091140
	 R(1,3)           =         2.056653	       1.088334
	 R(1,4)           =         2.060439	       1.090337
	 R(1,9)           =         2.885119	       1.526739
	 R(5,6)           =         2.060439	       1.090337
	 R(5,7)           =         2.061956	       1.091140
	 R(5,8)           =         2.056653	       1.088334
	 R(5,12)          =         2.885118	       1.526739
	 R(9,10)          =         2.063390	       1.091899
	 R(9,11)          =         2.067467	       1.094056
	 R(9,15)          =         2.901329	       1.535317
	 R(12,13)         =         2.067467	       1.094056
	 R(12,14)         =         2.063390	       1.091899
	 R(12,24)         =         2.901329	       1.535317
	 R(15,16)         =         2.066410	       1.093497
	 R(15,17)         =         2.064697	       1.092591
	 R(15,18)         =         2.890751	       1.529720
	 R(18,19)         =         2.065605	       1.093071
	 R(18,20)         =         2.067938	       1.094306
	 R(18,21)         =         2.886052	       1.527233
	 R(21,22)         =         2.065606	       1.093071
	 R(21,23)         =         2.067938	       1.094306
	 R(21,24)         =         2.890752	       1.529720
	 R(24,25)         =         2.066411	       1.093497
	 R(24,26)         =         2.064698	       1.092591
	 B(1,9,10)        =         1.885322	     108.020989
	 B(1,9,11)        =         1.917369	     109.857129
	 B(1,9,15)        =         1.996041	     114.364747
	 B(2,1,3)         =         1.878471	     107.628474
	 B(2,1,4)         =         1.880384	     107.738062
	 B(2,1,9)         =         1.925144	     110.302626
	 B(3,1,4)         =         1.881378	     107.795031
	 B(3,1,9)         =         1.957723	     112.169240
	 B(4,1,9)         =         1.937858	     111.031092
	 B(5,12,13)       =         1.917369	     109.857158
	 B(5,12,14)       =         1.885322	     108.021012
	 B(5,12,24)       =         1.996041	     114.364730
	 B(6,5,7)         =         1.880384	     107.738069
	 B(6,5,8)         =         1.881378	     107.795008
	 B(6,5,12)        =         1.937858	     111.031092
	 B(7,5,8)         =         1.878472	     107.628490
	 B(7,5,12)        =         1.925144	     110.302647
	 B(8,5,12)        =         1.957722	     112.169220
	 B(9,15,16)       =         1.905465	     109.175129
	 B(9,15,17)       =         1.903308	     109.051544
	 B(9,15,18)       =         1.997898	     114.471113
	 B(10,9,11)       =         1.851700	     106.094609
	 B(10,9,15)       =         1.902157	     108.985567
	 B(11,9,15)       =         1.905623	     109.184171
	 B(12,24,21)      =         1.997897	     114.471085
	 B(12,24,25)      =         1.905465	     109.175075
	 B(12,24,26)      =         1.903309	     109.051557
	 B(13,12,14)      =         1.851700	     106.094619
	 B(13,12,24)      =         1.905623	     109.184166
	 B(14,12,24)      =         1.902156	     108.985528
	 B(15,18,19)      =         1.908184	     109.330909
	 B(15,18,20)      =         1.884065	     107.948957
	 B(15,18,21)      =         2.018909	     115.674950
	 B(16,15,17)      =         1.850122	     106.004155
	 B(16,15,18)      =         1.926710	     110.392360
	 B(17,15,18)      =         1.874234	     107.385694
	 B(18,21,22)      =         1.906831	     109.253358
	 B(18,21,23)      =         1.890608	     108.323849
	 B(18,21,24)      =         2.018912	     115.675155
	 B(19,18,20)      =         1.847441	     105.850581
	 B(19,18,21)      =         1.906833	     109.253503
	 B(20,18,21)      =         1.890606	     108.323728
	 B(21,24,25)      =         1.926711	     110.392382
	 B(21,24,26)      =         1.874234	     107.385701
	 B(22,21,23)      =         1.847440	     105.850520
	 B(22,21,24)      =         1.908182	     109.330787
	 B(23,21,24)      =         1.884064	     107.948940
	 B(25,24,26)      =         1.850122	     106.004202
	 D(1,9,15,16)     =        -0.548381	     -31.419912
	 D(1,9,15,17)     =        -2.562460	    -146.818159
	 D(1,9,15,18)     =         1.621144	      92.884681
	 D(2,1,9,10)      =        -1.101459	     -63.108945
	 D(2,1,9,11)      =        -3.113920	    -178.414488
	 D(2,1,9,15)      =         1.019580	      58.417621
	 D(3,1,9,10)      =         3.087990	     176.928818
	 D(3,1,9,11)      =         1.075529	      61.623275
	 D(3,1,9,15)      =        -1.074156	     -61.544616
	 D(4,1,9,10)      =         0.981746	      56.249877
	 D(4,1,9,11)      =        -1.030716	     -59.055666
	 D(4,1,9,15)      =         3.102784	     177.776443
	 D(5,12,24,21)    =         1.621128	      92.883768
	 D(5,12,24,25)    =        -0.548396	     -31.420791
	 D(5,12,24,26)    =        -2.562476	    -146.819072
	 D(6,5,12,13)     =        -1.030719	     -59.055834
	 D(6,5,12,14)     =         0.981743	      56.249749
	 D(6,5,12,24)     =         3.102781	     177.776270
	 D(7,5,12,13)     =        -3.113924	    -178.414678
	 D(7,5,12,14)     =        -1.101462	     -63.109096
	 D(7,5,12,24)     =         1.019576	      58.417426
	 D(8,5,12,13)     =         1.075525	      61.623062
	 D(8,5,12,14)     =         3.087987	     176.928645
	 D(8,5,12,24)     =        -1.074160	     -61.544833
	 D(9,15,18,19)    =         3.042450	     174.319536
	 D(9,15,18,20)    =         1.040529	      59.617947
	 D(9,15,18,21)    =        -1.079926	     -61.875220
	 D(10,9,15,16)    =         1.563377	      89.574903
	 D(10,9,15,17)    =        -0.450702	     -25.823344
	 D(10,9,15,18)    =        -2.550284	    -146.120504
	 D(11,9,15,16)    =        -2.704393	    -154.950332
	 D(11,9,15,17)    =         1.564712	      89.651422
	 D(11,9,15,18)    =        -0.534869	     -30.645739
	 D(12,24,21,18)   =        -1.079936	     -61.875753
	 D(12,24,21,22)   =         3.042443	     174.319143
	 D(12,24,21,23)   =         1.040525	      59.617697
	 D(13,12,24,21)   =        -0.534885	     -30.646674
	 D(13,12,24,25)   =        -2.704409	    -154.951233
	 D(13,12,24,26)   =         1.564696	      89.650486
	 D(14,12,24,21)   =        -2.550300	    -146.121427
	 D(14,12,24,25)   =         1.563361	      89.574013
	 D(14,12,24,26)   =        -0.450718	     -25.824267
	 D(15,18,21,22)   =         1.080306	      61.896947
	 D(15,18,21,23)   =         3.085030	     176.759186
	 D(15,18,21,24)   =        -1.081207	     -61.948605
	 D(16,15,18,19)   =        -1.082549	     -62.025508
	 D(16,15,18,20)   =        -3.084470	    -176.727097
	 D(16,15,18,21)   =         1.078260	      61.779736
	 D(17,15,18,19)   =         0.926787	      53.101002
	 D(17,15,18,20)   =        -1.075133	     -61.600587
	 D(17,15,18,21)   =         3.087596	     176.906246
	 D(18,21,24,25)   =         1.078249	      61.779129
	 D(18,21,24,26)   =         3.087587	     176.905710
	 D(19,18,21,22)   =        -3.041365	    -174.257374
	 D(19,18,21,23)   =        -1.036641	     -59.395135
	 D(19,18,21,24)   =         1.080308	      61.897075
	 D(20,18,21,22)   =        -1.036639	     -59.395052
	 D(20,18,21,23)   =         0.968085	      55.467187
	 D(20,18,21,24)   =         3.085033	     176.759396
	 D(22,21,24,25)   =        -1.082557	     -62.025975
	 D(22,21,24,26)   =         0.926780	      53.100606
	 D(23,21,24,25)   =        -3.084475	    -176.727421
	 D(23,21,24,26)   =        -1.075137	     -61.600840
	 R(1,21)          =         6.446488	       3.411334
	 R(1,24)          =         6.900970	       3.651836
	 R(5,15)          =         6.900981	       3.651842
	 R(5,18)          =         6.446475	       3.411328

	Current energy   :      -314.9775903338

	Generating empirical Hessian (Schlegel '84) for each fragment.
	Taking RFO optimization step.
	Going to follow RFO solution 1.
	Using RFO vector 1.
	Norm of target step-size    0.00008
	Projected energy change by RFO approximation:        -0.0000000005

	Back-transformation to cartesian coordinates...
	Successfully converged to displaced geometry.

	--- Internal Coordinate Step in ANG or DEG, aJ/ANG or AJ/DEG ---
	 ---------------------------------------------------------------------------
	   Coordinate                Previous        Force       Change         New 
	   ----------                --------       ------       ------       ------
	    1 R(1,2)          =      1.091140     0.000003     0.000001     1.091141
	    2 R(1,3)          =      1.088334     0.000004     0.000001     1.088335
	    3 R(1,4)          =      1.090337     0.000002     0.000000     1.090338
	    4 R(1,9)          =      1.526739    -0.000002    -0.000000     1.526739
	    5 R(5,6)          =      1.090337    -0.000000    -0.000000     1.090337
	    6 R(5,7)          =      1.091140    -0.000001    -0.000000     1.091140
	    7 R(5,8)          =      1.088334    -0.000001    -0.000000     1.088334
	    8 R(5,12)         =      1.526739    -0.000002    -0.000000     1.526738
	    9 R(9,10)         =      1.091899     0.000004     0.000001     1.091900
	   10 R(9,11)         =      1.094056     0.000005     0.000001     1.094057
	   11 R(9,15)         =      1.535317     0.000002     0.000001     1.535318
	   12 R(12,13)        =      1.094056     0.000001     0.000000     1.094056
	   13 R(12,14)        =      1.091899    -0.000001    -0.000000     1.091899
	   14 R(12,24)        =      1.535317    -0.000001    -0.000000     1.535317
	   15 R(15,16)        =      1.093497     0.000008     0.000001     1.093498
	   16 R(15,17)        =      1.092591     0.000004     0.000001     1.092591
	   17 R(15,18)        =      1.529720     0.000001     0.000001     1.529721
	   18 R(18,19)        =      1.093071     0.000006     0.000001     1.093072
	   19 R(18,20)        =      1.094306     0.000003     0.000001     1.094306
	   20 R(18,21)        =      1.527233     0.000002     0.000001     1.527234
	   21 R(21,22)        =      1.093071     0.000005     0.000001     1.093072
	   22 R(21,23)        =      1.094306     0.000002     0.000000     1.094306
	   23 R(21,24)        =      1.529720    -0.000005    -0.000001     1.529719
	   24 R(24,25)        =      1.093497     0.000000     0.000000     1.093498
	   25 R(24,26)        =      1.092591     0.000001     0.000000     1.092591
	   26 B(1,9,10)       =    108.020989    -0.000000    -0.000124   108.020864
	   27 B(1,9,11)       =    109.857129    -0.000000     0.000055   109.857184
	   28 B(1,9,15)       =    114.364747     0.000000     0.000138   114.364885
	   29 B(2,1,3)        =    107.628474    -0.000000    -0.000020   107.628454
	   30 B(2,1,4)        =    107.738062    -0.000000    -0.000018   107.738044
	   31 B(2,1,9)        =    110.302626     0.000000     0.000042   110.302667
	   32 B(3,1,4)        =    107.795031    -0.000000    -0.000006   107.795025
	   33 B(3,1,9)        =    112.169240     0.000000     0.000062   112.169302
	   34 B(4,1,9)        =    111.031092    -0.000000    -0.000062   111.031030
	   35 B(5,12,13)      =    109.857158     0.000000     0.000005   109.857163
	   36 B(5,12,14)      =    108.021012     0.000000     0.000042   108.021054
	   37 B(5,12,24)      =    114.364730    -0.000000    -0.000050   114.364681
	   38 B(6,5,7)        =    107.738069     0.000000    -0.000003   107.738066
	   39 B(6,5,8)        =    107.795008    -0.000000    -0.000002   107.795005
	   40 B(6,5,12)       =    111.031092    -0.000000    -0.000003   111.031089
	   41 B(7,5,8)        =    107.628490    -0.000000    -0.000015   107.628475
	   42 B(7,5,12)       =    110.302647    -0.000000    -0.000035   110.302612
	   43 B(8,5,12)       =    112.169220     0.000000     0.000057   112.169276
	   44 B(9,15,16)      =    109.175129     0.000000     0.000058   109.175186
	   45 B(9,15,17)      =    109.051544     0.000000    -0.000068   109.051476
	   46 B(9,15,18)      =    114.471113     0.000000     0.000193   114.471306
	   47 B(10,9,11)      =    106.094609     0.000000    -0.000010   106.094599
	   48 B(10,9,15)      =    108.985567    -0.000000    -0.000089   108.985478
	   49 B(11,9,15)      =    109.184171    -0.000000     0.000017   109.184187
	   50 B(12,24,21)     =    114.471085     0.000000     0.000038   114.471123
	   51 B(12,24,25)     =    109.175075    -0.000000    -0.000052   109.175024
	   52 B(12,24,26)     =    109.051557     0.000000    -0.000013   109.051543
	   53 B(13,12,14)     =    106.094619    -0.000000    -0.000005   106.094614
	   54 B(13,12,24)     =    109.184166     0.000000    -0.000018   109.184148
	   55 B(14,12,24)     =    108.985528     0.000000     0.000029   108.985558
	   56 B(15,18,19)     =    109.330909    -0.000000    -0.000015   109.330894
	   57 B(15,18,20)     =    107.948957    -0.000000    -0.000099   107.948858
	   58 B(15,18,21)     =    115.674950    -0.000000     0.000184   115.675134
	   59 B(16,15,17)     =    106.004155    -0.000000    -0.000068   106.004087
	   60 B(16,15,18)     =    110.392360    -0.000000    -0.000043   110.392317
	   61 B(17,15,18)     =    107.385694     0.000000    -0.000096   107.385598
	   62 B(18,21,22)     =    109.253358    -0.000000    -0.000001   109.253358
	   63 B(18,21,23)     =    108.323849    -0.000000    -0.000074   108.323775
	   64 B(18,21,24)     =    115.675155     0.000000     0.000086   115.675241
	   65 B(19,18,20)     =    105.850581     0.000000    -0.000015   105.850566
	   66 B(19,18,21)     =    109.253503     0.000000    -0.000029   109.253474
	   67 B(20,18,21)     =    108.323728    -0.000000    -0.000043   108.323685
	   68 B(21,24,25)     =    110.392382     0.000000     0.000098   110.392480
	   69 B(21,24,26)     =    107.385701    -0.000000    -0.000045   107.385656
	   70 B(22,21,23)     =    105.850520     0.000000     0.000006   105.850525
	   71 B(22,21,24)     =    109.330787    -0.000000    -0.000021   109.330766
	   72 B(23,21,24)     =    107.948940     0.000000    -0.000003   107.948937
	   73 B(25,24,26)     =    106.004202    -0.000000    -0.000032   106.004170
	   74 D(1,9,15,16)    =    -31.419912    -0.000000    -0.001058   -31.420970
	   75 D(1,9,15,17)    =   -146.818159    -0.000000    -0.000972  -146.819131
	   76 D(1,9,15,18)    =     92.884681    -0.000000    -0.000928    92.883753
	   77 D(2,1,9,10)     =    -63.108945     0.000000    -0.000320   -63.109264
	   78 D(2,1,9,11)     =   -178.414488     0.000000    -0.000268  -178.414756
	   79 D(2,1,9,15)     =     58.417621     0.000000    -0.000434    58.417188
	   80 D(3,1,9,10)     =    176.928818    -0.000000    -0.000364   176.928454
	   81 D(3,1,9,11)     =     61.623275    -0.000000    -0.000312    61.622963
	   82 D(3,1,9,15)     =    -61.544616    -0.000000    -0.000478   -61.545094
	   83 D(4,1,9,10)     =     56.249877    -0.000000    -0.000355    56.249523
	   84 D(4,1,9,11)     =    -59.055666    -0.000000    -0.000303   -59.055969
	   85 D(4,1,9,15)     =    177.776443    -0.000000    -0.000468   177.775975
	   86 D(5,12,24,21)   =     92.883768     0.000000     0.000381    92.884149
	   87 D(5,12,24,25)   =    -31.420791    -0.000000     0.000265   -31.420526
	   88 D(5,12,24,26)   =   -146.819072     0.000000     0.000338  -146.818733
	   89 D(6,5,12,13)    =    -59.055834    -0.000000     0.000141   -59.055693
	   90 D(6,5,12,14)    =     56.249749    -0.000000     0.000161    56.249910
	   91 D(6,5,12,24)    =    177.776270     0.000000     0.000197   177.776467
	   92 D(7,5,12,13)    =   -178.414678    -0.000000     0.000169  -178.414509
	   93 D(7,5,12,14)    =    -63.109096     0.000000     0.000189   -63.108906
	   94 D(7,5,12,24)    =     58.417426     0.000000     0.000225    58.417651
	   95 D(8,5,12,13)    =     61.623062    -0.000000     0.000175    61.623237
	   96 D(8,5,12,14)    =    176.928645     0.000000     0.000195   176.928840
	   97 D(8,5,12,24)    =    -61.544833     0.000000     0.000231   -61.544602
	   98 D(9,15,18,19)   =    174.319536     0.000000     0.000449   174.319985
	   99 D(9,15,18,20)   =     59.617947     0.000000     0.000527    59.618474
	  100 D(9,15,18,21)   =    -61.875220     0.000000     0.000535   -61.874685
	  101 D(10,9,15,16)   =     89.574903    -0.000000    -0.001191    89.573712
	  102 D(10,9,15,17)   =    -25.823344    -0.000000    -0.001104   -25.824448
	  103 D(10,9,15,18)   =   -146.120504    -0.000000    -0.001061  -146.121565
	  104 D(11,9,15,16)   =   -154.950332    -0.000000    -0.001243  -154.951574
	  105 D(11,9,15,17)   =     89.651422    -0.000000    -0.001156    89.650265
	  106 D(11,9,15,18)   =    -30.645739    -0.000000    -0.001112   -30.646851
	  107 D(12,24,21,18)  =    -61.875753     0.000000     0.000442   -61.875310
	  108 D(12,24,21,22)  =    174.319143     0.000000     0.000396   174.319539
	  109 D(12,24,21,23)  =     59.617697     0.000000     0.000402    59.618099
	  110 D(13,12,24,21)  =    -30.646674     0.000000     0.000424   -30.646250
	  111 D(13,12,24,25)  =   -154.951233    -0.000000     0.000308  -154.950925
	  112 D(13,12,24,26)  =     89.650486     0.000000     0.000382    89.650868
	  113 D(14,12,24,21)  =   -146.121427     0.000000     0.000423  -146.121004
	  114 D(14,12,24,25)  =     89.574013    -0.000000     0.000307    89.574320
	  115 D(14,12,24,26)  =    -25.824267     0.000000     0.000381   -25.823887
	  116 D(15,18,21,22)  =     61.896947     0.000000    -0.000081    61.896866
	  117 D(15,18,21,23)  =    176.759186    -0.000000    -0.000114   176.759072
	  118 D(15,18,21,24)  =    -61.948605     0.000000    -0.000116   -61.948721
	  119 D(16,15,18,19)  =    -62.025508     0.000000     0.000636   -62.024872
	  120 D(16,15,18,20)  =   -176.727097     0.000000     0.000715  -176.726383
	  121 D(16,15,18,21)  =     61.779736     0.000000     0.000722    61.780458
	  122 D(17,15,18,19)  =     53.101002    -0.000000     0.000480    53.101482
	  123 D(17,15,18,20)  =    -61.600587    -0.000000     0.000558   -61.600029
	  124 D(17,15,18,21)  =    176.906246     0.000000     0.000566   176.906812
	  125 D(18,21,24,25)  =     61.779129     0.000000     0.000480    61.779609
	  126 D(18,21,24,26)  =    176.905710     0.000000     0.000468   176.906178
	  127 D(19,18,21,22)  =   -174.257374     0.000000     0.000012  -174.257361
	  128 D(19,18,21,23)  =    -59.395135    -0.000000    -0.000021   -59.395156
	  129 D(19,18,21,24)  =     61.897075     0.000000    -0.000023    61.897051
	  130 D(20,18,21,22)  =    -59.395052     0.000000    -0.000044   -59.395096
	  131 D(20,18,21,23)  =     55.467187     0.000000    -0.000077    55.467109
	  132 D(20,18,21,24)  =    176.759396     0.000000    -0.000080   176.759317
	  133 D(22,21,24,25)  =    -62.025975    -0.000000     0.000434   -62.025542
	  134 D(22,21,24,26)  =     53.100606    -0.000000     0.000421    53.101027
	  135 D(23,21,24,25)  =   -176.727421    -0.000000     0.000439  -176.726982
	  136 D(23,21,24,26)  =    -61.600840    -0.000000     0.000427   -61.600413
	  137 R(1,21)         =      3.411334     0.000001    -0.000006     3.411328
	  138 R(1,24)         =      3.651836    -0.000000    -0.000008     3.651828
	  139 R(5,15)         =      3.651842     0.000000    -0.000000     3.651841
	  140 R(5,18)         =      3.411328     0.000001     0.000004     3.411332
	 ---------------------------------------------------------------------------

  ==> Convergence Check <==

  Measures of convergence in internal coordinates in au.
  Criteria marked as inactive (o), active & met (*), and active & unmet ( ).
  --------------------------------------------------------------------------------------------- ~
   Step     Total Energy     Delta E     MAX Force     RMS Force      MAX Disp      RMS Disp    ~
  --------------------------------------------------------------------------------------------- ~
    Convergence Criteria             o    2.00e-06 *    1.00e-06 *    6.00e-06 *    4.00e-06 *  ~
  --------------------------------------------------------------------------------------------- ~
      1    -314.97759033   -3.15e+02 o    9.57e-07 *    1.77e-07 *    2.17e-05      6.61e-06    ~
  ---------------------------------------------------------------------------------------------

	Writing optimization data to binary file.
	Structure for next step:
	Cartesian Geometry (in Angstrom)
	    C    -2.3780244696   0.8942064517  -0.9976468730
	    H    -2.0776411930   0.6162703822  -2.0091357874
	    H    -1.6608511767   1.6256789595  -0.6301108716
	    H    -3.3499993093   1.3839936959  -1.0625316152
	    C     2.3780844244  -0.8943003252  -0.9974280921
	    H     3.3500619803  -1.3840952558  -1.0622035239
	    H     2.0777645205  -0.6164644011  -2.0089623831
	    H     1.6608881463  -1.6257345669  -0.6298639811
	    C    -2.4465954799  -0.3435280975  -0.1064439690
	    H    -3.2205955620  -1.0033467284  -0.5036952078
	    H    -2.7754460383  -0.0605418853   0.8979152349
	    C     2.4466003864   0.3435229713  -0.1063447690
	    H     2.7753921360   0.0606374715   0.8980609741
	    H     3.2206198763   1.0033064020  -0.5036144761
	    C    -1.1286269394  -1.1243996903  -0.0044658792
	    H    -0.5778543371  -1.0236422439  -0.9437402777
	    H    -1.3519223880  -2.1887050518   0.1011231956
	    C    -0.2443511525  -0.7234209037   1.1776158380
	    H     0.6167883608  -1.3946638737   1.2293648381
	    H    -0.8124632758  -0.8946506004   2.0970912549
	    C     0.2442886300   0.7235323377   1.1775552263
	    H    -0.6168551837   1.3947789939   1.2291917623
	    H     0.8123525007   0.8948570624   2.0970426245
	    C     1.1286212822   1.1243949167  -0.0045213621
	    H     0.5779027728   1.0235309447  -0.9438149085
	    H     1.3519016370   2.1887131643   0.1009665407
			--------------------------
			 OPTKING Finished Execution 
			--------------------------

    Structure for next step:
    Molecular point group: c1
    Full point group: C1

    Geometry (in Angstrom), charge = 0, multiplicity = 1:

    C           -2.378024504508     0.894206330874    -0.997647202894
    H           -2.077641227903     0.616270261364    -2.009136117364
    H           -1.660851211628     1.625678838647    -0.630111201560
    H           -3.349999344237     1.383993575027    -1.062531945082
    C            2.378084389480    -0.894300446048    -0.997428421977
    H            3.350061945403    -1.384095376655    -1.062203853822
    H            2.077764485574    -0.616464521956    -2.008962712993
    H            1.660888111406    -1.625734687712    -0.629864311038
    C           -2.446595514819    -0.343528218286    -0.106444298955
    H           -3.220595596876    -1.003346849253    -0.503695537707
    H           -2.775446073195    -0.060542006144     0.897914904989
    C            2.446600351447     0.343522850514    -0.106345098881
    H            2.775392101124     0.060637350699     0.898060644226
    H            3.220619841412     1.003306281190    -0.503614805982
    C           -1.128626974355    -1.124399811107    -0.004466209075
    H           -0.577854372035    -1.023642364731    -0.943740607575
    H           -1.351922422932    -2.188705172632     0.101122865683
    C           -0.244351187383    -0.723421024580     1.177615508070
    H            0.616788325926    -1.394663994485     1.229364508206
    H           -0.812463310756    -0.894650721240     2.097090924993
    C            0.244288595051     0.723532216894     1.177554896395
    H           -0.616855218591     1.394778873088     1.229191432377
    H            0.812352465818     0.894856941539     2.097042294553
    C            1.128621247280     1.124394795866    -0.004521692059
    H            0.577902737857     1.023530823913    -0.943815238391
    H            1.351901602106     2.188713043511     0.100966210729

gradient() will perform analytic gradient computation.

*** tstart() called on wr32
*** at Wed Sep 21 05:03:51 2016


         ---------------------------------------------------------
                                   SCF
            by Justin Turney, Rob Parrish, and Andy Simmonett
                              RHF Reference
                       12 Threads,  60000 MiB Core
         ---------------------------------------------------------

  ==> Geometry <==

    Molecular point group: c1
    Full point group: C1

    Geometry (in Angstrom), charge = 0, multiplicity = 1:

       Center              X                  Y                   Z               Mass       
    ------------   -----------------  -----------------  -----------------  -----------------
           C         -2.378024504508     0.894206330874    -0.997647202894    12.000000000000
           H         -2.077641227903     0.616270261364    -2.009136117364     1.007825032070
           H         -1.660851211628     1.625678838647    -0.630111201560     1.007825032070
           H         -3.349999344237     1.383993575027    -1.062531945082     1.007825032070
           C          2.378084389480    -0.894300446048    -0.997428421977    12.000000000000
           H          3.350061945403    -1.384095376655    -1.062203853822     1.007825032070
           H          2.077764485574    -0.616464521956    -2.008962712993     1.007825032070
           H          1.660888111406    -1.625734687712    -0.629864311038     1.007825032070
           C         -2.446595514819    -0.343528218286    -0.106444298955    12.000000000000
           H         -3.220595596876    -1.003346849253    -0.503695537707     1.007825032070
           H         -2.775446073195    -0.060542006144     0.897914904989     1.007825032070
           C          2.446600351447     0.343522850514    -0.106345098881    12.000000000000
           H          2.775392101124     0.060637350699     0.898060644226     1.007825032070
           H          3.220619841412     1.003306281190    -0.503614805982     1.007825032070
           C         -1.128626974355    -1.124399811107    -0.004466209075    12.000000000000
           H         -0.577854372035    -1.023642364731    -0.943740607575     1.007825032070
           H         -1.351922422932    -2.188705172632     0.101122865683     1.007825032070
           C         -0.244351187383    -0.723421024580     1.177615508070    12.000000000000
           H          0.616788325926    -1.394663994485     1.229364508206     1.007825032070
           H         -0.812463310756    -0.894650721240     2.097090924993     1.007825032070
           C          0.244288595051     0.723532216894     1.177554896395    12.000000000000
           H         -0.616855218591     1.394778873088     1.229191432377     1.007825032070
           H          0.812352465818     0.894856941539     2.097042294553     1.007825032070
           C          1.128621247280     1.124394795866    -0.004521692059    12.000000000000
           H          0.577902737857     1.023530823913    -0.943815238391     1.007825032070
           H          1.351901602106     2.188713043511     0.100966210729     1.007825032070

  Running in c1 symmetry.

  Rotational constants: A =      0.09432  B =      0.03544  C =      0.03473 [cm^-1]
  Rotational constants: A =   2827.60294  B =   1062.46613  C =   1041.20358 [MHz]
  Nuclear repulsion =  410.444955044378446

  Charge       = 0
  Multiplicity = 1
  Electrons    = 66
  Nalpha       = 33
  Nbeta        = 33

  ==> Algorithm <==

  SCF Algorithm Type is DF.
  DIIS enabled.
  MOM disabled.
  Fractional occupation disabled.
  Guess Type is READ.
  Energy threshold   = 1.00e-10
  Density threshold  = 1.00e-10
  Integral threshold = 0.00e+00

  ==> Primary Basis <==

  Basis Set: AUG-CC-PVTZ
    Number of shells: 274
    Number of basis function: 782
    Number of Cartesian functions: 890
    Spherical Harmonics?: true
    Max angular momentum: 3

  ==> Pre-Iterations <==

   -------------------------------------------------------
    Irrep   Nso     Nmo     Nalpha   Nbeta   Ndocc  Nsocc
   -------------------------------------------------------
     A        782     782       0       0       0       0
   -------------------------------------------------------
    Total     782     782      33      33      33       0
   -------------------------------------------------------

  ==> Integral Setup <==

  ==> DFJK: Density-Fitted J/K Matrices <==

    J tasked:                  Yes
    K tasked:                  Yes
    wK tasked:                  No
    OpenMP threads:             12
    Integrals threads:          12
    Memory (MB):             42915
    Algorithm:                Core
    Integral Cache:           NONE
    Schwarz Cutoff:          1E-12
    Fitting Condition:       1E-12

   => Auxiliary Basis Set <=

  Basis Set: 
    Number of shells: 492
    Number of basis function: 1660
    Number of Cartesian functions: 2038
    Spherical Harmonics?: true
    Max angular momentum: 4

  Minimum eigenvalue in the overlap matrix is 1.2504962487E-06.
  Using Symmetric Orthogonalization.
  SCF Guess: Reading in previously saved MOs, projecting if necessary.

  Using orbitals from previous SCF, no projection.
  Recomputing DOCC and SOCC from number of alpha and beta electrons from previous calculation.
              A 
    DOCC [    33 ]

  ==> Iterations <==

                           Total Energy        Delta E     RMS |[F,P]|

   @DF-RHF iter   0:  -313.53121041620005   -3.13531e+02   3.84203e-08 
   @DF-RHF iter   1:  -313.53122364717507   -1.32310e-05   1.13715e-08 
   @DF-RHF iter   2:  -313.53122364723146   -5.63887e-11   5.67562e-09 DIIS
   @DF-RHF iter   3:  -313.53122364724271   -1.12550e-11   1.63737e-09 DIIS
   @DF-RHF iter   4:  -313.53122364724521   -2.50111e-12   2.19014e-10 DIIS
   @DF-RHF iter   5:  -313.53122364724521    0.00000e+00   7.22310e-11 DIIS

  ==> Post-Iterations <==

    Orbital Energies (a.u.)
    -----------------------

    Doubly Occupied:                                                      

       1A    -11.213130     2A    -11.213129     3A    -11.210821  
       4A    -11.210349     5A    -11.209854     6A    -11.209715  
       7A    -11.206332     8A    -11.206331     9A     -1.094412  
      10A     -1.054806    11A     -1.004339    12A     -0.954681  
      13A     -0.887629    14A     -0.827315    15A     -0.796517  
      16A     -0.744005    17A     -0.651239    18A     -0.632439  
      19A     -0.607862    20A     -0.585595    21A     -0.572708  
      22A     -0.569590    23A     -0.541016    24A     -0.539889  
      25A     -0.515879    26A     -0.502678    27A     -0.492269  
      28A     -0.474063    29A     -0.467975    30A     -0.454222  
      31A     -0.440068    32A     -0.436835    33A     -0.433765  

    Virtual:                                                              

      34A      0.029262    35A      0.033158    36A      0.034694  
      37A      0.035357    38A      0.046190    39A      0.048315  
      40A      0.051075    41A      0.052711    42A      0.054026  
      43A      0.069784    44A      0.070825    45A      0.072567  
      46A      0.074232    47A      0.078148    48A      0.079579  
      49A      0.085506    50A      0.099492    51A      0.103063  
      52A      0.113445    53A      0.120262    54A      0.123657  
      55A      0.124510    56A      0.132175    57A      0.132966  
      58A      0.133975    59A      0.136421    60A      0.137640  
      61A      0.141672    62A      0.147453    63A      0.149248  
      64A      0.152859    65A      0.153159    66A      0.162327  
      67A      0.167272    68A      0.172142    69A      0.174478  
      70A      0.175781    71A      0.177894    72A      0.183197  
      73A      0.187980    74A      0.189620    75A      0.193119  
      76A      0.196076    77A      0.200161    78A      0.211225  
      79A      0.219226    80A      0.230539    81A      0.236520  
      82A      0.247782    83A      0.258380    84A      0.266874  
      85A      0.267331    86A      0.280941    87A      0.283149  
      88A      0.290103    89A      0.290656    90A      0.296025  
      91A      0.306975    92A      0.307498    93A      0.312414  
      94A      0.317286    95A      0.319801    96A      0.326311  
      97A      0.332718    98A      0.334724    99A      0.334981  
     100A      0.337888   101A      0.345158   102A      0.350941  
     103A      0.353552   104A      0.355322   105A      0.358857  
     106A      0.360687   107A      0.365205   108A      0.367543  
     109A      0.374438   110A      0.376338   111A      0.376653  
     112A      0.380658   113A      0.383278   114A      0.389727  
     115A      0.390278   116A      0.397323   117A      0.399343  
     118A      0.402135   119A      0.404526   120A      0.406568  
     121A      0.421134   122A      0.424418   123A      0.430698  
     124A      0.435922   125A      0.436845   126A      0.439649  
     127A      0.448585   128A      0.453490   129A      0.459678  
     130A      0.461771   131A      0.464132   132A      0.465490  
     133A      0.472977   134A      0.473397   135A      0.475187  
     136A      0.487196   137A      0.487875   138A      0.488172  
     139A      0.490939   140A      0.497429   141A      0.503948  
     142A      0.506386   143A      0.510570   144A      0.510620  
     145A      0.514406   146A      0.516754   147A      0.518084  
     148A      0.530518   149A      0.537639   150A      0.542444  
     151A      0.543006   152A      0.543494   153A      0.549551  
     154A      0.560045   155A      0.561991   156A      0.564120  
     157A      0.567817   158A      0.581523   159A      0.583592  
     160A      0.584124   161A      0.593312   162A      0.597158  
     163A      0.597230   164A      0.605604   165A      0.608273  
     166A      0.608334   167A      0.614697   168A      0.623396  
     169A      0.624256   170A      0.628742   171A      0.631232  
     172A      0.644263   173A      0.648919   174A      0.650648  
     175A      0.654351   176A      0.656073   177A      0.667061  
     178A      0.670418   179A      0.670762   180A      0.678014  
     181A      0.680631   182A      0.681735   183A      0.691792  
     184A      0.694539   185A      0.696641   186A      0.703556  
     187A      0.704301   188A      0.716558   189A      0.717456  
     190A      0.720326   191A      0.733234   192A      0.742493  
     193A      0.746100   194A      0.749077   195A      0.755093  
     196A      0.758807   197A      0.769824   198A      0.777229  
     199A      0.781907   200A      0.785596   201A      0.796760  
     202A      0.805486   203A      0.805747   204A      0.822509  
     205A      0.823229   206A      0.837683   207A      0.848234  
     208A      0.860097   209A      0.861989   210A      0.862104  
     211A      0.864920   212A      0.873903   213A      0.875108  
     214A      0.889495   215A      0.893435   216A      0.901798  
     217A      0.905137   218A      0.905559   219A      0.915126  
     220A      0.922115   221A      0.924114   222A      0.925605  
     223A      0.938424   224A      0.942488   225A      0.945886  
     226A      0.946221   227A      0.955671   228A      0.960678  
     229A      0.965075   230A      0.973495   231A      0.974682  
     232A      0.979211   233A      0.984883   234A      0.990660  
     235A      0.995191   236A      1.005682   237A      1.013514  
     238A      1.020112   239A      1.023148   240A      1.025284  
     241A      1.029532   242A      1.034680   243A      1.039956  
     244A      1.045671   245A      1.047350   246A      1.055607  
     247A      1.066158   248A      1.066805   249A      1.067827  
     250A      1.075115   251A      1.080681   252A      1.081517  
     253A      1.100148   254A      1.106255   255A      1.113226  
     256A      1.114028   257A      1.117550   258A      1.127575  
     259A      1.127689   260A      1.132316   261A      1.142941  
     262A      1.148252   263A      1.150433   264A      1.155064  
     265A      1.160258   266A      1.167535   267A      1.176763  
     268A      1.184457   269A      1.188796   270A      1.195718  
     271A      1.199509   272A      1.202561   273A      1.203899  
     274A      1.213040   275A      1.220908   276A      1.220986  
     277A      1.231415   278A      1.233723   279A      1.236959  
     280A      1.250973   281A      1.252103   282A      1.253739  
     283A      1.262648   284A      1.268344   285A      1.271651  
[...]
	 Skipping Hessian update for step 10.
	Denominators (dg)(dq) or (dq)(dq) are very small.
	 Skipping Hessian update for step 9.
	Denominators (dg)(dq) or (dq)(dq) are very small.
	 Skipping Hessian update for step 8.
	Denominators (dg)(dq) or (dq)(dq) are very small.
	 Skipping Hessian update for step 7.
	Denominators (dg)(dq) or (dq)(dq) are very small.
	 Skipping Hessian update for step 6.
	Denominators (dg)(dq) or (dq)(dq) are very small.
	 Skipping Hessian update for step 5.
	Denominators (dg)(dq) or (dq)(dq) are very small.
	 Skipping Hessian update for step 4.
	Denominators (dg)(dq) or (dq)(dq) are very small.
	 Skipping Hessian update for step 3.
	Denominators (dg)(dq) or (dq)(dq) are very small.
	 Skipping Hessian update for step 2.
	Steps to be used in Hessian update: 1
	Taking RFO optimization step.
	Going to follow RFO solution 1.
	Rejecting RFO root 1 because normalization gives large value.
	Using RFO vector 2.
	Norm of target step-size    0.00002
	Projected energy change by RFO approximation:         0.0000000000

	Back-transformation to cartesian coordinates...
	Successfully converged to displaced geometry.

	--- Internal Coordinate Step in ANG or DEG, aJ/ANG or AJ/DEG ---
	 ---------------------------------------------------------------------------
	   Coordinate                Previous        Force       Change         New 
	   ----------                --------       ------       ------       ------
	    1 R(1,2)          =      1.091140     0.000001    -0.000000     1.091140
	    2 R(1,3)          =      1.088334     0.000001     0.000000     1.088334
	    3 R(1,4)          =      1.090338    -0.000000    -0.000000     1.090337
	    4 R(1,9)          =      1.526739    -0.000001     0.000000     1.526739
	    5 R(5,6)          =      1.090337     0.000001     0.000000     1.090337
	    6 R(5,7)          =      1.091140     0.000000     0.000000     1.091140
	    7 R(5,8)          =      1.088333     0.000001     0.000000     1.088333
	    8 R(5,12)         =      1.526739    -0.000002    -0.000000     1.526739
	    9 R(9,10)         =      1.091899     0.000000    -0.000000     1.091899
	   10 R(9,11)         =      1.094057     0.000000    -0.000000     1.094056
	   11 R(9,15)         =      1.535317     0.000004     0.000000     1.535317
	   12 R(12,13)        =      1.094055     0.000001     0.000000     1.094055
	   13 R(12,14)        =      1.091899    -0.000001    -0.000000     1.091898
	   14 R(12,24)        =      1.535317     0.000001     0.000000     1.535318
	   15 R(15,16)        =      1.093498     0.000004     0.000000     1.093498
	   16 R(15,17)        =      1.092591     0.000002    -0.000000     1.092591
	   17 R(15,18)        =      1.529720     0.000002     0.000000     1.529720
	   18 R(18,19)        =      1.093071     0.000002    -0.000000     1.093071
	   19 R(18,20)        =      1.094306     0.000001    -0.000000     1.094306
	   20 R(18,21)        =      1.527233     0.000000    -0.000000     1.527233
	   21 R(21,22)        =      1.093071     0.000003     0.000000     1.093071
	   22 R(21,23)        =      1.094305     0.000002     0.000000     1.094306
	   23 R(21,24)        =      1.529719    -0.000001     0.000000     1.529719
	   24 R(24,25)        =      1.093497     0.000000    -0.000000     1.093497
	   25 R(24,26)        =      1.092590     0.000001     0.000000     1.092590
	   26 B(1,9,10)       =    108.020917     0.000000     0.000035   108.020953
	   27 B(1,9,11)       =    109.857158     0.000000    -0.000005   109.857153
	   28 B(1,9,15)       =    114.364830    -0.000000    -0.000034   114.364796
	   29 B(2,1,3)        =    107.628454     0.000000     0.000009   107.628462
	   30 B(2,1,4)        =    107.738036    -0.000000     0.000007   107.738043
	   31 B(2,1,9)        =    110.302627     0.000000     0.000005   110.302631
	   32 B(3,1,4)        =    107.795035    -0.000000    -0.000009   107.795027
	   33 B(3,1,9)        =    112.169325    -0.000000    -0.000018   112.169307
	   34 B(4,1,9)        =    111.031045     0.000000     0.000007   111.031052
	   35 B(5,12,13)      =    109.857149    -0.000000    -0.000019   109.857129
	   36 B(5,12,14)      =    108.021102     0.000000     0.000034   108.021136
	   37 B(5,12,24)      =    114.364574    -0.000000    -0.000018   114.364556
	   38 B(6,5,7)        =    107.738086     0.000000     0.000007   107.738093
	   39 B(6,5,8)        =    107.795023    -0.000000     0.000001   107.795023
	   40 B(6,5,12)       =    111.031180     0.000000     0.000011   111.031191
	   41 B(7,5,8)        =    107.628508     0.000000    -0.000003   107.628505
	   42 B(7,5,12)       =    110.302589    -0.000000    -0.000001   110.302589
	   43 B(8,5,12)       =    112.169142    -0.000000    -0.000015   112.169127
	   44 B(9,15,16)      =    109.175085    -0.000000     0.000013   109.175098
	   45 B(9,15,17)      =    109.051547     0.000000    -0.000008   109.051539
	   46 B(9,15,18)      =    114.471178     0.000000    -0.000020   114.471157
	   47 B(10,9,11)      =    106.094608    -0.000000     0.000008   106.094615
	   48 B(10,9,15)      =    108.985517     0.000000     0.000011   108.985528
	   49 B(11,9,15)      =    109.184175     0.000000    -0.000011   109.184164
	   50 B(12,24,21)     =    114.470983     0.000000     0.000014   114.470997
	   51 B(12,24,25)     =    109.175072    -0.000000    -0.000017   109.175055
	   52 B(12,24,26)     =    109.051579     0.000000     0.000009   109.051588
	   53 B(13,12,14)     =    106.094647    -0.000000    -0.000011   106.094636
	   54 B(13,12,24)     =    109.184147     0.000000    -0.000004   109.184143
	   55 B(14,12,24)     =    108.985610     0.000000     0.000019   108.985629
	   56 B(15,18,19)     =    109.330873     0.000000    -0.000025   109.330848
	   57 B(15,18,20)     =    107.948838     0.000000     0.000038   107.948876
	   58 B(15,18,21)     =    115.675152    -0.000000    -0.000018   115.675134
	   59 B(16,15,17)     =    106.004158     0.000000     0.000005   106.004163
	   60 B(16,15,18)     =    110.392359    -0.000000     0.000028   110.392387
	   61 B(17,15,18)     =    107.385664    -0.000000    -0.000017   107.385647
	   62 B(18,21,22)     =    109.253424    -0.000000    -0.000012   109.253411
	   63 B(18,21,23)     =    108.323749     0.000000     0.000003   108.323751
	   64 B(18,21,24)     =    115.674994     0.000000     0.000039   115.675034
	   65 B(19,18,20)     =    105.850564    -0.000000    -0.000008   105.850556
	   66 B(19,18,21)     =    109.253452    -0.000000    -0.000014   109.253437
	   67 B(20,18,21)     =    108.323730     0.000000     0.000029   108.323759
	   68 B(21,24,25)     =    110.392405     0.000000     0.000010   110.392416
	   69 B(21,24,26)     =    107.385787    -0.000000    -0.000008   107.385779
	   70 B(22,21,23)     =    105.850525     0.000000    -0.000002   105.850523
	   71 B(22,21,24)     =    109.330862    -0.000000    -0.000008   109.330854
	   72 B(23,21,24)     =    107.949067    -0.000000    -0.000022   107.949044
	   73 B(25,24,26)     =    106.004182    -0.000000    -0.000009   106.004173
	   74 D(1,9,15,16)    =    -31.420493    -0.000000     0.000075   -31.420418
	   75 D(1,9,15,17)    =   -146.818721    -0.000000     0.000066  -146.818654
	   76 D(1,9,15,18)    =     92.884112    -0.000000     0.000107    92.884219
	   77 D(2,1,9,10)     =    -63.108777    -0.000000    -0.000029   -63.108806
	   78 D(2,1,9,11)     =   -178.414294    -0.000000    -0.000055  -178.414349
	   79 D(2,1,9,15)     =     58.417727    -0.000000    -0.000012    58.417715
	   80 D(3,1,9,10)     =    176.928955    -0.000000    -0.000032   176.928924
	   81 D(3,1,9,11)     =     61.623438    -0.000000    -0.000058    61.623380
	   82 D(3,1,9,15)     =    -61.544541    -0.000000    -0.000014   -61.544556
	   83 D(4,1,9,10)     =     56.249984     0.000000    -0.000013    56.249971
	   84 D(4,1,9,11)     =    -59.055533    -0.000000    -0.000039   -59.055572
	   85 D(4,1,9,15)     =    177.776487     0.000000     0.000004   177.776492
	   86 D(5,12,24,21)   =     92.884983    -0.000000    -0.000322    92.884661
	   87 D(5,12,24,25)   =    -31.419531    -0.000000    -0.000332   -31.419863
	   88 D(5,12,24,26)   =   -146.817798    -0.000000    -0.000317  -146.818115
	   89 D(6,5,12,13)    =    -59.055378    -0.000000    -0.000096   -59.055474
	   90 D(6,5,12,14)    =     56.250283    -0.000000    -0.000100    56.250183
	   91 D(6,5,12,24)    =    177.776873     0.000000    -0.000063   177.776810
	   92 D(7,5,12,13)    =   -178.414263    -0.000000    -0.000112  -178.414375
	   93 D(7,5,12,14)    =    -63.108602    -0.000000    -0.000116   -63.108718
	   94 D(7,5,12,24)    =     58.417987    -0.000000    -0.000079    58.417909
	   95 D(8,5,12,13)    =     61.623546    -0.000000    -0.000097    61.623449
	   96 D(8,5,12,14)    =    176.929208    -0.000000    -0.000102   176.929106
	   97 D(8,5,12,24)    =    -61.544203     0.000000    -0.000065   -61.544268
	   98 D(9,15,18,19)   =    174.319815     0.000000     0.000011   174.319827
	   99 D(9,15,18,20)   =     59.618328     0.000000     0.000013    59.618341
	  100 D(9,15,18,21)   =    -61.874888    -0.000000    -0.000041   -61.874929
	  101 D(10,9,15,16)   =     89.574249    -0.000000     0.000105    89.574354
	  102 D(10,9,15,17)   =    -25.823979    -0.000000     0.000097   -25.823882
	  103 D(10,9,15,18)   =   -146.121147    -0.000000     0.000138  -146.121009
	  104 D(11,9,15,16)   =   -154.951012    -0.000000     0.000114  -154.950898
	  105 D(11,9,15,17)   =     89.650760    -0.000000     0.000106    89.650866
	  106 D(11,9,15,18)   =    -30.646408    -0.000000     0.000147   -30.646261
	  107 D(12,24,21,18)  =    -61.875787    -0.000000    -0.000227   -61.876014
	  108 D(12,24,21,22)  =    174.319080     0.000000    -0.000233   174.318847
	  109 D(12,24,21,23)  =     59.617521     0.000000    -0.000214    59.617306
	  110 D(13,12,24,21)  =    -30.645320     0.000000    -0.000281   -30.645601
	  111 D(13,12,24,25)  =   -154.949834    -0.000000    -0.000291  -154.950125
	  112 D(13,12,24,26)  =     89.651900     0.000000    -0.000276    89.651623
	  113 D(14,12,24,21)  =   -146.120142     0.000000    -0.000276  -146.120418
	  114 D(14,12,24,25)  =     89.575345    -0.000000    -0.000286    89.575059
	  115 D(14,12,24,26)  =    -25.822922    -0.000000    -0.000271   -25.823193
	  116 D(15,18,21,22)  =     61.896781     0.000000     0.000101    61.896881
	  117 D(15,18,21,23)  =    176.759006     0.000000     0.000093   176.759100
	  118 D(15,18,21,24)  =    -61.948805     0.000000     0.000093   -61.948712
	  119 D(16,15,18,19)  =    -62.025239     0.000000     0.000036   -62.025203
	  120 D(16,15,18,20)  =   -176.726726     0.000000     0.000038  -176.726689
	  121 D(16,15,18,21)  =     61.780057    -0.000000    -0.000016    61.780041
	  122 D(17,15,18,19)  =     53.101258     0.000000     0.000046    53.101304
	  123 D(17,15,18,20)  =    -61.600230    -0.000000     0.000048   -61.600182
	  124 D(17,15,18,21)  =    176.906554    -0.000000    -0.000006   176.906548
	  125 D(18,21,24,25)  =     61.779033    -0.000000    -0.000232    61.778801
	  126 D(18,21,24,26)  =    176.905651    -0.000000    -0.000242   176.905409
	  127 D(19,18,21,22)  =   -174.257479    -0.000000     0.000043  -174.257436
	  128 D(19,18,21,23)  =    -59.395254    -0.000000     0.000035   -59.395218
	  129 D(19,18,21,24)  =     61.896935    -0.000000     0.000035    61.896970
	  130 D(20,18,21,22)  =    -59.395204    -0.000000     0.000041   -59.395162
	  131 D(20,18,21,23)  =     55.467022    -0.000000     0.000034    55.467056
	  132 D(20,18,21,24)  =    176.759210    -0.000000     0.000033   176.759244
	  133 D(22,21,24,25)  =    -62.026100    -0.000000    -0.000237   -62.026338
	  134 D(22,21,24,26)  =     53.100517    -0.000000    -0.000248    53.100270
	  135 D(23,21,24,25)  =   -176.727659    -0.000000    -0.000219  -176.727878
	  136 D(23,21,24,26)  =    -61.601041    -0.000000    -0.000229   -61.601271
	  137 R(1,21)         =      3.411330    -0.000000     0.000001     3.411331
	  138 R(1,24)         =      3.651833    -0.000000    -0.000001     3.651832
	  139 R(5,15)         =      3.651852     0.000000     0.000000     3.651853
	  140 R(5,18)         =      3.411338    -0.000000    -0.000003     3.411335
	 ---------------------------------------------------------------------------

  ==> Convergence Check <==

  Measures of convergence in internal coordinates in au.
  Criteria marked as inactive (o), active & met (*), and active & unmet ( ).
  ---------------------------------------------------------------------------------------------
   Step     Total Energy     Delta E     MAX Force     RMS Force      MAX Disp      RMS Disp   
  ---------------------------------------------------------------------------------------------
    Convergence Criteria             o    2.00e-06 *    1.00e-06 *    6.00e-06 *    4.00e-06 *
  ---------------------------------------------------------------------------------------------
     20    -314.97759033    2.76e-09 o    4.47e-07 *    9.53e-08 *    5.79e-06 *    1.88e-06 *  ~
  ---------------------------------------------------------------------------------------------


  **** Optimization is complete! (in 20 steps) ****

  ==> Optimization Summary <==

  Measures of convergence in internal coordinates in au.
  --------------------------------------------------------------------------------------------------------------- ~
   Step         Total Energy             Delta E       MAX Force       RMS Force        MAX Disp        RMS Disp  ~
  --------------------------------------------------------------------------------------------------------------- ~
      1    -314.977590333786   -314.977590333786      0.00000096      0.00000018      0.00002169      0.00000661  ~
      2    -314.977590339951     -0.000000006165      0.00000125      0.00000028      0.00002790      0.00000840  ~
      3    -314.977590335208      0.000000004743      0.00000182      0.00000045      0.00035158      0.00009808  ~
      4    -314.977590334721      0.000000000487      0.00001139      0.00000226      0.00034528      0.00009897  ~
      5    -314.977590340143     -0.000000005422      0.00000144      0.00000031      0.00002320      0.00000818  ~
      6    -314.977590336217      0.000000003926      0.00000131      0.00000029      0.00003419      0.00000581  ~
      7    -314.977590338623     -0.000000002406      0.00000140      0.00000028      0.00001683      0.00000629  ~
      8    -314.977590334842      0.000000003781      0.00000183      0.00000039      0.00002272      0.00000790  ~
      9    -314.977590337492     -0.000000002650      0.00000182      0.00000037      0.00005443      0.00001669  ~
     10    -314.977590333321      0.000000004171      0.00000071      0.00000013      0.00000788      0.00000293  ~
     11    -314.977590334970     -0.000000001649      0.00000083      0.00000018      0.00001438      0.00000413  ~
     12    -314.977590334430      0.000000000540      0.00000125      0.00000025      0.00008305      0.00002499  ~
     13    -314.977590337542     -0.000000003112      0.00000408      0.00000075      0.00010141      0.00002932  ~
     14    -314.977590338140     -0.000000000598      0.00000118      0.00000027      0.00000867      0.00000285  ~
     15    -314.977590331478      0.000000006662      0.00000318      0.00000071      0.00004229      0.00001174  ~
     16    -314.977590335698     -0.000000004219      0.00000134      0.00000030      0.00003186      0.00000970  ~
     17    -314.977590338348     -0.000000002651      0.00000224      0.00000054      0.00001377      0.00000483  ~
     18    -314.977590334245      0.000000004103      0.00000102      0.00000023      0.00001634      0.00000494  ~
     19    -314.977590336924     -0.000000002679      0.00000063      0.00000012      0.00001468      0.00000433  ~
     20    -314.977590334168      0.000000002757      0.00000045      0.00000010      0.00000579      0.00000188  ~
  --------------------------------------------------------------------------------------------------------------- ~

	Writing optimization data to binary file.
	Final energy is   -314.9775903341677
	Final (previous) structure:
	Cartesian Geometry (in Angstrom)
	    C    -2.3780256702   0.8942526704  -0.9976185688
	    H    -2.0776791978   0.6162967300  -2.0091124093
	    H    -1.6608212651   1.6257079410  -0.6301112717
	    H    -3.3499879235   1.3840671089  -1.0624814073
	    C     2.3780596520  -0.8943645944  -0.9974545220
	    H     3.3500226743  -1.3841876723  -1.0622277701
	    H     2.0777469834  -0.6165255525  -2.0089896218
	    H     1.6608426994  -1.6257754237  -0.6298851323
	    C    -2.4466071621  -0.3434706448  -0.1064007200
	    H    -3.2206310424  -1.0032754658  -0.5036272947
	    H    -2.7754288120  -0.0604652791   0.8979618974
	    C     2.4466091899   0.3434619236  -0.1063773337
	    H     2.7753976500   0.0605733777   0.8980277515
	    H     3.2206420501   1.0032253374  -0.5036530645
	    C    -1.1286552240  -1.1243703212  -0.0044424342
	    H    -0.5778982304  -1.0236272607  -0.9437265502
	    H    -1.3519709707  -2.1886700550   0.1011553479
	    C    -0.2443518032  -0.7234027854   1.1776217498
	    H     0.6167724290  -1.3946652345   1.2293621853
	    H    -0.8124534247  -0.8946124543   2.0971071031
	    C     0.2443223304   0.7235384189   1.1775419265
	    H    -0.6168028952   1.3948061837   1.2291848082
	    H     0.8124031401   0.8948567447   2.0970192821
	    C     1.1286471518   1.1243636861  -0.0045527761
	    H     0.5779141567   1.0234926788  -0.9438361449
	    H     1.3519502616   2.1886788346   0.1009116386
	Saving final (previous) structure.
			--------------------------
			 OPTKING Finished Execution 
			--------------------------

    Final optimized geometry and variables:
    Molecular point group: c1
    Full point group: C1

    Geometry (in Angstrom), charge = 0, multiplicity = 1:

    C           -2.378025670157     0.894252670384    -0.997618568796
    H           -2.077679197831     0.616296730003    -2.009112409317
    H           -1.660821265134     1.625707940974    -0.630111271671
    H           -3.349987923533     1.384067108924    -1.062481407299
    C            2.378059651970    -0.894364594402    -0.997454521976
    H            3.350022674343    -1.384187672261    -1.062227770085
    H            2.077746983408    -0.616525552498    -2.008989621809
    H            1.660842699373    -1.625775423720    -0.629885132327
    C           -2.446607162149    -0.343470644833    -0.106400720001
    H           -3.220631042441    -1.003275465790    -0.503627294651
    H           -2.775428812027    -0.060465279137     0.897961897351
    C            2.446609189880     0.343461923613    -0.106377333667
    H            2.775397650020     0.060573377746     0.898027751517
    H            3.220642050132     1.003225337379    -0.503653064510
    C           -1.128655224023    -1.124370321184    -0.004442434162
    H           -0.577898230404    -1.023627260695    -0.943726550166
    H           -1.351970970678    -2.188670055016     0.101155347895
    C           -0.244351803218    -0.723402785351     1.177621749812
    H            0.616772429029    -1.394665234462     1.229362185305
    H           -0.812453424701    -0.894612454340     2.097107103108
    C            0.244322330391     0.723538418937     1.177541926525
    H           -0.616802895242     1.394806183658     1.229184808245
    H            0.812403140066     0.894856744741     2.097019282075
    C            1.128647151825     1.124363686119    -0.004552776103
    H            0.577914156700     1.023492678753    -0.943836144921
    H            1.351950261648     2.188678834648     0.100911638603

	Cleaning optimization helper files.

*** Psi4 exiting successfully. Buy a developer a beer!
