    -----------------------------------------------------------------------
          Psi4: An Open-Source Ab Initio Electronic Structure Package
                              Psi4 1.0.0 Driver

                          Git: Rev {master} 6a9a71b dirty

    J. M. Turney, A. C. Simmonett, R. M. Parrish, E. G. Hohenstein,
    F. A. Evangelista, J. T. Fermann, B. J. Mintz, L. A. Burns, J. J. Wilke,
    M. L. Abrams, N. J. Russ, M. L. Leininger, C. L. Janssen, E. T. Seidl,
    W. D. Allen, H. F. Schaefer, R. A. King, E. F. Valeev, C. D. Sherrill,
    and T. D. Crawford, WIREs Comput. Mol. Sci. 2, 556-565 (2012)
    (doi: 10.1002/wcms.93)

                         Additional Contributions by
    A. E. DePrince, U. Bozkaya, A. Yu. Sokolov, D. G. A. Smith, R. Di Remigio,
    R. M. Richard, J. F. Gonthier, H. R. McAlexander, M. Saitow, and
    B. P. Pritchard
    -----------------------------------------------------------------------


    Psi4 started on: Wed Sep 21 04:57:33 2016

    Process ID:   5000
    PSI4DATADIR: /usr/local/hpc5/psi4conda/share/psi4
    Memory level set to 256.000 MB

  ==> Input File <==

--------------------------------------------------------------------------
memory 60 Gb

molecule molecule_89_psi {
0 1
C           -3.125518508867     0.846168348225     0.352440645217
H           -3.812833746617     0.772023835186    -0.491369092710
H           -2.382179640205     1.602155955311     0.105952406726
H           -3.692470159625     1.199875201630     1.213902128242
C            3.125549942275    -0.845658995500     0.353390487145
H            2.382190211981    -1.602002896736     0.108059858766
H            3.692578897029    -1.198120994377     1.215311258022
H            3.812790071052    -0.772731290076    -0.490586650971
C           -2.484421521005    -0.510913147468     0.631024818917
H           -3.277617999606    -1.219208841496     0.877877249473
H           -1.847707832908    -0.447461268576     1.518531640912
C            2.484474708166     0.511821698180     0.630072141031
H            1.847835783499     0.449649141600     1.517723554303
H            3.277691306736     1.220473730381     0.875835625206
C           -1.659302732319    -1.060124272057    -0.541839388157
H           -2.064992808337    -0.671251906312    -1.481347300038
H           -1.770674756172    -2.145735261226    -0.586026083505
C           -0.165396531599    -0.744444612033    -0.464384594437
H            0.236440990932    -1.206203915666     0.442033682637
H            0.343329206724    -1.220049411254    -1.308859131239
C            0.165355712284     0.743776785141    -0.465478263282
H           -0.343440296394     1.218154686388    -1.310600708142
H           -0.236407592307     1.206850836906     0.440302375752
C            1.659256760612     1.059339658657    -0.543514586661
H            2.064866144875     0.669107786744    -1.482494261982
H            1.770628062564     2.144885836005    -0.589280794238
}

set globals {
  reference rhf
  g_convergence gau_verytight
  basis aug-cc-pvtz
  freeze_core true
  scf_type df
  mp_type df
}
optimize('mp2')
--------------------------------------------------------------------------
/usr/local/hpc5/psi4conda/lib/python2.7/site-packages/v2rdm_casscf/v2rdm_casscf.so loaded.

  Memory set to  60.000 GiB by Python script.
gradient() will perform analytic gradient computation.

*** tstart() called on wr33
*** at Wed Sep 21 04:57:34 2016


         ---------------------------------------------------------
                                   SCF
            by Justin Turney, Rob Parrish, and Andy Simmonett
                              RHF Reference
                       12 Threads,  60000 MiB Core
         ---------------------------------------------------------

  ==> Geometry <==

    Molecular point group: c1
    Full point group: C1

    Geometry (in Angstrom), charge = 0, multiplicity = 1:

       Center              X                  Y                   Z               Mass       
    ------------   -----------------  -----------------  -----------------  -----------------
           C         -3.125518508867     0.846168348225     0.352440645217    12.000000000000
           H         -3.812833746617     0.772023835186    -0.491369092710     1.007825032070
           H         -2.382179640205     1.602155955311     0.105952406726     1.007825032070
           H         -3.692470159625     1.199875201630     1.213902128242     1.007825032070
           C          3.125549942275    -0.845658995500     0.353390487145    12.000000000000
           H          2.382190211981    -1.602002896736     0.108059858766     1.007825032070
           H          3.692578897029    -1.198120994377     1.215311258022     1.007825032070
           H          3.812790071052    -0.772731290076    -0.490586650971     1.007825032070
           C         -2.484421521005    -0.510913147468     0.631024818917    12.000000000000
           H         -3.277617999606    -1.219208841496     0.877877249473     1.007825032070
           H         -1.847707832908    -0.447461268576     1.518531640912     1.007825032070
           C          2.484474708166     0.511821698180     0.630072141031    12.000000000000
           H          1.847835783499     0.449649141600     1.517723554303     1.007825032070
           H          3.277691306736     1.220473730381     0.875835625206     1.007825032070
           C         -1.659302732319    -1.060124272057    -0.541839388157    12.000000000000
           H         -2.064992808337    -0.671251906312    -1.481347300038     1.007825032070
           H         -1.770674756172    -2.145735261226    -0.586026083505     1.007825032070
           C         -0.165396531599    -0.744444612033    -0.464384594437    12.000000000000
           H          0.236440990932    -1.206203915666     0.442033682637     1.007825032070
           H          0.343329206724    -1.220049411254    -1.308859131239     1.007825032070
           C          0.165355712284     0.743776785141    -0.465478263282    12.000000000000
           H         -0.343440296394     1.218154686388    -1.310600708142     1.007825032070
           H         -0.236407592307     1.206850836906     0.440302375752     1.007825032070
           C          1.659256760612     1.059339658657    -0.543514586661    12.000000000000
           H          2.064866144875     0.669107786744    -1.482494261982     1.007825032070
           H          1.770628062564     2.144885836005    -0.589280794238     1.007825032070

  Running in c1 symmetry.

  Rotational constants: A =      0.12416  B =      0.02787  C =      0.02578 [cm^-1]
  Rotational constants: A =   3722.34349  B =    835.41937  C =    772.94673 [MHz]
  Nuclear repulsion =  398.531315240465233

  Charge       = 0
  Multiplicity = 1
  Electrons    = 66
  Nalpha       = 33
  Nbeta        = 33

  ==> Algorithm <==

  SCF Algorithm Type is DF.
  DIIS enabled.
  MOM disabled.
  Fractional occupation disabled.
  Guess Type is SAD.
  Energy threshold   = 1.00e-10
  Density threshold  = 1.00e-10
  Integral threshold = 0.00e+00

  ==> Primary Basis <==

  Basis Set: AUG-CC-PVTZ
    Number of shells: 274
    Number of basis function: 782
    Number of Cartesian functions: 890
    Spherical Harmonics?: true
    Max angular momentum: 3

  ==> Pre-Iterations <==

   -------------------------------------------------------
    Irrep   Nso     Nmo     Nalpha   Nbeta   Ndocc  Nsocc
   -------------------------------------------------------
     A        782     782       0       0       0       0
   -------------------------------------------------------
    Total     782     782      33      33      33       0
   -------------------------------------------------------

  ==> Integral Setup <==

  ==> DFJK: Density-Fitted J/K Matrices <==

    J tasked:                  Yes
    K tasked:                  Yes
    wK tasked:                  No
    OpenMP threads:             12
    Integrals threads:          12
    Memory (MB):             42915
    Algorithm:                Core
    Integral Cache:           NONE
    Schwarz Cutoff:          1E-12
    Fitting Condition:       1E-12

   => Auxiliary Basis Set <=

  Basis Set: 
    Number of shells: 492
    Number of basis function: 1660
    Number of Cartesian functions: 2038
    Spherical Harmonics?: true
    Max angular momentum: 4

  Minimum eigenvalue in the overlap matrix is 1.6185036821E-06.
  Using Symmetric Orthogonalization.
  SCF Guess: Superposition of Atomic Densities via on-the-fly atomic UHF.

  ==> Iterations <==

                           Total Energy        Delta E     RMS |[F,P]|

   @DF-RHF iter   0:  -317.02012185565479   -3.17020e+02   7.02594e-03 
   @DF-RHF iter   1:  -313.30383850992882    3.71628e+00   6.92399e-04 
   @DF-RHF iter   2:  -313.50355912766702   -1.99721e-01   2.53696e-04 DIIS
   @DF-RHF iter   3:  -313.52884068503124   -2.52816e-02   1.01309e-04 DIIS
   @DF-RHF iter   4:  -313.53374409974697   -4.90341e-03   1.54517e-05 DIIS
   @DF-RHF iter   5:  -313.53390453708585   -1.60437e-04   4.36897e-06 DIIS
   @DF-RHF iter   6:  -313.53391538199230   -1.08449e-05   1.22968e-06 DIIS
   @DF-RHF iter   7:  -313.53391624342123   -8.61429e-07   2.44092e-07 DIIS
   @DF-RHF iter   8:  -313.53391628600230   -4.25811e-08   6.45072e-08 DIIS
   @DF-RHF iter   9:  -313.53391628863051   -2.62821e-09   2.04432e-08 DIIS
   @DF-RHF iter  10:  -313.53391628889460   -2.64095e-10   6.00236e-09 DIIS
   @DF-RHF iter  11:  -313.53391628891836   -2.37605e-11   1.39535e-09 DIIS
   @DF-RHF iter  12:  -313.53391628892109   -2.72848e-12   4.09770e-10 DIIS
   @DF-RHF iter  13:  -313.53391628891961    1.47793e-12   1.23809e-10 DIIS
   @DF-RHF iter  14:  -313.53391628891995   -3.41061e-13   2.71710e-11 DIIS

  ==> Post-Iterations <==

    Orbital Energies (a.u.)
    -----------------------

    Doubly Occupied:                                                      

       1A    -11.213015     2A    -11.213015     3A    -11.211084  
       4A    -11.210833     5A    -11.210457     6A    -11.210081  
       7A    -11.205809     8A    -11.205809     9A     -1.093770  
      10A     -1.057708    11A     -1.004350    12A     -0.953122  
      13A     -0.884894    14A     -0.827119    15A     -0.785750  
      16A     -0.762649    17A     -0.637241    18A     -0.632163  
      19A     -0.611919    20A     -0.586523    21A     -0.586414  
      22A     -0.560008    23A     -0.542027    24A     -0.538358  
      25A     -0.506821    26A     -0.500867    27A     -0.493561  
      28A     -0.471543    29A     -0.467470    30A     -0.465490  
      31A     -0.445533    32A     -0.436389    33A     -0.428706  

    Virtual:                                                              

      34A      0.029297    35A      0.032395    36A      0.034331  
      37A      0.035645    38A      0.046873    39A      0.048164  
      40A      0.048795    41A      0.054028    42A      0.054057  
      43A      0.067349    44A      0.067380    45A      0.071715  
      46A      0.072997    47A      0.077059    48A      0.087702  
      49A      0.091083    50A      0.095590    51A      0.097306  
      52A      0.113024    53A      0.118588    54A      0.122624  
      55A      0.122961    56A      0.129720    57A      0.130850  
      58A      0.132018    59A      0.136874    60A      0.139296  
      61A      0.146742    62A      0.147324    63A      0.151601  
      64A      0.153108    65A      0.154066    66A      0.160722  
      67A      0.165812    68A      0.166413    69A      0.172140  
      70A      0.174735    71A      0.178100    72A      0.180716  
      73A      0.186327    74A      0.195776    75A      0.195783  
      76A      0.203125    77A      0.218598    78A      0.222326  
      79A      0.228209    80A      0.230522    81A      0.237338  
      82A      0.243148    83A      0.246941    84A      0.259303  
      85A      0.261553    86A      0.271037    87A      0.280469  
      88A      0.285679    89A      0.292572    90A      0.294493  
      91A      0.301978    92A      0.302507    93A      0.310077  
      94A      0.313597    95A      0.316201    96A      0.319905  
      97A      0.321508    98A      0.329105    99A      0.330629  
     100A      0.337418   101A      0.344451   102A      0.344981  
     103A      0.350096   104A      0.353284   105A      0.355618  
     106A      0.357525   107A      0.358943   108A      0.365525  
     109A      0.366955   110A      0.368647   111A      0.380027  
     112A      0.381001   113A      0.384104   114A      0.387763  
     115A      0.391320   116A      0.396408   117A      0.404187  
     118A      0.404478   119A      0.406497   120A      0.415260  
     121A      0.420359   122A      0.421022   123A      0.426831  
     124A      0.431992   125A      0.436074   126A      0.437571  
     127A      0.441488   128A      0.446454   129A      0.450897  
     130A      0.455061   131A      0.458025   132A      0.459351  
     133A      0.467193   134A      0.467783   135A      0.468730  
     136A      0.472653   137A      0.475281   138A      0.481542  
     139A      0.483087   140A      0.490163   141A      0.495165  
     142A      0.496398   143A      0.496400   144A      0.503009  
     145A      0.506955   146A      0.510907   147A      0.512682  
     148A      0.520491   149A      0.521687   150A      0.529163  
     151A      0.529499   152A      0.543650   153A      0.544238  
     154A      0.551367   155A      0.559167   156A      0.562152  
     157A      0.565536   158A      0.568301   159A      0.571691  
     160A      0.572431   161A      0.581424   162A      0.583799  
     163A      0.590622   164A      0.595390   165A      0.600233  
     166A      0.602104   167A      0.603653   168A      0.608993  
     169A      0.610313   170A      0.617100   171A      0.622485  
     172A      0.630757   173A      0.634668   174A      0.636093  
     175A      0.644016   176A      0.645094   177A      0.652409  
     178A      0.658826   179A      0.661061   180A      0.662180  
     181A      0.671868   182A      0.675718   183A      0.682124  
     184A      0.685437   185A      0.690940   186A      0.692746  
     187A      0.699509   188A      0.707625   189A      0.712317  
     190A      0.721230   191A      0.724735   192A      0.731372  
     193A      0.734257   194A      0.749322   195A      0.749438  
     196A      0.753687   197A      0.768746   198A      0.777384  
     199A      0.783343   200A      0.788971   201A      0.792856  
     202A      0.804219   203A      0.813531   204A      0.827460  
     205A      0.835131   206A      0.838934   207A      0.846754  
     208A      0.847057   209A      0.856420   210A      0.872146  
     211A      0.872677   212A      0.875471   213A      0.881240  
     214A      0.883316   215A      0.887889   216A      0.893612  
     217A      0.895944   218A      0.898604   219A      0.902248  
     220A      0.914714   221A      0.917349   222A      0.925134  
     223A      0.929037   224A      0.931454   225A      0.933219  
     226A      0.945207   227A      0.951015   228A      0.953444  
     229A      0.959448   230A      0.967252   231A      0.969731  
     232A      0.969883   233A      0.972764   234A      0.981175  
     235A      0.989979   236A      0.991943   237A      0.994347  
     238A      1.002990   239A      1.009563   240A      1.018202  
     241A      1.020565   242A      1.030629   243A      1.036611  
     244A      1.039450   245A      1.041892   246A      1.043423  
     247A      1.048008   248A      1.056006   249A      1.058670  
     250A      1.069556   251A      1.072493   252A      1.076655  
     253A      1.081548   254A      1.088531   255A      1.089582  
     256A      1.095322   257A      1.099036   258A      1.115291  
     259A      1.115790   260A      1.122532   261A      1.123242  
     262A      1.130221   263A      1.143709   264A      1.147663  
     265A      1.148440   266A      1.151364   267A      1.155242  
     268A      1.162918   269A      1.165812   270A      1.174746  
     271A      1.181424   272A      1.186902   273A      1.188935  
     274A      1.190522   275A      1.198999   276A      1.209255  
     277A      1.214485   278A      1.218360   279A      1.227657  
     280A      1.229718   281A      1.237354   282A      1.237825  
     283A      1.239295   284A      1.239312   285A      1.245647  
     286A      1.245670   287A      1.272956   288A      1.273415  
     289A      1.280034   290A      1.284124   291A      1.290577  
     292A      1.299405   293A      1.305933   294A      1.313788  
     295A      1.320103   296A      1.320235   297A      1.328294  
     298A      1.332286   299A      1.335317   300A      1.342169  
     301A      1.345773   302A      1.357442   303A      1.357753  
     304A      1.368425   305A      1.372783   306A      1.373425  
     307A      1.382142   308A      1.393052   309A      1.394537  
     310A      1.404341   311A      1.408848   312A      1.410194  
     313A      1.417894   314A      1.430822   315A      1.434330  
     316A      1.451029   317A      1.451228   318A      1.472535  
     319A      1.476844   320A      1.485586   321A      1.486846  
     322A      1.500962   323A      1.511817   324A      1.513988  
     325A      1.521950   326A      1.524860   327A      1.527247  
     328A      1.535587   329A      1.536666   330A      1.554578  
     331A      1.557212   332A      1.570054   333A      1.575289  
     334A      1.597318   335A      1.601547   336A      1.605262  
     337A      1.611341   338A      1.619774   339A      1.621234  
     340A      1.631956   341A      1.643305   342A      1.647432  
     343A      1.654711   344A      1.655667   345A      1.665625  
     346A      1.670770   347A      1.678726   348A      1.688900  
     349A      1.690164   350A      1.694759   351A      1.699181  
     352A      1.703986   353A      1.706725   354A      1.710159  
     355A      1.717738   356A      1.727624   357A      1.729683  
     358A      1.734642   359A      1.745419   360A      1.751564  
     361A      1.753445   362A      1.759203   363A      1.769282  
     364A      1.771106   365A      1.775939   366A      1.778454  
     367A      1.788717   368A      1.794096   369A      1.798575  
     370A      1.810781   371A      1.811407   372A      1.814612  
     373A      1.826424   374A      1.830140   375A      1.842794  
     376A      1.848010   377A      1.852060   378A      1.855366  
     379A      1.858518   380A      1.867803   381A      1.875434  
     382A      1.875453   383A      1.885536   384A      1.892839  
     385A      1.893733   386A      1.908816   387A      1.916760  
     388A      1.920938   389A      1.923890   390A      1.931982  
     391A      1.936572   392A      1.938599   393A      1.953111  
     394A      1.962337   395A      1.969385   396A      1.980704  
     397A      1.981966   398A      1.990285   399A      2.004938  
     400A      2.006823   401A      2.012555   402A      2.016248  
     403A      2.036345   404A      2.037694   405A      2.044624  
     406A      2.047605   407A      2.064848   408A      2.066438  
     409A      2.078207   410A      2.080163   411A      2.085169  
     412A      2.085231   413A      2.098481   414A      2.100724  
     415A      2.105057   416A      2.113431   417A      2.115855  
     418A      2.123254   419A      2.127323   420A      2.146536  
     421A      2.153355   422A      2.164165   423A      2.168369  
     424A      2.181326   425A      2.183981   426A      2.198787  
     427A      2.212257   428A      2.231497   429A      2.236405  
     430A      2.239249   431A      2.245957   432A      2.251220  
     433A      2.260315   434A      2.279621   435A      2.293908  
     436A      2.294585   437A      2.309050   438A      2.310929  
     439A      2.316385   440A      2.321599   441A      2.331396  
     442A      2.336398   443A      2.352102   444A      2.356052  
     445A      2.366207   446A      2.373025   447A      2.380633  
     448A      2.388188   449A      2.394338   450A      2.398295  
     451A      2.419920   452A      2.420269   453A      2.424886  
     454A      2.445438   455A      2.448697   456A      2.453280  
     457A      2.462639   458A      2.470131   459A      2.497864  
     460A      2.499725   461A      2.500889   462A      2.516433  
     463A      2.530825   464A      2.538471   465A      2.552516  
     466A      2.555524   467A      2.571459   468A      2.575932  
     469A      2.588701   470A      2.596075   471A      2.611157  
     472A      2.626448   473A      2.639109   474A      2.654455  
     475A      2.666795   476A      2.679794   477A      2.693056  
     478A      2.723732   479A      2.738839   480A      2.773861  
     481A      2.800901   482A      2.808975   483A      2.854608  
     484A      2.869938   485A      2.924616   486A      2.942993  
     487A      3.049843   488A      3.061665   489A      3.115852  
     490A      3.126604   491A      3.195279   492A      3.217680  
     493A      3.288549   494A      3.335495   495A      3.343080  
     496A      3.419317   497A      3.436844   498A      3.453514  
     499A      3.464926   500A      3.467279   501A      3.478693  
     502A      3.496680   503A      3.515935   504A      3.549098  
     505A      3.556984   506A      3.564077   507A      3.565550  
     508A      3.572569   509A      3.587637   510A      3.599635  
     511A      3.606613   512A      3.619581   513A      3.620429  
     514A      3.640169   515A      3.661253   516A      3.661897  
     517A      3.677240   518A      3.688534   519A      3.692930  
     520A      3.696702   521A      3.713843   522A      3.715064  
     523A      3.719871   524A      3.731943   525A      3.742810  
     526A      3.752033   527A      3.767171   528A      3.771390  
     529A      3.783168   530A      3.802438   531A      3.806477  
     532A      3.815887   533A      3.821752   534A      3.834292  
     535A      3.842646   536A      3.845470   537A      3.850076  
     538A      3.850799   539A      3.861123   540A      3.874337  
     541A      3.886027   542A      3.891755   543A      3.897804  
     544A      3.904249   545A      3.910109   546A      3.921218  
     547A      3.922292   548A      3.932518   549A      3.941312  
     550A      3.954792   551A      3.956362   552A      3.958975  
     553A      3.965973   554A      3.979536   555A      4.005264  
     556A      4.009374   557A      4.017721   558A      4.018953  
     559A      4.027532   560A      4.028445   561A      4.043959  
     562A      4.046482   563A      4.048119   564A      4.053747  
     565A      4.057308   566A      4.073188   567A      4.073756  
     568A      4.077676   569A      4.094750   570A      4.096204  
     571A      4.102676   572A      4.102718   573A      4.121690  
     574A      4.139553   575A      4.143885   576A      4.152862  
     577A      4.159890   578A      4.176627   579A      4.181776  
     580A      4.190252   581A      4.199986   582A      4.202826  
     583A      4.210721   584A      4.229400   585A      4.240965  
     586A      4.245532   587A      4.254126   588A      4.265530  
     589A      4.272481   590A      4.290348   591A      4.302891  
     592A      4.303875   593A      4.309320   594A      4.321685  
     595A      4.333325   596A      4.334095   597A      4.345259  
     598A      4.354190   599A      4.371665   600A      4.373641  
     601A      4.381250   602A      4.398812   603A      4.402678  
     604A      4.413918   605A      4.418588   606A      4.422871  
     607A      4.445249   608A      4.465702   609A      4.472336  
     610A      4.480423   611A      4.495476   612A      4.529145  
     613A      4.535604   614A      4.541172   615A      4.563523  
     616A      4.575292   617A      4.584034   618A      4.589919  
     619A      4.611283   620A      4.622934   621A      4.630777  
     622A      4.652847   623A      4.670466   624A      4.672707  
     625A      4.678872   626A      4.700325   627A      4.720972  
     628A      4.721427   629A      4.736853   630A      4.743578  
     631A      4.749077   632A      4.754801   633A      4.767452  
     634A      4.789995   635A      4.806996   636A      4.808381  
     637A      4.816345   638A      4.832682   639A      4.834620  
     640A      4.855990   641A      4.871387   642A      4.873671  
     643A      4.888937   644A      4.897645   645A      4.903739  
     646A      4.914121   647A      4.919160   648A      4.927219  
     649A      4.935951   650A      4.952442   651A      4.953308  
     652A      4.970324   653A      4.975292   654A      4.980799  
     655A      4.984116   656A      5.017397   657A      5.023416  
     658A      5.023486   659A      5.041108   660A      5.062234  
     661A      5.082685   662A      5.103068   663A      5.114391  
     664A      5.129365   665A      5.130572   666A      5.144890  
     667A      5.148409   668A      5.162633   669A      5.166802  
     670A      5.175652   671A      5.184183   672A      5.199476  
     673A      5.200849   674A      5.201853   675A      5.241402  
     676A      5.248830   677A      5.257711   678A      5.266721  
     679A      5.271785   680A      5.297707   681A      5.301700  
     682A      5.307686   683A      5.313029   684A      5.322635  
     685A      5.353135   686A      5.354233   687A      5.364115  
     688A      5.372161   689A      5.385396   690A      5.394511  
     691A      5.411992   692A      5.416976   693A      5.430912  
     694A      5.452240   695A      5.461137   696A      5.472471  
     697A      5.492956   698A      5.501820   699A      5.504698  
     700A      5.514308   701A      5.522833   702A      5.537708  
     703A      5.546047   704A      5.554098   705A      5.560276  
     706A      5.574809   707A      5.585175   708A      5.629660  
     709A      5.636235   710A      5.654573   711A      5.658995  
     712A      5.673426   713A      5.683279   714A      5.684193  
     715A      5.698168   716A      5.712081   717A      5.714852  
     718A      5.732762   719A      5.735144   720A      5.752909  
     721A      5.754497   722A      5.770555   723A      5.792688  
     724A      5.821511   725A      5.828292   726A      5.839791  
     727A      5.841446   728A      5.868619   729A      5.891883  
     730A      5.903528   731A      5.972632   732A      5.995123  
     733A      5.999078   734A      6.033579   735A      6.054031  
     736A      6.054610   737A      6.069506   738A      6.077853  
     739A      6.136125   740A      6.138775   741A      6.161066  
     742A      6.166093   743A      6.199152   744A      6.202685  
     745A      6.254665   746A      6.256321   747A      6.268521  
     748A      6.277866   749A      6.292317   750A      6.326101  
     751A      6.335769   752A      6.337867   753A      6.354746  
     754A      6.362676   755A      6.397292   756A      6.410487  
     757A      6.435060   758A      6.456707   759A      6.622469  
     760A      6.635003   761A      6.673877   762A      6.710452  
     763A      6.735213   764A      6.826362   765A      6.841037  
     766A      6.870483   767A      6.909327   768A      6.916114  
     769A      6.943618   770A      6.984177   771A      7.033076  
     772A      7.061257   773A      7.062511   774A      7.135264  
     775A     18.052337   776A     18.090422   777A     18.622951  
     778A     18.814694   779A     18.876016   780A     19.177006  
     781A     19.332762   782A     19.953765  

    Final Occupation by Irrep:
              A 
    DOCC [    33 ]

  Energy converged.

  @DF-RHF Final Energy:  -313.53391628891995

   => Energetics <=

    Nuclear Repulsion Energy =            398.5313152404652328
    One-Electron Energy =               -1212.2094622798035743
    Two-Electron Energy =                 500.1442307504185010
    DFT Exchange-Correlation Energy =       0.0000000000000000
    Empirical Dispersion Energy =           0.0000000000000000
    PCM Polarization Energy =               0.0000000000000000
    EFP Energy =                            0.0000000000000000
    Total Energy =                       -313.5339162889198406


  Saving occupied orbitals to File 180.

*** tstop() called on wr33 at Wed Sep 21 04:59:12 2016
Module time:
	user time   =    1030.98 seconds =      17.18 minutes
	system time =      11.92 seconds =       0.20 minutes
	total time  =         98 seconds =       1.63 minutes
Total time:
	user time   =    1030.98 seconds =      17.18 minutes
	system time =      11.92 seconds =       0.20 minutes
	total time  =         98 seconds =       1.63 minutes


Properties will be evaluated at   0.000000,   0.000000,   0.000000 Bohr

Properties computed using the SCF density matrix

  Nuclear Dipole Moment: (a.u.)
     X:     0.0000      Y:     0.0004      Z:     0.5390

  Electronic Dipole Moment: (a.u.)
     X:    -0.0000      Y:    -0.0004      Z:    -0.5326

  Dipole Moment: (a.u.)
     X:     0.0000      Y:     0.0000      Z:     0.0065     Total:     0.0065

  Dipole Moment: (Debye)
     X:     0.0000      Y:     0.0000      Z:     0.0164     Total:     0.0164


  //>>>>>>>>>>>>>>>>>>>>>>>>>>>>>>>>>>>//
  //               DFMP2               //
  //<<<<<<<<<<<<<<<<<<<<<<<<<<<<<<<<<<<//


*** tstart() called on wr33
*** at Wed Sep 21 04:59:12 2016


*** tstop() called on wr33 at Wed Sep 21 04:59:13 2016
Module time:
	user time   =       3.55 seconds =       0.06 minutes
	system time =       0.20 seconds =       0.00 minutes
	total time  =          1 seconds =       0.02 minutes
Total time:
	user time   =    1034.74 seconds =      17.25 minutes
	system time =      12.13 seconds =       0.20 minutes
	total time  =         99 seconds =       1.65 minutes
	 --------------------------------------------------------
	                          DF-MP2                         
	      2nd-Order Density-Fitted Moller-Plesset Theory     
	              RMP2 Wavefunction,  12 Threads             
	                                                         
	        Rob Parrish, Justin Turney, Andy Simmonett,      
	           Ed Hohenstein, and C. David Sherrill          
	 --------------------------------------------------------

   => Auxiliary Basis Set <=

  Basis Set: 
    Number of shells: 476
    Number of basis function: 1676
    Number of Cartesian functions: 2078
    Spherical Harmonics?: true
    Max angular momentum: 4

	 --------------------------------------------------------
	                 NBF =   782, NAUX =  1676
	 --------------------------------------------------------
	   CLASS    FOCC     OCC    AOCC    AVIR     VIR    FVIR
	   PAIRS       8      33      25     749     749       0
	 --------------------------------------------------------

DGAS Warning! /src/lib/libfock/apps.cc:80 is not currently checking restricted

         ------------------------------------------------------------
                                     CPHF                           
                                  Rob Parrish                       
         ------------------------------------------------------------

  ==> Geometry <==

    Molecular point group: c1
    Full point group: C1

    Geometry (in Angstrom), charge = 0, multiplicity = 1:

       Center              X                  Y                   Z               Mass       
    ------------   -----------------  -----------------  -----------------  -----------------
           C         -3.125518508867     0.846168348225     0.352440645217    12.000000000000
           H         -3.812833746617     0.772023835186    -0.491369092710     1.007825032070
           H         -2.382179640205     1.602155955311     0.105952406726     1.007825032070
           H         -3.692470159625     1.199875201630     1.213902128242     1.007825032070
           C          3.125549942275    -0.845658995500     0.353390487145    12.000000000000
           H          2.382190211981    -1.602002896736     0.108059858766     1.007825032070
           H          3.692578897029    -1.198120994377     1.215311258022     1.007825032070
           H          3.812790071052    -0.772731290076    -0.490586650971     1.007825032070
           C         -2.484421521005    -0.510913147468     0.631024818917    12.000000000000
           H         -3.277617999606    -1.219208841496     0.877877249473     1.007825032070
           H         -1.847707832908    -0.447461268576     1.518531640912     1.007825032070
           C          2.484474708166     0.511821698180     0.630072141031    12.000000000000
           H          1.847835783499     0.449649141600     1.517723554303     1.007825032070
           H          3.277691306736     1.220473730381     0.875835625206     1.007825032070
           C         -1.659302732319    -1.060124272057    -0.541839388157    12.000000000000
           H         -2.064992808337    -0.671251906312    -1.481347300038     1.007825032070
           H         -1.770674756172    -2.145735261226    -0.586026083505     1.007825032070
           C         -0.165396531599    -0.744444612033    -0.464384594437    12.000000000000
           H          0.236440990932    -1.206203915666     0.442033682637     1.007825032070
           H          0.343329206724    -1.220049411254    -1.308859131239     1.007825032070
           C          0.165355712284     0.743776785141    -0.465478263282    12.000000000000
           H         -0.343440296394     1.218154686388    -1.310600708142     1.007825032070
           H         -0.236407592307     1.206850836906     0.440302375752     1.007825032070
           C          1.659256760612     1.059339658657    -0.543514586661    12.000000000000
           H          2.064866144875     0.669107786744    -1.482494261982     1.007825032070
           H          1.770628062564     2.144885836005    -0.589280794238     1.007825032070

  Nuclear repulsion =  398.531315240465233
  Reference energy  = -313.533916288919954

  ==> Basis Set <==

  Basis Set: AUG-CC-PVTZ
    Number of shells: 274
    Number of basis function: 782
    Number of Cartesian functions: 890
    Spherical Harmonics?: true
    Max angular momentum: 3

  ==> CGRSolver (by Rob Parrish) <==

   Number of roots    =         1
   Preconditioning    =    JACOBI
   Convergence cutoff =     1E-06
   Maximum iterations =       100

  ==> CPHFRHamiltonian (by Rob Parrish) <== 

  ==> DFJK: Density-Fitted J/K Matrices <==

    J tasked:                  Yes
    K tasked:                  Yes
    wK tasked:                  No
    OpenMP threads:             12
    Integrals threads:          12
    Memory (MB):             42915
    Algorithm:                Core
    Integral Cache:           NONE
    Schwarz Cutoff:          1E-12
    Fitting Condition:       1E-12

   => Auxiliary Basis Set <=

  Basis Set: 
    Number of shells: 492
    Number of basis function: 1660
    Number of Cartesian functions: 2038
    Spherical Harmonics?: true
    Max angular momentum: 4

  ==> CPHF Iterations <==

  => Iterations <=

             Iter  Converged  Remaining    Residual
  CGR           1          0          1   9.204E-02
  CGR           2          0          1   1.320E-02
  CGR           3          0          1   3.691E-03
  CGR           4          0          1   8.470E-04
  CGR           5          0          1   2.037E-04
  CGR           6          0          1   4.228E-05
  CGR           7          0          1   1.261E-05
  CGR           8          0          1   3.043E-06
  CGR           9          1          0   6.172E-07

    CGRSolver converged.

  ==> DFCorrGrad: Density-Fitted Correlated Gradients <==

    OpenMP threads:             12
    Integrals threads:          12
    Memory (MB):             42915
    Schwarz Cutoff:          0E+00
    Fitting Condition:       1E-12

   => Auxiliary Basis Set <=

  Basis Set: 
    Number of shells: 492
    Number of basis function: 1660
    Number of Cartesian functions: 2038
    Spherical Harmonics?: true
    Max angular momentum: 4

	-----------------------------------------------------------
	 ==================> DF-MP2 Energies <==================== 
	-----------------------------------------------------------
	 Reference Energy          =    -313.5339162889199542 [Eh]
	 Singles Energy            =      -0.0000000000000001 [Eh]
	 Same-Spin Energy          =      -0.3167080760661849 [Eh]
	 Opposite-Spin Energy      =      -1.1265347711729179 [Eh]
	 Correlation Energy        =      -1.4432428472391028 [Eh]
	 Total Energy              =    -314.9771591361590595 [Eh]
	-----------------------------------------------------------
	 ================> DF-SCS-MP2 Energies <================== 
	-----------------------------------------------------------
	 SCS Same-Spin Scale       =       0.3333333333333333 [-]
	 SCS Opposite-Spin Scale   =       1.2000000000000000 [-]
	 SCS Same-Spin Energy      =      -0.1055693586887283 [Eh]
	 SCS Opposite-Spin Energy  =      -1.3518417254075015 [Eh]
	 SCS Correlation Energy    =      -1.4574110840962298 [Eh]
	 SCS Total Energy          =    -314.9913273730161904 [Eh]
	-----------------------------------------------------------


  -Total Gradient:
     Atom            X                  Y                   Z
    ------   -----------------  -----------------  -----------------
       1       -0.000000065183     0.000000094243     0.000000090407
       2       -0.000000103238    -0.000000009408    -0.000000106428
       3        0.000000032369     0.000000004898     0.000000021894
       4       -0.000000092343     0.000000022138     0.000000167385
       5        0.000000154827     0.000000192609     0.000000143508
       6       -0.000000241162    -0.000000165029    -0.000000022153
       7        0.000000200862    -0.000000045505     0.000000276171
       8        0.000000258203     0.000000006387    -0.000000303612
       9        0.000000305522    -0.000000144005    -0.000000315779
      10       -0.000000063790    -0.000000007203    -0.000000032548
      11        0.000000107680     0.000000015742     0.000000069212
      12       -0.000000156398    -0.000000196762    -0.000000330918
      13       -0.000000298103    -0.000000032377     0.000000350410
      14        0.000000305536     0.000000098593    -0.000000010944
      15        0.000000152460    -0.000000418104    -0.000000316345
      16        0.000000175396    -0.000000084184     0.000000158315
      17       -0.000000034616     0.000000212341     0.000000094565
      18        0.000000217606    -0.000000284509     0.000000306118
      19       -0.000000218154     0.000000009358    -0.000000328819
      20       -0.000000234613     0.000000149775     0.000000215709
      21        0.000000033567     0.000000570285     0.000000121921
      22        0.000000002365    -0.000000231552     0.000000082250
      23       -0.000000023652     0.000000014808    -0.000000193658
      24       -0.000000392672     0.000000161116     0.000000070349
      25       -0.000000025995    -0.000000091215    -0.000000258371
      26        0.000000003523     0.000000157558     0.000000051362


			-----------------------------------------
			 OPTKING 2.0: for geometry optimizations 
			  - R.A. King,  Bethel University        
			-----------------------------------------

	Internal coordinates to be generated automatically.
	Detected frag 1 with atoms:  1 2 3 4 5 6 7 8 9 10 11 12 13 14 15 16 17 18 19 20
	 21 22 23 24 25 26
	---Fragment 1 Bond Connectivity---
	 1 : 2 3 4 9
	 2 : 1
	 3 : 1
	 4 : 1
	 5 : 6 7 8 12
	 6 : 5
	 7 : 5
	 8 : 5
	 9 : 1 10 11 15
	 10 : 9
	 11 : 9
	 12 : 5 13 14 24
	 13 : 12
	 14 : 12
	 15 : 9 16 17 18
	 16 : 15
	 17 : 15
	 18 : 15 19 20 21
	 19 : 18
	 20 : 18
	 21 : 18 22 23 24
	 22 : 21
	 23 : 21
	 24 : 12 21 25 26
	 25 : 24
	 26 : 24

	---Fragment 1 Geometry and Gradient---
	 C          -5.9063740050        1.5990264405        0.6660162976
	 H          -7.2052115713        1.4589136166       -0.9285530154
	 H          -4.5016671193        3.0276359777        0.2002210318
	 H          -6.9777573555        2.2674355247        2.2939425745
	 C           5.9064334056       -1.5980639033        0.6678112387
	 H           4.5016870971       -3.0273467389        0.2042035390
	 H           6.9779628395       -2.2641205534        2.2966054439
	 H           7.2051290365       -1.4602505126       -0.9270744148
	 C          -4.6948762733       -0.9654859264        1.1924640908
	 H          -6.1938003875       -2.3039708092        1.6589475798
	 H          -3.4916617778       -0.8455792527        2.8696089254
	 C           4.6949767825        0.9672028384        1.1906637905
	 H           3.4919035694        0.8497137335        2.8680818631
	 H           6.1939389179        2.3063611028        1.6550894691
	 C          -3.1356277356       -2.0033445410       -1.0239280516
	 H          -3.9022708741       -1.2684822691       -2.7993407048
	 H          -3.3460903596       -4.0548519974       -1.1074288046
	 C          -0.3125541481       -1.4067964378       -0.8775597038
	 H           0.4468087194       -2.2793950610        0.8353226017
	 H           0.6487981741       -2.3055592559       -2.4733853046
	 C           0.3124770107        1.4055344279       -0.8796264384
	 H          -0.6490081032        2.3019787448       -2.4766764080
	 H          -0.4467456052        2.2806175650        0.8320509058
	 C           3.1355408617        2.0018618366       -1.0270937180
	 H           3.9020315149        1.2644304703       -2.8015081487
	 H           3.3460021214        4.0532468164       -1.1135793165
	            -0.0000000652        0.0000000942        0.0000000904
	            -0.0000001032       -0.0000000094       -0.0000001064
	             0.0000000324        0.0000000049        0.0000000219
	            -0.0000000923        0.0000000221        0.0000001674
	             0.0000001548        0.0000001926        0.0000001435
	            -0.0000002412       -0.0000001650       -0.0000000222
	             0.0000002009       -0.0000000455        0.0000002762
	             0.0000002582        0.0000000064       -0.0000003036
	             0.0000003055       -0.0000001440       -0.0000003158
	            -0.0000000638       -0.0000000072       -0.0000000325
	             0.0000001077        0.0000000157        0.0000000692
	            -0.0000001564       -0.0000001968       -0.0000003309
	            -0.0000002981       -0.0000000324        0.0000003504
	             0.0000003055        0.0000000986       -0.0000000109
	             0.0000001525       -0.0000004181       -0.0000003163
	             0.0000001754       -0.0000000842        0.0000001583
	            -0.0000000346        0.0000002123        0.0000000946
	             0.0000002176       -0.0000002845        0.0000003061
	            -0.0000002182        0.0000000094       -0.0000003288
	            -0.0000002346        0.0000001498        0.0000002157
	             0.0000000336        0.0000005703        0.0000001219
	             0.0000000024       -0.0000002316        0.0000000822
	            -0.0000000237        0.0000000148       -0.0000001937
	            -0.0000003927        0.0000001611        0.0000000703
	            -0.0000000260       -0.0000000912       -0.0000002584
	             0.0000000035        0.0000001576        0.0000000514

	Previous optimization step data not found.  Starting new optimization.

	---Fragment 1 Intrafragment Coordinates---
	 - Coordinate -           - BOHR/RAD -       - ANG/DEG -
	 R(1,2)           =         2.061374	       1.090832
	 R(1,3)           =         2.056962	       1.088497
	 R(1,4)           =         2.060286	       1.090256
	 R(1,9)           =         2.884718	       1.526527
	 R(5,6)           =         2.056962	       1.088498
	 R(5,7)           =         2.060286	       1.090256
	 R(5,8)           =         2.061374	       1.090832
	 R(5,12)          =         2.884718	       1.526527
	 R(9,10)          =         2.062989	       1.091687
	 R(9,11)          =         2.067587	       1.094120
	 R(9,15)          =         2.901862	       1.535599
	 R(12,13)         =         2.067588	       1.094120
	 R(12,14)         =         2.062989	       1.091687
	 R(12,24)         =         2.901863	       1.535600
	 R(15,16)         =         2.068781	       1.094752
	 R(15,17)         =         2.063965	       1.092203
	 R(15,18)         =         2.889124	       1.528859
	 R(18,19)         =         2.066888	       1.093750
	 R(18,20)         =         2.068485	       1.094595
	 R(18,21)         =         2.880950	       1.524533
	 R(21,22)         =         2.068486	       1.094596
	 R(21,23)         =         2.066889	       1.093750
	 R(21,24)         =         2.889125	       1.528859
	 R(24,25)         =         2.068782	       1.094752
	 R(24,26)         =         2.063966	       1.092204
	 B(1,9,10)        =         1.889056	     108.234949
	 B(1,9,11)        =         1.918644	     109.930210
	 B(1,9,15)        =         1.986931	     113.842750
	 B(2,1,3)         =         1.877927	     107.597319
	 B(2,1,4)         =         1.881378	     107.795003
	 B(2,1,9)         =         1.923418	     110.203754
	 B(3,1,4)         =         1.884651	     107.982548
	 B(3,1,9)         =         1.951913	     111.836392
	 B(4,1,9)         =         1.941861	     111.260448
	 B(5,12,13)       =         1.918645	     109.930244
	 B(5,12,14)       =         1.889056	     108.234945
	 B(5,12,24)       =         1.986930	     113.842687
	 B(6,5,7)         =         1.884651	     107.982556
	 B(6,5,8)         =         1.877928	     107.597329
	 B(6,5,12)        =         1.951913	     111.836353
	 B(7,5,8)         =         1.881378	     107.795005
	 B(7,5,12)        =         1.941861	     111.260466
	 B(8,5,12)        =         1.923418	     110.203756
	 B(9,15,16)       =         1.906367	     109.226783
	 B(9,15,17)       =         1.908798	     109.366086
	 B(9,15,18)       =         1.995993	     114.361962
	 B(10,9,11)       =         1.851501	     106.083218
	 B(10,9,15)       =         1.908233	     109.333677
	 B(11,9,15)       =         1.904558	     109.123117
	 B(12,24,21)      =         1.995994	     114.362048
	 B(12,24,25)      =         1.906366	     109.226738
	 B(12,24,26)      =         1.908799	     109.366124
	 B(13,12,14)      =         1.851502	     106.083232
	 B(13,12,24)      =         1.904558	     109.123160
	 B(14,12,24)      =         1.908232	     109.333658
	 B(15,18,19)      =         1.889997	     108.288856
	 B(15,18,20)      =         1.902162	     108.985838
	 B(15,18,21)      =         1.997112	     114.426115
	 B(16,15,17)      =         1.855178	     106.293867
	 B(16,15,18)      =         1.909471	     109.404657
	 B(17,15,18)      =         1.882754	     107.873885
	 B(18,21,22)      =         1.899449	     108.830403
	 B(18,21,23)      =         1.910291	     109.451629
	 B(18,21,24)      =         1.997110	     114.425961
	 B(19,18,20)      =         1.859978	     106.568895
	 B(19,18,21)      =         1.910292	     109.451664
	 B(20,18,21)      =         1.899450	     108.830455
	 B(21,24,25)      =         1.909470	     109.404599
	 B(21,24,26)      =         1.882754	     107.873873
	 B(22,21,23)      =         1.859979	     106.568923
	 B(22,21,24)      =         1.902164	     108.985950
	 B(23,21,24)      =         1.889999	     108.288969
	 B(25,24,26)      =         1.855178	     106.293853
	 D(1,9,15,16)     =        -0.492135	     -28.197243
	 D(1,9,15,17)     =        -2.515797	    -144.144548
	 D(1,9,15,18)     =         1.654077	      94.771609
	 D(2,1,9,10)      =        -1.060892	     -60.784606
	 D(2,1,9,11)      =        -3.075873	    -176.234544
	 D(2,1,9,15)      =         1.064619	      60.998158
	 D(3,1,9,10)      =         3.134227	     179.577989
	 D(3,1,9,11)      =         1.119246	      64.128051
	 D(3,1,9,15)      =        -1.023448	     -58.639247
	 D(4,1,9,10)      =         1.024999	      58.728109
	 D(4,1,9,11)      =        -0.989983	     -56.721828
	 D(4,1,9,15)      =        -3.132676	    -179.489126
	 D(5,12,24,21)    =         1.654082	      94.771901
	 D(5,12,24,25)    =        -0.492129	     -28.196901
	 D(5,12,24,26)    =        -2.515791	    -144.144185
	 D(6,5,12,13)     =         1.119241	      64.127780
	 D(6,5,12,14)     =         3.134223	     179.577750
	 D(6,5,12,24)     =        -1.023453	     -58.639556
	 D(7,5,12,13)     =        -0.989987	     -56.722096
	 D(7,5,12,14)     =         1.024995	      58.727875
	 D(7,5,12,24)     =        -3.132682	    -179.489431
	 D(8,5,12,13)     =        -3.075878	    -176.234826
	 D(8,5,12,14)     =        -1.060896	     -60.784856
	 D(8,5,12,24)     =         1.064613	      60.997838
	 D(9,15,18,19)    =         1.071676	      61.402535
	 D(9,15,18,20)    =         3.088437	     176.954389
	 D(9,15,18,21)    =        -1.063995	     -60.962405
	 D(10,9,15,16)    =         1.622722	      92.975146
	 D(10,9,15,17)    =        -0.400940	     -22.972159
	 D(10,9,15,18)    =        -2.514252	    -144.056002
	 D(11,9,15,16)    =        -2.642525	    -151.405507
	 D(11,9,15,17)    =         1.616998	      92.647188
	 D(11,9,15,18)    =        -0.496313	     -28.436655
	 D(12,24,21,18)   =        -1.063988	     -60.962005
	 D(12,24,21,22)   =         3.088445	     176.954878
	 D(12,24,21,23)   =         1.071682	      61.402870
	 D(13,12,24,21)   =        -0.496309	     -28.436395
	 D(13,12,24,25)   =        -2.642519	    -151.405197
	 D(13,12,24,26)   =         1.617004	      92.647519
	 D(14,12,24,21)   =        -2.514248	    -144.055772
	 D(14,12,24,25)   =         1.622727	      92.975426
	 D(14,12,24,26)   =        -0.400935	     -22.971858
	 D(15,18,21,22)   =        -0.897599	     -51.428654
	 D(15,18,21,23)   =         1.128762	      64.673309
	 D(15,18,21,24)   =        -3.029833	    -173.596624
	 D(16,15,18,19)   =        -3.066978	    -175.724907
	 D(16,15,18,20)   =        -1.050218	     -60.173054
	 D(16,15,18,21)   =         1.080536	      61.910153
	 D(17,15,18,19)   =        -1.055958	     -60.501959
	 D(17,15,18,20)   =         0.960802	      55.049895
	 D(17,15,18,21)   =         3.091556	     177.133102
	 D(18,21,24,25)   =         1.080542	      61.910509
	 D(18,21,24,26)   =         3.091561	     177.133405
	 D(19,18,21,22)   =        -3.022190	    -173.158708
	 D(19,18,21,23)   =        -0.995828	     -57.056744
	 D(19,18,21,24)   =         1.128762	      64.673323
	 D(20,18,21,22)   =         1.234634	      70.739314
	 D(20,18,21,23)   =        -3.022190	    -173.158722
	 D(20,18,21,24)   =        -0.897599	     -51.428655
	 D(22,21,24,25)   =        -1.050210	     -60.172608
	 D(22,21,24,26)   =         0.960809	      55.050288
	 D(23,21,24,25)   =        -3.066973	    -175.724616
	 D(23,21,24,26)   =        -1.055954	     -60.501720
	 R(1,21)          =         6.410972	       3.392540
	 R(5,18)          =         6.410972	       3.392540

	Current energy   :      -314.9771591362

	Generating empirical Hessian (Schlegel '84) for each fragment.
	Taking RFO optimization step.
	Going to follow RFO solution 1.
	Using RFO vector 1.
	Norm of target step-size    0.00009
	Projected energy change by RFO approximation:        -0.0000000001

	Back-transformation to cartesian coordinates...
	Successfully converged to displaced geometry.

	--- Internal Coordinate Step in ANG or DEG, aJ/ANG or AJ/DEG ---
	 ---------------------------------------------------------------------------
	   Coordinate                Previous        Force       Change         New 
	   ----------                --------       ------       ------       ------
	    1 R(1,2)          =      1.090832    -0.000001    -0.000000     1.090832
	    2 R(1,3)          =      1.088497    -0.000000    -0.000000     1.088497
	    3 R(1,4)          =      1.090256    -0.000002    -0.000000     1.090256
	    4 R(1,9)          =      1.526527    -0.000002    -0.000001     1.526526
	    5 R(5,6)          =      1.088498    -0.000003    -0.000000     1.088497
	    6 R(5,7)          =      1.090256    -0.000003    -0.000001     1.090256
	    7 R(5,8)          =      1.090832    -0.000003    -0.000001     1.090832
	    8 R(5,12)         =      1.526527    -0.000002    -0.000000     1.526526
	    9 R(9,10)         =      1.091687    -0.000000    -0.000000     1.091687
	   10 R(9,11)         =      1.094120    -0.000001    -0.000000     1.094120
	   11 R(9,15)         =      1.535599     0.000001     0.000000     1.535599
	   12 R(12,13)        =      1.094120    -0.000004    -0.000001     1.094120
	   13 R(12,14)        =      1.091687    -0.000002    -0.000000     1.091686
	   14 R(12,24)        =      1.535600    -0.000002    -0.000001     1.535599
	   15 R(15,16)        =      1.094752     0.000002     0.000000     1.094752
	   16 R(15,17)        =      1.092203     0.000002     0.000000     1.092203
	   17 R(15,18)        =      1.528859     0.000003     0.000000     1.528859
	   18 R(18,19)        =      1.093750     0.000003     0.000001     1.093751
	   19 R(18,20)        =      1.094595     0.000003     0.000001     1.094596
	   20 R(18,21)        =      1.524533    -0.000002    -0.000000     1.524533
	   21 R(21,22)        =      1.094596     0.000001     0.000000     1.094596
	   22 R(21,23)        =      1.093750     0.000001     0.000000     1.093751
	   23 R(21,24)        =      1.528859     0.000002     0.000000     1.528859
	   24 R(24,25)        =      1.094752    -0.000002    -0.000000     1.094752
	   25 R(24,26)        =      1.092204    -0.000001    -0.000000     1.092203
	   26 B(1,9,10)       =    108.234949     0.000000     0.000068   108.235017
	   27 B(1,9,11)       =    109.930210     0.000000     0.000036   109.930246
	   28 B(1,9,15)       =    113.842750    -0.000000    -0.000166   113.842584
	   29 B(2,1,3)        =    107.597319     0.000000    -0.000008   107.597311
	   30 B(2,1,4)        =    107.795003     0.000000    -0.000005   107.794998
	   31 B(2,1,9)        =    110.203754    -0.000000    -0.000031   110.203723
	   32 B(3,1,4)        =    107.982548    -0.000000     0.000011   107.982560
	   33 B(3,1,9)        =    111.836392     0.000000     0.000016   111.836407
	   34 B(4,1,9)        =    111.260448     0.000000     0.000016   111.260464
	   35 B(5,12,13)      =    109.930244     0.000000    -0.000007   109.930237
	   36 B(5,12,14)      =    108.234945     0.000000     0.000137   108.235082
	   37 B(5,12,24)      =    113.842687    -0.000000    -0.000135   113.842552
	   38 B(6,5,7)        =    107.982556    -0.000000     0.000002   107.982558
	   39 B(6,5,8)        =    107.597329    -0.000000    -0.000015   107.597314
	   40 B(6,5,12)       =    111.836353     0.000000     0.000035   111.836388
	   41 B(7,5,8)        =    107.795005     0.000000     0.000000   107.795005
	   42 B(7,5,12)       =    111.260466     0.000000     0.000023   111.260490
	   43 B(8,5,12)       =    110.203756    -0.000000    -0.000047   110.203709
	   44 B(9,15,16)      =    109.226783    -0.000000    -0.000065   109.226718
	   45 B(9,15,17)      =    109.366086     0.000000     0.000057   109.366143
	   46 B(9,15,18)      =    114.361962     0.000000     0.000050   114.362012
	   47 B(10,9,11)      =    106.083218    -0.000000    -0.000001   106.083217
	   48 B(10,9,15)      =    109.333677     0.000000     0.000033   109.333710
	   49 B(11,9,15)      =    109.123117     0.000000     0.000041   109.123158
	   50 B(12,24,21)     =    114.362048    -0.000000    -0.000039   114.362008
	   51 B(12,24,25)     =    109.226738    -0.000000    -0.000011   109.226727
	   52 B(12,24,26)     =    109.366124     0.000000     0.000004   109.366128
	   53 B(13,12,14)     =    106.083232    -0.000000    -0.000022   106.083210
	   54 B(13,12,24)     =    109.123160     0.000000    -0.000009   109.123151
	   55 B(14,12,24)     =    109.333658     0.000000     0.000045   109.333703
	   56 B(15,18,19)     =    108.288856     0.000000    -0.000009   108.288847
	   57 B(15,18,20)     =    108.985838     0.000000     0.000113   108.985951
	   58 B(15,18,21)     =    114.426115     0.000000    -0.000005   114.426110
	   59 B(16,15,17)     =    106.293867     0.000000    -0.000030   106.293837
	   60 B(16,15,18)     =    109.404657     0.000000     0.000020   109.404676
	   61 B(17,15,18)     =    107.873885    -0.000000    -0.000037   107.873848
	   62 B(18,21,22)     =    108.830403     0.000000     0.000121   108.830524
	   63 B(18,21,23)     =    109.451629    -0.000000    -0.000088   109.451542
	   64 B(18,21,24)     =    114.425961     0.000000     0.000046   114.426007
	   65 B(19,18,20)     =    106.568895     0.000000    -0.000008   106.568887
	   66 B(19,18,21)     =    109.451664    -0.000000    -0.000143   109.451521
	   67 B(20,18,21)     =    108.830455    -0.000000     0.000053   108.830508
	   68 B(21,24,25)     =    109.404599     0.000000     0.000073   109.404672
	   69 B(21,24,26)     =    107.873873    -0.000000    -0.000009   107.873864
	   70 B(22,21,23)     =    106.568923     0.000000     0.000004   106.568926
	   71 B(22,21,24)     =    108.985950    -0.000000     0.000019   108.985970
	   72 B(23,21,24)     =    108.288969    -0.000000    -0.000105   108.288864
	   73 B(25,24,26)     =    106.293853    -0.000000    -0.000017   106.293836
	   74 D(1,9,15,16)    =    -28.197243    -0.000000     0.000599   -28.196644
	   75 D(1,9,15,17)    =   -144.144548     0.000000     0.000639  -144.143909
	   76 D(1,9,15,18)    =     94.771609     0.000000     0.000610    94.772219
	   77 D(2,1,9,10)     =    -60.784606     0.000000     0.000160   -60.784445
	   78 D(2,1,9,11)     =   -176.234544    -0.000000     0.000104  -176.234439
	   79 D(2,1,9,15)     =     60.998158    -0.000000     0.000142    60.998300
	   80 D(3,1,9,10)     =    179.577989     0.000000     0.000181   179.578170
	   81 D(3,1,9,11)     =     64.128051    -0.000000     0.000125    64.128176
	   82 D(3,1,9,15)     =    -58.639247     0.000000     0.000162   -58.639084
	   83 D(4,1,9,10)     =     58.728109     0.000000     0.000144    58.728253
	   84 D(4,1,9,11)     =    -56.721828    -0.000000     0.000088   -56.721740
	   85 D(4,1,9,15)     =   -179.489126    -0.000000     0.000126  -179.489001
	   86 D(5,12,24,21)   =     94.771901     0.000000    -0.000238    94.771663
	   87 D(5,12,24,25)   =    -28.196901    -0.000000    -0.000297   -28.197198
	   88 D(5,12,24,26)   =   -144.144185    -0.000000    -0.000273  -144.144458
	   89 D(6,5,12,13)    =     64.127780     0.000000     0.000592    64.128372
	   90 D(6,5,12,14)    =    179.577750     0.000000     0.000638   179.578389
	   91 D(6,5,12,24)    =    -58.639556     0.000000     0.000706   -58.638849
	   92 D(7,5,12,13)    =    -56.722096    -0.000000     0.000549   -56.721546
	   93 D(7,5,12,14)    =     58.727875     0.000000     0.000596    58.728470
	   94 D(7,5,12,24)    =   -179.489431     0.000000     0.000663  -179.488767
	   95 D(8,5,12,13)    =   -176.234826    -0.000000     0.000564  -176.234262
	   96 D(8,5,12,14)    =    -60.784856     0.000000     0.000611   -60.784245
	   97 D(8,5,12,24)    =     60.997838     0.000000     0.000679    60.998517
	   98 D(9,15,18,19)   =     61.402535    -0.000000     0.000423    61.402958
	   99 D(9,15,18,20)   =    176.954389     0.000000     0.000468   176.954857
	  100 D(9,15,18,21)   =    -60.962405     0.000000     0.000618   -60.961787
	  101 D(10,9,15,16)   =     92.975146    -0.000000     0.000598    92.975744
	  102 D(10,9,15,17)   =    -22.972159    -0.000000     0.000638   -22.971520
	  103 D(10,9,15,18)   =   -144.056002     0.000000     0.000609  -144.055393
	  104 D(11,9,15,16)   =   -151.405507    -0.000000     0.000638  -151.404869
	  105 D(11,9,15,17)   =     92.647188     0.000000     0.000678    92.647867
	  106 D(11,9,15,18)   =    -28.436655     0.000000     0.000649   -28.436005
	  107 D(12,24,21,18)  =    -60.962005     0.000000    -0.001019   -60.963025
	  108 D(12,24,21,22)  =    176.954878    -0.000000    -0.001223   176.953655
	  109 D(12,24,21,23)  =     61.402870    -0.000000    -0.001180    61.401690
	  110 D(13,12,24,21)  =    -28.436395     0.000000    -0.000127   -28.436522
	  111 D(13,12,24,25)  =   -151.405197    -0.000000    -0.000186  -151.405383
	  112 D(13,12,24,26)  =     92.647519     0.000000    -0.000162    92.647357
	  113 D(14,12,24,21)  =   -144.055772     0.000000    -0.000120  -144.055892
	  114 D(14,12,24,25)  =     92.975426    -0.000000    -0.000179    92.975247
	  115 D(14,12,24,26)  =    -22.971858     0.000000    -0.000155   -22.972013
	  116 D(15,18,21,22)  =    -51.428654    -0.000000    -0.000844   -51.429498
	  117 D(15,18,21,23)  =     64.673309    -0.000000    -0.000821    64.672489
	  118 D(15,18,21,24)  =   -173.596624    -0.000000    -0.000992  -173.597615
	  119 D(16,15,18,19)  =   -175.724907    -0.000000     0.000388  -175.724519
	  120 D(16,15,18,20)  =    -60.173054     0.000000     0.000434   -60.172620
	  121 D(16,15,18,21)  =     61.910153     0.000000     0.000583    61.910736
	  122 D(17,15,18,19)  =    -60.501959    -0.000000     0.000344   -60.501615
	  123 D(17,15,18,20)  =     55.049895    -0.000000     0.000389    55.050284
	  124 D(17,15,18,21)  =    177.133102     0.000000     0.000539   177.133640
	  125 D(18,21,24,25)  =     61.910509     0.000000    -0.001006    61.909503
	  126 D(18,21,24,26)  =    177.133405     0.000000    -0.000992   177.132412
	  127 D(19,18,21,22)  =   -173.158708    -0.000000    -0.000721  -173.159428
	  128 D(19,18,21,23)  =    -57.056744    -0.000000    -0.000697   -57.057441
	  129 D(19,18,21,24)  =     64.673323    -0.000000    -0.000869    64.672455
	  130 D(20,18,21,22)  =     70.739314     0.000000    -0.000662    70.738653
	  131 D(20,18,21,23)  =   -173.158722     0.000000    -0.000638  -173.159360
	  132 D(20,18,21,24)  =    -51.428655     0.000000    -0.000809   -51.429464
	  133 D(22,21,24,25)  =    -60.172608    -0.000000    -0.001209   -60.173817
	  134 D(22,21,24,26)  =     55.050288    -0.000000    -0.001196    55.049092
	  135 D(23,21,24,25)  =   -175.724616    -0.000000    -0.001167  -175.725782
	  136 D(23,21,24,26)  =    -60.501720    -0.000000    -0.001153   -60.502873
	  137 R(1,21)         =      3.392540     0.000000     0.000004     3.392545
	  138 R(5,18)         =      3.392540    -0.000000     0.000001     3.392541
	 ---------------------------------------------------------------------------

  ==> Convergence Check <==

  Measures of convergence in internal coordinates in au.
  Criteria marked as inactive (o), active & met (*), and active & unmet ( ).
  --------------------------------------------------------------------------------------------- ~
   Step     Total Energy     Delta E     MAX Force     RMS Force      MAX Disp      RMS Disp    ~
  --------------------------------------------------------------------------------------------- ~
    Convergence Criteria             o    2.00e-06 *    1.00e-06 *    6.00e-06 *    4.00e-06 *  ~
  --------------------------------------------------------------------------------------------- ~
      1    -314.97715914   -3.15e+02 o    5.47e-07 *    1.44e-07 *    2.13e-05      7.75e-06    ~
  ---------------------------------------------------------------------------------------------

	Writing optimization data to binary file.
	Structure for next step:
	Cartesian Geometry (in Angstrom)
	    C    -3.1255163610   0.8461644289   0.3524491903
	    H    -3.8128453327   0.7720112307  -0.4913483134
	    H    -2.3821853553   1.6021539606   0.1059434403
	    H    -3.6924551260   1.1998739230   1.2139177032
	    C     3.1255399904  -0.8456582242   0.3534075640
	    H     2.3821793871  -1.6019977963   0.1080682955
	    H     3.6925546731  -1.1981217381   1.2153364413
	    H     3.8127917438  -0.7727366865  -0.4905598743
	    C    -2.4844087780  -0.5109120746   0.6310304971
	    H    -3.2775972253  -1.2192114417   0.8778979724
	    H    -1.8476817017  -0.4474531818   1.5185269908
	    C     2.4844702762   0.5118271983   0.6300764837
	    H     1.8478269597   0.4496638552   1.5177245187
	    H     3.2776871328   1.2204788029   0.8758385126
	    C    -1.6593055634  -1.0601213202  -0.5418456497
	    H    -2.0650074756  -0.6712445305  -1.4813470188
	    H    -1.7706802740  -2.1457322472  -0.5860355837
	    C    -0.1653970537  -0.7444456919  -0.4644093687
	    H     0.2364526847  -1.2062154573   0.4419988298
	    H     0.3433173321  -1.2200417558  -1.3088963521
	    C     0.1653580232   0.7437747130  -0.4654879279
	    H    -0.3434370350   1.2181645157  -1.3106046015
	    H    -0.2364038923   1.2068387052   0.4402987466
	    C     1.6592598852   1.0593366993  -0.5435187224
	    H     2.0648752263   0.6690984766  -1.4824927307
	    H     1.7706315323   2.1448823241  -0.5892920261
			--------------------------
			 OPTKING Finished Execution 
			--------------------------

    Structure for next step:
    Molecular point group: c1
    Full point group: C1

    Geometry (in Angstrom), charge = 0, multiplicity = 1:

    C           -3.125516610373     0.846164403353     0.352450075671
    H           -3.812845582093     0.772011205118    -0.491347428000
    H           -2.382185604681     1.602153935049     0.105944325629
    H           -3.692455375403     1.199873897396     1.213918588607
    C            3.125539741008    -0.845658249763     0.353408449343
    H            2.382179137689    -1.601997821841     0.108069180863
    H            3.692554423691    -1.198121763637     1.215337326690
    H            3.812791494426    -0.772736712074    -0.490558988910
    C           -2.484409027382    -0.510912100180     0.631031382471
    H           -3.277597474627    -1.219211467251     0.877898857750
    H           -1.847681951062    -0.447453207383     1.518527876116
    C            2.484470026828     0.511827172716     0.630077369047
    H            1.847826710311     0.449663829602     1.517725404067
    H            3.277686883434     1.220478777372     0.875839397954
    C           -1.659305812762    -1.060121345726    -0.541844764324
    H           -2.065007724982    -0.671244556108    -1.481346133466
    H           -1.770680523392    -2.145732272785    -0.586034698338
    C           -0.165397303033    -0.744445717445    -0.464408483380
    H            0.236452435318    -1.206215482880     0.441999715170
    H            0.343317082718    -1.220041781392    -1.308895466772
    C            0.165357773861     0.743774687449    -0.465487042583
    H           -0.343437284341     1.218164490099    -1.310603716180
    H           -0.236404141632     1.206838679642     0.440299631928
    C            1.659259635843     1.059336673706    -0.543517837010
    H            2.064874976952     0.669098451026    -1.482491845297
    H            1.770631282939     2.144882298560    -0.589291140760

gradient() will perform analytic gradient computation.

*** tstart() called on wr33
*** at Wed Sep 21 05:05:36 2016


         ---------------------------------------------------------
                                   SCF
            by Justin Turney, Rob Parrish, and Andy Simmonett
                              RHF Reference
                       12 Threads,  60000 MiB Core
         ---------------------------------------------------------

  ==> Geometry <==

    Molecular point group: c1
    Full point group: C1

    Geometry (in Angstrom), charge = 0, multiplicity = 1:

       Center              X                  Y                   Z               Mass       
    ------------   -----------------  -----------------  -----------------  -----------------
           C         -3.125516610373     0.846164403353     0.352450075671    12.000000000000
           H         -3.812845582093     0.772011205118    -0.491347428000     1.007825032070
           H         -2.382185604681     1.602153935049     0.105944325629     1.007825032070
           H         -3.692455375403     1.199873897396     1.213918588607     1.007825032070
           C          3.125539741008    -0.845658249763     0.353408449343    12.000000000000
           H          2.382179137689    -1.601997821841     0.108069180863     1.007825032070
           H          3.692554423691    -1.198121763637     1.215337326690     1.007825032070
           H          3.812791494426    -0.772736712074    -0.490558988910     1.007825032070
           C         -2.484409027382    -0.510912100180     0.631031382471    12.000000000000
           H         -3.277597474627    -1.219211467251     0.877898857750     1.007825032070
           H         -1.847681951062    -0.447453207383     1.518527876116     1.007825032070
           C          2.484470026828     0.511827172716     0.630077369047    12.000000000000
           H          1.847826710311     0.449663829602     1.517725404067     1.007825032070
           H          3.277686883434     1.220478777372     0.875839397954     1.007825032070
           C         -1.659305812762    -1.060121345726    -0.541844764324    12.000000000000
           H         -2.065007724982    -0.671244556108    -1.481346133466     1.007825032070
           H         -1.770680523392    -2.145732272785    -0.586034698338     1.007825032070
           C         -0.165397303033    -0.744445717445    -0.464408483380    12.000000000000
           H          0.236452435318    -1.206215482880     0.441999715170     1.007825032070
           H          0.343317082718    -1.220041781392    -1.308895466772     1.007825032070
           C          0.165357773861     0.743774687449    -0.465487042583    12.000000000000
           H         -0.343437284341     1.218164490099    -1.310603716180     1.007825032070
           H         -0.236404141632     1.206838679642     0.440299631928     1.007825032070
           C          1.659259635843     1.059336673706    -0.543517837010    12.000000000000
           H          2.064874976952     0.669098451026    -1.482491845297     1.007825032070
           H          1.770631282939     2.144882298560    -0.589291140760     1.007825032070

  Running in c1 symmetry.

  Rotational constants: A =      0.12416  B =      0.02787  C =      0.02578 [cm^-1]
  Rotational constants: A =   3722.32199  B =    835.42073  C =    772.94949 [MHz]
  Nuclear repulsion =  398.531410652486159

  Charge       = 0
  Multiplicity = 1
  Electrons    = 66
  Nalpha       = 33
  Nbeta        = 33

  ==> Algorithm <==

  SCF Algorithm Type is DF.
  DIIS enabled.
  MOM disabled.
  Fractional occupation disabled.
  Guess Type is READ.
  Energy threshold   = 1.00e-10
  Density threshold  = 1.00e-10
  Integral threshold = 0.00e+00

  ==> Primary Basis <==

  Basis Set: AUG-CC-PVTZ
    Number of shells: 274
    Number of basis function: 782
    Number of Cartesian functions: 890
    Spherical Harmonics?: true
    Max angular momentum: 3

  ==> Pre-Iterations <==

   -------------------------------------------------------
    Irrep   Nso     Nmo     Nalpha   Nbeta   Ndocc  Nsocc
   -------------------------------------------------------
     A        782     782       0       0       0       0
   -------------------------------------------------------
    Total     782     782      33      33      33       0
   -------------------------------------------------------

  ==> Integral Setup <==

  ==> DFJK: Density-Fitted J/K Matrices <==

    J tasked:                  Yes
    K tasked:                  Yes
    wK tasked:                  No
    OpenMP threads:             12
    Integrals threads:          12
    Memory (MB):             42915
    Algorithm:                Core
    Integral Cache:           NONE
    Schwarz Cutoff:          1E-12
    Fitting Condition:       1E-12

   => Auxiliary Basis Set <=

  Basis Set: 
    Number of shells: 492
    Number of basis function: 1660
    Number of Cartesian functions: 2038
    Spherical Harmonics?: true
    Max angular momentum: 4

  Minimum eigenvalue in the overlap matrix is 1.6184943152E-06.
  Using Symmetric Orthogonalization.
  SCF Guess: Reading in previously saved MOs, projecting if necessary.

  Using orbitals from previous SCF, no projection.
  Recomputing DOCC and SOCC from number of alpha and beta electrons from previous calculation.
              A 
    DOCC [    33 ]

  ==> Iterations <==

                           Total Energy        Delta E     RMS |[F,P]|

   @DF-RHF iter   0:  -313.53391589108497   -3.13534e+02   5.38471e-08 
   @DF-RHF iter   1:  -313.53391626341664   -3.72332e-07   1.15542e-08 
   @DF-RHF iter   2:  -313.53391626349247   -7.58291e-11   4.62922e-09 DIIS
   @DF-RHF iter   3:  -313.53391626350361   -1.11413e-11   2.02447e-09 DIIS
   @DF-RHF iter   4:  -313.53391626350702   -3.41061e-12   2.38354e-10 DIIS
   @DF-RHF iter   5:  -313.53391626350623    7.95808e-13   7.66790e-11 DIIS

  ==> Post-Iterations <==

    Orbital Energies (a.u.)
    -----------------------

    Doubly Occupied:                                                      

       1A    -11.213015     2A    -11.213015     3A    -11.211084  
       4A    -11.210833     5A    -11.210457     6A    -11.210081  
       7A    -11.205809     8A    -11.205809     9A     -1.093770  
      10A     -1.057708    11A     -1.004350    12A     -0.953122  
      13A     -0.884894    14A     -0.827119    15A     -0.785751  
      16A     -0.762650    17A     -0.637241    18A     -0.632163  
      19A     -0.611920    20A     -0.586523    21A     -0.586414  
      22A     -0.560008    23A     -0.542028    24A     -0.538358  
      25A     -0.506821    26A     -0.500867    27A     -0.493562  
      28A     -0.471543    29A     -0.467470    30A     -0.465490  
      31A     -0.445533    32A     -0.436389    33A     -0.428706  

    Virtual:                                                              

      34A      0.029297    35A      0.032395    36A      0.034331  
      37A      0.035645    38A      0.046873    39A      0.048164  
      40A      0.048795    41A      0.054028    42A      0.054057  
      43A      0.067349    44A      0.067380    45A      0.071715  
      46A      0.072997    47A      0.077059    48A      0.087702  
      49A      0.091082    50A      0.095590    51A      0.097306  
      52A      0.113024    53A      0.118588    54A      0.122624  
      55A      0.122961    56A      0.129720    57A      0.130850  
      58A      0.132018    59A      0.136874    60A      0.139296  
      61A      0.146742    62A      0.147324    63A      0.151601  
      64A      0.153108    65A      0.154066    66A      0.160722  
      67A      0.165812    68A      0.166413    69A      0.172140  
      70A      0.174735    71A      0.178100    72A      0.180716  
      73A      0.186327    74A      0.195776    75A      0.195783  
      76A      0.203125    77A      0.218599    78A      0.222326  
      79A      0.228210    80A      0.230523    81A      0.237338  
      82A      0.243148    83A      0.246940    84A      0.259302  
      85A      0.261553    86A      0.271038    87A      0.280469  
      88A      0.285680    89A      0.292572    90A      0.294492  
      91A      0.301978    92A      0.302507    93A      0.310077  
      94A      0.313597    95A      0.316201    96A      0.319905  
      97A      0.321508    98A      0.329105    99A      0.330629  
     100A      0.337418   101A      0.344451   102A      0.344981  
     103A      0.350097   104A      0.353284   105A      0.355618  
     106A      0.357526   107A      0.358943   108A      0.365526  
     109A      0.366955   110A      0.368646   111A      0.380028  
     112A      0.381001   113A      0.384104   114A      0.387763  
     115A      0.391319   116A      0.396408   117A      0.404188  
     118A      0.404477   119A      0.406497   120A      0.415259  
     121A      0.420359   122A      0.421022   123A      0.426830  
     124A      0.431992   125A      0.436074   126A      0.437571  
     127A      0.441488   128A      0.446454   129A      0.450897  
     130A      0.455062   131A      0.458026   132A      0.459350  
     133A      0.467193   134A      0.467783   135A      0.468730  
     136A      0.472653   137A      0.475281   138A      0.481541  
     139A      0.483088   140A      0.490162   141A      0.495166  
     142A      0.496398   143A      0.496400   144A      0.503009  
     145A      0.506954   146A      0.510907   147A      0.512683  
     148A      0.520492   149A      0.521687   150A      0.529163  
     151A      0.529498   152A      0.543650   153A      0.544238  
     154A      0.551368   155A      0.559166   156A      0.562152  
     157A      0.565535   158A      0.568301   159A      0.571691  
     160A      0.572430   161A      0.581424   162A      0.583799  
     163A      0.590623   164A      0.595390   165A      0.600233  
     166A      0.602104   167A      0.603653   168A      0.608994  
     169A      0.610314   170A      0.617100   171A      0.622485  
     172A      0.630758   173A      0.634668   174A      0.636093  
     175A      0.644017   176A      0.645094   177A      0.652409  
     178A      0.658825   179A      0.661061   180A      0.662180  
     181A      0.671869   182A      0.675717   183A      0.682123  
     184A      0.685437   185A      0.690940   186A      0.692746  
     187A      0.699510   188A      0.707625   189A      0.712317  
     190A      0.721230   191A      0.724735   192A      0.731372  
     193A      0.734259   194A      0.749322   195A      0.749439  
     196A      0.753687   197A      0.768746   198A      0.777384  
     199A      0.783343   200A      0.788971   201A      0.792855  
     202A      0.804219   203A      0.813530   204A      0.827460  
     205A      0.835131   206A      0.838936   207A      0.846753  
     208A      0.847057   209A      0.856420   210A      0.872145  
     211A      0.872677   212A      0.875472   213A      0.881238  
     214A      0.883317   215A      0.887888   216A      0.893614  
     217A      0.895945   218A      0.898604   219A      0.902248  
     220A      0.914715   221A      0.917349   222A      0.925134  
     223A      0.929036   224A      0.931453   225A      0.933220  
     226A      0.945208   227A      0.951015   228A      0.953444  
     229A      0.959449   230A      0.967252   231A      0.969729  
     232A      0.969884   233A      0.972764   234A      0.981175  
     235A      0.989980   236A      0.991942   237A      0.994347  
     238A      1.002990   239A      1.009562   240A      1.018203  
     241A      1.020564   242A      1.030630   243A      1.036611  
     244A      1.039451   245A      1.041891   246A      1.043424  
     247A      1.048008   248A      1.056005   249A      1.058669  
     250A      1.069556   251A      1.072492   252A      1.076654  
     253A      1.081549   254A      1.088531   255A      1.089582  
     256A      1.095323   257A      1.099037   258A      1.115292  
     259A      1.115791   260A      1.122534   261A      1.123243  
     262A      1.130221   263A      1.143710   264A      1.147663  
     265A      1.148439   266A      1.151363   267A      1.155242  
     268A      1.162917   269A      1.165812   270A      1.174747  
     271A      1.181424   272A      1.186903   273A      1.188935  
     274A      1.190522   275A      1.199000   276A      1.209254  
     277A      1.214485   278A      1.218359   279A      1.227657  
     280A      1.229718   281A      1.237355   282A      1.237825  
     283A      1.239296   284A      1.239313   285A      1.245645  
     286A      1.245671   287A      1.272957   288A      1.273414  
     289A      1.280033   290A      1.284124   291A      1.290576  
[...]
	 Skipping Hessian update for step 16.
	Denominators (dg)(dq) or (dq)(dq) are very small.
	 Skipping Hessian update for step 15.
	Denominators (dg)(dq) or (dq)(dq) are very small.
	 Skipping Hessian update for step 14.
	Denominators (dg)(dq) or (dq)(dq) are very small.
	 Skipping Hessian update for step 13.
	Denominators (dg)(dq) or (dq)(dq) are very small.
	 Skipping Hessian update for step 12.
	Denominators (dg)(dq) or (dq)(dq) are very small.
	 Skipping Hessian update for step 11.
	Denominators (dg)(dq) or (dq)(dq) are very small.
	 Skipping Hessian update for step 10.
	Denominators (dg)(dq) or (dq)(dq) are very small.
	 Skipping Hessian update for step 9.
	Denominators (dg)(dq) or (dq)(dq) are very small.
	 Skipping Hessian update for step 8.
	Denominators (dg)(dq) or (dq)(dq) are very small.
	 Skipping Hessian update for step 7.
	Denominators (dg)(dq) or (dq)(dq) are very small.
	 Skipping Hessian update for step 6.
	Denominators (dg)(dq) or (dq)(dq) are very small.
	 Skipping Hessian update for step 5.
	Denominators (dg)(dq) or (dq)(dq) are very small.
	 Skipping Hessian update for step 4.
	Denominators (dg)(dq) or (dq)(dq) are very small.
	 Skipping Hessian update for step 3.
	Denominators (dg)(dq) or (dq)(dq) are very small.
	 Skipping Hessian update for step 2.
	Steps to be used in Hessian update: 1
	Taking RFO optimization step.
	Going to follow RFO solution 1.
	Rejecting RFO root 1 because normalization gives large value.
	Using RFO vector 2.
	Norm of target step-size    0.00002
	Projected energy change by RFO approximation:         0.0000000000

	Back-transformation to cartesian coordinates...
	Successfully converged to displaced geometry.

	--- Internal Coordinate Step in ANG or DEG, aJ/ANG or AJ/DEG ---
	 ---------------------------------------------------------------------------
	   Coordinate                Previous        Force       Change         New 
	   ----------                --------       ------       ------       ------
	    1 R(1,2)          =      1.090832    -0.000000     0.000000     1.090832
	    2 R(1,3)          =      1.088497     0.000000     0.000000     1.088497
	    3 R(1,4)          =      1.090256     0.000000     0.000000     1.090256
	    4 R(1,9)          =      1.526527     0.000000     0.000000     1.526527
	    5 R(5,6)          =      1.088497     0.000002     0.000000     1.088497
	    6 R(5,7)          =      1.090256     0.000002     0.000000     1.090256
	    7 R(5,8)          =      1.090832     0.000002     0.000000     1.090832
	    8 R(5,12)         =      1.526527    -0.000001    -0.000000     1.526527
	    9 R(9,10)         =      1.091687    -0.000000     0.000000     1.091687
	   10 R(9,11)         =      1.094120     0.000000     0.000000     1.094120
	   11 R(9,15)         =      1.535599     0.000001     0.000000     1.535599
	   12 R(12,13)        =      1.094120     0.000002     0.000000     1.094120
	   13 R(12,14)        =      1.091686     0.000002     0.000000     1.091686
	   14 R(12,24)        =      1.535599     0.000000     0.000000     1.535599
	   15 R(15,16)        =      1.094752    -0.000001    -0.000000     1.094752
	   16 R(15,17)        =      1.092203    -0.000001    -0.000000     1.092203
	   17 R(15,18)        =      1.528859     0.000001     0.000000     1.528859
	   18 R(18,19)        =      1.093750     0.000001    -0.000000     1.093750
	   19 R(18,20)        =      1.094595     0.000001     0.000000     1.094596
	   20 R(18,21)        =      1.524533     0.000000     0.000000     1.524533
	   21 R(21,22)        =      1.094595     0.000003     0.000000     1.094596
	   22 R(21,23)        =      1.093750     0.000003     0.000000     1.093750
	   23 R(21,24)        =      1.528859    -0.000000     0.000000     1.528859
	   24 R(24,25)        =      1.094752     0.000003     0.000000     1.094752
	   25 R(24,26)        =      1.092203     0.000002     0.000000     1.092203
	   26 B(1,9,10)       =    108.235030    -0.000000    -0.000025   108.235006
	   27 B(1,9,11)       =    109.930249    -0.000000    -0.000019   109.930230
	   28 B(1,9,15)       =    113.842585     0.000000     0.000050   113.842636
	   29 B(2,1,3)        =    107.597303     0.000000    -0.000003   107.597301
	   30 B(2,1,4)        =    107.795000     0.000000    -0.000001   107.794999
	   31 B(2,1,9)        =    110.203737    -0.000000    -0.000003   110.203734
	   32 B(3,1,4)        =    107.982562     0.000000     0.000002   107.982563
	   33 B(3,1,9)        =    111.836358    -0.000000     0.000016   111.836374
	   34 B(4,1,9)        =    111.260504     0.000000    -0.000012   111.260492
	   35 B(5,12,13)      =    109.930224    -0.000000     0.000009   109.930233
	   36 B(5,12,14)      =    108.235071    -0.000000    -0.000024   108.235048
	   37 B(5,12,24)      =    113.842541     0.000000     0.000032   113.842573
	   38 B(6,5,7)        =    107.982564     0.000000     0.000003   107.982567
	   39 B(6,5,8)        =    107.597301    -0.000000     0.000001   107.597301
	   40 B(6,5,12)       =    111.836318     0.000000     0.000026   111.836344
	   41 B(7,5,8)        =    107.795012     0.000000    -0.000006   107.795006
	   42 B(7,5,12)       =    111.260548    -0.000000    -0.000027   111.260521
	   43 B(8,5,12)       =    110.203720     0.000000     0.000004   110.203724
	   44 B(9,15,16)      =    109.226730     0.000000     0.000020   109.226750
	   45 B(9,15,17)      =    109.366162     0.000000    -0.000013   109.366149
	   46 B(9,15,18)      =    114.362001    -0.000000    -0.000009   114.361991
	   47 B(10,9,11)      =    106.083209     0.000000    -0.000004   106.083205
	   48 B(10,9,15)      =    109.333703     0.000000     0.000005   109.333707
	   49 B(11,9,15)      =    109.123155    -0.000000    -0.000011   109.123145
	   50 B(12,24,21)     =    114.361912     0.000000     0.000054   114.361967
	   51 B(12,24,25)     =    109.226756    -0.000000    -0.000015   109.226741
	   52 B(12,24,26)     =    109.366201    -0.000000    -0.000026   109.366175
	   53 B(13,12,14)     =    106.083191     0.000000     0.000010   106.083202
	   54 B(13,12,24)     =    109.123145    -0.000000     0.000004   109.123149
	   55 B(14,12,24)     =    109.333762    -0.000000    -0.000034   109.333728
	   56 B(15,18,19)     =    108.288913    -0.000000    -0.000018   108.288895
	   57 B(15,18,20)     =    108.985937    -0.000000    -0.000042   108.985895
	   58 B(15,18,21)     =    114.426083     0.000000     0.000029   114.426111
	   59 B(16,15,17)     =    106.293833    -0.000000    -0.000004   106.293829
	   60 B(16,15,18)     =    109.404653     0.000000     0.000015   109.404668
	   61 B(17,15,18)     =    107.873857     0.000000    -0.000009   107.873849
	   62 B(18,21,22)     =    108.830521    -0.000000    -0.000029   108.830492
	   63 B(18,21,23)     =    109.451615    -0.000000    -0.000010   109.451605
	   64 B(18,21,24)     =    114.426001    -0.000000     0.000005   114.426006
	   65 B(19,18,20)     =    106.568883     0.000000     0.000001   106.568883
	   66 B(19,18,21)     =    109.451554     0.000000     0.000025   109.451579
	   67 B(20,18,21)     =    108.830455     0.000000     0.000004   108.830459
	   68 B(21,24,25)     =    109.404663    -0.000000    -0.000001   109.404662
	   69 B(21,24,26)     =    107.873875    -0.000000    -0.000014   107.873861
	   70 B(22,21,23)     =    106.568927    -0.000000    -0.000001   106.568926
	   71 B(22,21,24)     =    108.985926     0.000000    -0.000007   108.985919
	   72 B(23,21,24)     =    108.288843     0.000000     0.000042   108.288884
	   73 B(25,24,26)     =    106.293836     0.000000    -0.000003   106.293833
	   74 D(1,9,15,16)    =    -28.196778    -0.000000    -0.000238   -28.197016
	   75 D(1,9,15,17)    =   -144.144054    -0.000000    -0.000237  -144.144291
	   76 D(1,9,15,18)    =     94.772055    -0.000000    -0.000209    94.771846
	   77 D(2,1,9,10)     =    -60.784560    -0.000000     0.000203   -60.784357
	   78 D(2,1,9,11)     =   -176.234553     0.000000     0.000232  -176.234321
	   79 D(2,1,9,15)     =     60.998186     0.000000     0.000224    60.998411
	   80 D(3,1,9,10)     =    179.578088    -0.000000     0.000198   179.578286
	   81 D(3,1,9,11)     =     64.128095     0.000000     0.000227    64.128321
	   82 D(3,1,9,15)     =    -58.639165     0.000000     0.000219   -58.638946
	   83 D(4,1,9,10)     =     58.728176    -0.000000     0.000192    58.728368
	   84 D(4,1,9,11)     =    -56.721818     0.000000     0.000221   -56.721596
	   85 D(4,1,9,15)     =   -179.489078     0.000000     0.000214  -179.488864
	   86 D(5,12,24,21)   =     94.772228    -0.000000    -0.000151    94.772077
	   87 D(5,12,24,25)   =    -28.196575    -0.000000    -0.000177   -28.196752
	   88 D(5,12,24,26)   =   -144.143891     0.000000    -0.000151  -144.144042
	   89 D(6,5,12,13)    =     64.128373    -0.000000    -0.000012    64.128361
	   90 D(6,5,12,14)    =    179.578355     0.000000    -0.000007   179.578347
	   91 D(6,5,12,24)    =    -58.638822    -0.000000    -0.000047   -58.638870
	   92 D(7,5,12,13)    =    -56.721546    -0.000000    -0.000014   -56.721560
	   93 D(7,5,12,14)    =     58.728436     0.000000    -0.000010    58.728426
	   94 D(7,5,12,24)    =   -179.488741    -0.000000    -0.000050  -179.488791
	   95 D(8,5,12,13)    =   -176.234315     0.000000     0.000008  -176.234307
	   96 D(8,5,12,14)    =    -60.784334     0.000000     0.000012   -60.784321
	   97 D(8,5,12,24)    =     60.998489    -0.000000    -0.000027    60.998462
	   98 D(9,15,18,19)   =     61.402415     0.000000    -0.000044    61.402370
	   99 D(9,15,18,20)   =    176.954337    -0.000000    -0.000075   176.954262
	  100 D(9,15,18,21)   =    -60.962405    -0.000000    -0.000083   -60.962487
	  101 D(10,9,15,16)   =     92.975622     0.000000    -0.000232    92.975390
	  102 D(10,9,15,17)   =    -22.971654    -0.000000    -0.000231   -22.971885
	  103 D(10,9,15,18)   =   -144.055545     0.000000    -0.000203  -144.055748
	  104 D(11,9,15,16)   =   -151.405006     0.000000    -0.000240  -151.405246
	  105 D(11,9,15,17)   =     92.647718    -0.000000    -0.000239    92.647479
	  106 D(11,9,15,18)   =    -28.436172    -0.000000    -0.000212   -28.436384
	  107 D(12,24,21,18)  =    -60.962540     0.000000     0.000151   -60.962389
	  108 D(12,24,21,22)  =    176.954181     0.000000     0.000190   176.954371
	  109 D(12,24,21,23)  =     61.402250    -0.000000     0.000173    61.402422
	  110 D(13,12,24,21)  =    -28.435927    -0.000000    -0.000189   -28.436117
	  111 D(13,12,24,25)  =   -151.404731    -0.000000    -0.000215  -151.404946
	  112 D(13,12,24,26)  =     92.647953    -0.000000    -0.000189    92.647764
	  113 D(14,12,24,21)  =   -144.055305    -0.000000    -0.000185  -144.055490
	  114 D(14,12,24,25)  =     92.975892    -0.000000    -0.000211    92.975681
	  115 D(14,12,24,26)  =    -22.971424    -0.000000    -0.000185   -22.971609
	  116 D(15,18,21,22)  =    -51.428786     0.000000     0.000043   -51.428743
	  117 D(15,18,21,23)  =     64.673240    -0.000000     0.000020    64.673260
	  118 D(15,18,21,24)  =   -173.596840     0.000000     0.000070  -173.596770
	  119 D(16,15,18,19)  =   -175.725074     0.000000    -0.000013  -175.725087
	  120 D(16,15,18,20)  =    -60.173151    -0.000000    -0.000044   -60.173195
	  121 D(16,15,18,21)  =     61.910107    -0.000000    -0.000052    61.910056
	  122 D(17,15,18,19)  =    -60.502182     0.000000    -0.000015   -60.502197
	  123 D(17,15,18,20)  =     55.049741    -0.000000    -0.000046    55.049695
	  124 D(17,15,18,21)  =    177.132999    -0.000000    -0.000053   177.132946
	  125 D(18,21,24,25)  =     61.909951    -0.000000     0.000170    61.910120
	  126 D(18,21,24,26)  =    177.132860    -0.000000     0.000158   177.133018
	  127 D(19,18,21,22)  =   -173.158809     0.000000     0.000028  -173.158781
	  128 D(19,18,21,23)  =    -57.056783    -0.000000     0.000005   -57.056777
	  129 D(19,18,21,24)  =     64.673137     0.000000     0.000055    64.673192
	  130 D(20,18,21,22)  =     70.739288    -0.000000     0.000011    70.739299
	  131 D(20,18,21,23)  =   -173.158685    -0.000000    -0.000012  -173.158697
	  132 D(20,18,21,24)  =    -51.428766    -0.000000     0.000038   -51.428727
	  133 D(22,21,24,25)  =    -60.173328     0.000000     0.000209   -60.173120
	  134 D(22,21,24,26)  =     55.049581     0.000000     0.000197    55.049778
	  135 D(23,21,24,25)  =   -175.725260    -0.000000     0.000191  -175.725069
	  136 D(23,21,24,26)  =    -60.502351    -0.000000     0.000180   -60.502171
	  137 R(1,21)         =      3.392545    -0.000000    -0.000001     3.392544
	  138 R(5,18)         =      3.392545     0.000000    -0.000002     3.392543
	 ---------------------------------------------------------------------------

  ==> Convergence Check <==

  Measures of convergence in internal coordinates in au.
  Criteria marked as inactive (o), active & met (*), and active & unmet ( ).
  ---------------------------------------------------------------------------------------------
   Step     Total Energy     Delta E     MAX Force     RMS Force      MAX Disp      RMS Disp   
  ---------------------------------------------------------------------------------------------
    Convergence Criteria             o    2.00e-06 *    1.00e-06 *    6.00e-06 *    4.00e-06 *
  ---------------------------------------------------------------------------------------------
     17    -314.97715913    1.54e-10 o    3.65e-07 *    8.59e-08 *    4.19e-06 *    1.88e-06 *  ~
  ---------------------------------------------------------------------------------------------


  **** Optimization is complete! (in 17 steps) ****

  ==> Optimization Summary <==

  Measures of convergence in internal coordinates in au.
  --------------------------------------------------------------------------------------------------------------- ~
   Step         Total Energy             Delta E       MAX Force       RMS Force        MAX Disp        RMS Disp  ~
  --------------------------------------------------------------------------------------------------------------- ~
      1    -314.977159136159   -314.977159136159      0.00000055      0.00000014      0.00002134      0.00000775  ~
      2    -314.977159136025      0.000000000134      0.00000177      0.00000043      0.00005586      0.00001892  ~
      3    -314.977159131685      0.000000004340      0.00000209      0.00000050      0.00007934      0.00002287  ~
      4    -314.977159134164     -0.000000002479      0.00000068      0.00000018      0.00002690      0.00000766  ~
      5    -314.977159133293      0.000000000870      0.00000245      0.00000052      0.00005793      0.00002134  ~
      6    -314.977159138168     -0.000000004874      0.00000207      0.00000061      0.00006743      0.00002364  ~
      7    -314.977159133178      0.000000004990      0.00000204      0.00000050      0.00004745      0.00001708  ~
      8    -314.977159135192     -0.000000002015      0.00000730      0.00000132      0.00008792      0.00002293  ~
      9    -314.977159133940      0.000000001252      0.00000156      0.00000042      0.00005364      0.00002001  ~
     10    -314.977159136213     -0.000000002273      0.00000067      0.00000014      0.00000982      0.00000369  ~
     11    -314.977159135848      0.000000000366      0.00000098      0.00000021      0.00001535      0.00000582  ~
     12    -314.977159132241      0.000000003606      0.00000134      0.00000031      0.00001892      0.00000764  ~
     13    -314.977159134145     -0.000000001904      0.00000077      0.00000017      0.00003722      0.00001231  ~
     14    -314.977159136112     -0.000000001967      0.00000175      0.00000040      0.00004211      0.00001436  ~
     15    -314.977159132761      0.000000003351      0.00000059      0.00000015      0.00002315      0.00000764  ~
     16    -314.977159133734     -0.000000000973      0.00000069      0.00000019      0.00002063      0.00000684  ~
     17    -314.977159133580      0.000000000154      0.00000036      0.00000009      0.00000419      0.00000188  ~
  --------------------------------------------------------------------------------------------------------------- ~

	Writing optimization data to binary file.
	Final energy is   -314.9771591335802
	Final (previous) structure:
	Cartesian Geometry (in Angstrom)
	    C    -3.1255201436   0.8461665480   0.3524445465
	    H    -3.8128399996   0.7720174535  -0.4913608139
	    H    -2.3821842017   1.6021546846   0.1059487954
	    H    -3.6924674533   1.1998755235   1.2139077388
	    C     3.1255503500  -0.8456566540   0.3533959159
	    H     2.3821934864  -1.6019979344   0.1080506209
	    H     3.6925665211  -1.1981239199   1.2153222735
	    H     3.8128018176  -0.7727254556  -0.4905708546
	    C    -2.4844182649  -0.5109121062   0.6310289218
	    H    -3.2776104975  -1.2192103542   0.8778875312
	    H    -1.8476992803  -0.4474566492   1.5185314818
	    C     2.4844722717   0.5118232065   0.6300739470
	    H     1.8478285404   0.4496495215   1.5177208788
	    H     3.2776847094   1.2204773481   0.8758423984
	    C    -1.6593052539  -1.0601208737  -0.5418408979
	    H    -2.0649987491  -0.6712432380  -1.4813453019
	    H    -1.7706797692  -2.1457315824  -0.5860328796
	    C    -0.1653977059  -0.7444454133  -0.4643917762
	    H     0.2364433236  -1.2062069103   0.4420239671
	    H     0.3433247483  -1.2200486020  -1.3088693175
	    C     0.1653574996   0.7437747375  -0.4654815946
	    H    -0.3434384819   1.2181581735  -1.3106005621
	    H    -0.2364017393   1.2068462042   0.4403017572
	    C     1.6592591866   1.0593358421  -0.5435183556
	    H     2.0648700841   0.6690980456  -1.4824939386
	    H     1.7706314756   2.1448810142  -0.5892914359
	Saving final (previous) structure.
			--------------------------
			 OPTKING Finished Execution 
			--------------------------

    Final optimized geometry and variables:
    Molecular point group: c1
    Full point group: C1

    Geometry (in Angstrom), charge = 0, multiplicity = 1:

    C           -3.125520143612     0.846166548044     0.352444546533
    H           -3.812839999591     0.772017453502    -0.491360813860
    H           -2.382184201690     1.602154684595     0.105948795385
    H           -3.692467453309     1.199875523546     1.213907738784
    C            3.125550349955    -0.845656654004     0.353395915893
    H            2.382193486355    -1.601997934411     0.108050620928
    H            3.692566521110    -1.198123919932     1.215322273468
    H            3.812801817640    -0.772725455644    -0.490570854641
    C           -2.484418264898    -0.510912106162     0.631028921838
    H           -3.277610497455    -1.219210354199     0.877887531250
    H           -1.847699280289    -0.447456649206     1.518531481788
    C            2.484472271660     0.511823206477     0.630073947048
    H            1.847828540418     0.449649521519     1.517720878791
    H            3.277684709415     1.220477348115     0.875842398376
    C           -1.659305253931    -1.060120873682    -0.541840897890
    H           -2.064998749142    -0.671243237959    -1.481345301886
    H           -1.770679769238    -2.145731582377    -0.586032879594
    C           -0.165397705927    -0.744445413330    -0.464391776185
    H            0.236443323606    -1.206206910303     0.442023967121
    H            0.343324748341    -1.220048602033    -1.308869317492
    C            0.165357499605     0.743774737456    -0.465481594605
    H           -0.343438481878     1.218158173495    -1.310600562062
    H           -0.236401739319     1.206846204201     0.440301757196
    C            1.659259186587     1.059335842120    -0.543518355628
    H            2.064870084127     0.669098045600    -1.482493938645
    H            1.770631475649     2.144881014222    -0.589291435936

	Cleaning optimization helper files.

*** Psi4 exiting successfully. Buy a developer a beer!
