    -----------------------------------------------------------------------
          Psi4: An Open-Source Ab Initio Electronic Structure Package
                              Psi4 1.0.0 Driver

                          Git: Rev {master} 6a9a71b dirty

    J. M. Turney, A. C. Simmonett, R. M. Parrish, E. G. Hohenstein,
    F. A. Evangelista, J. T. Fermann, B. J. Mintz, L. A. Burns, J. J. Wilke,
    M. L. Abrams, N. J. Russ, M. L. Leininger, C. L. Janssen, E. T. Seidl,
    W. D. Allen, H. F. Schaefer, R. A. King, E. F. Valeev, C. D. Sherrill,
    and T. D. Crawford, WIREs Comput. Mol. Sci. 2, 556-565 (2012)
    (doi: 10.1002/wcms.93)

                         Additional Contributions by
    A. E. DePrince, U. Bozkaya, A. Yu. Sokolov, D. G. A. Smith, R. Di Remigio,
    R. M. Richard, J. F. Gonthier, H. R. McAlexander, M. Saitow, and
    B. P. Pritchard
    -----------------------------------------------------------------------


    Psi4 started on: Tue Sep 20 16:43:06 2016

    Process ID:  22525
    PSI4DATADIR: /usr/local/hpc5/psi4conda/share/psi4
    Memory level set to 256.000 MB

  ==> Input File <==

--------------------------------------------------------------------------
memory 30 Gb

molecule molecule_34_psi {
0 1
symmetry c1
    C           -3.396107033549    -1.157125798651     0.096271747088
    H           -3.462105789489    -2.204809422215     0.380487371683
    H           -3.914503471365    -1.031729562275    -0.852668279425
    H           -3.927894714594    -0.571849780626     0.844523166518
    C            3.374043264549    -1.184249058860    -0.251917143567
    H            2.792802339107    -2.021809936488    -0.633643056241
    H            3.721288835338    -1.449394800207     0.745269210401
    H            4.246244419979    -1.061693247123    -0.889958181903
    C           -1.954234753538    -0.696655175347    -0.015013941727
    H           -1.428100429879    -1.303468476964    -0.754584890189
    H           -1.448501239839    -0.857812124522     0.937040416984
    C            2.529883906849     0.075544913502    -0.207393720137
    H            3.132506767467     0.913464975020     0.147579890521
    H            2.204237343745     0.333667929887    -1.215699409090
    C           -1.854509204658     0.765962234153    -0.407404725528
    H           -2.354230369386     1.369231780098     0.355000576823
    H           -2.409719318776     0.917939975530    -1.335588913402
    C           -0.432946363581     1.277599403209    -0.583595342658
    H           -0.477175561453     2.318683058126    -0.903127202617
    H            0.043743585067     0.728396390948    -1.398377332000
    C            0.418748734442     1.155442524919     0.682075707681
    H            1.047596429533     2.040335302588     0.792999080696
    H           -0.242623767897     1.139721609869     1.550637313564
    C            1.320119913905    -0.072246708294     0.697511999276
    H            1.665722774166    -0.264189810332     1.715334643198
    H            0.751196308769    -0.950646407231     0.389342150062
}

set globals {
  reference rhf
  g_convergence gau_verytight
  basis aug-cc-pvtz
  freeze_core true
  scf_type df
  mp_type df
}
optimize('mp2')
--------------------------------------------------------------------------
/usr/local/hpc5/psi4conda/lib/python2.7/site-packages/v2rdm_casscf/v2rdm_casscf.so loaded.

  Memory set to  30.000 GiB by Python script.
gradient() will perform analytic gradient computation.

*** tstart() called on wr31
*** at Tue Sep 20 16:43:06 2016


         ---------------------------------------------------------
                                   SCF
            by Justin Turney, Rob Parrish, and Andy Simmonett
                              RHF Reference
                       12 Threads,  30000 MiB Core
         ---------------------------------------------------------

  ==> Geometry <==

    Molecular point group: c1
    Full point group: C1

    Geometry (in Angstrom), charge = 0, multiplicity = 1:

       Center              X                  Y                   Z               Mass       
    ------------   -----------------  -----------------  -----------------  -----------------
           C         -3.396107033549    -1.157125798651     0.096271747088    12.000000000000
           H         -3.462105789489    -2.204809422215     0.380487371683     1.007825032070
           H         -3.914503471365    -1.031729562275    -0.852668279425     1.007825032070
           H         -3.927894714594    -0.571849780626     0.844523166518     1.007825032070
           C          3.374043264549    -1.184249058860    -0.251917143567    12.000000000000
           H          2.792802339107    -2.021809936488    -0.633643056241     1.007825032070
           H          3.721288835338    -1.449394800207     0.745269210401     1.007825032070
           H          4.246244419979    -1.061693247123    -0.889958181903     1.007825032070
           C         -1.954234753538    -0.696655175347    -0.015013941727    12.000000000000
           H         -1.428100429879    -1.303468476964    -0.754584890189     1.007825032070
           H         -1.448501239839    -0.857812124522     0.937040416984     1.007825032070
           C          2.529883906849     0.075544913502    -0.207393720137    12.000000000000
           H          3.132506767467     0.913464975020     0.147579890521     1.007825032070
           H          2.204237343745     0.333667929887    -1.215699409090     1.007825032070
           C         -1.854509204658     0.765962234153    -0.407404725528    12.000000000000
           H         -2.354230369386     1.369231780098     0.355000576823     1.007825032070
           H         -2.409719318776     0.917939975530    -1.335588913402     1.007825032070
           C         -0.432946363581     1.277599403209    -0.583595342658    12.000000000000
           H         -0.477175561453     2.318683058126    -0.903127202617     1.007825032070
           H          0.043743585067     0.728396390948    -1.398377332000     1.007825032070
           C          0.418748734442     1.155442524919     0.682075707681    12.000000000000
           H          1.047596429533     2.040335302588     0.792999080696     1.007825032070
           H         -0.242623767897     1.139721609869     1.550637313564     1.007825032070
           C          1.320119913905    -0.072246708294     0.697511999276    12.000000000000
           H          1.665722774166    -0.264189810332     1.715334643198     1.007825032070
           H          0.751196308769    -0.950646407231     0.389342150062     1.007825032070

  Running in c1 symmetry.

  Rotational constants: A =      0.11254  B =      0.02726  C =      0.02421 [cm^-1]
  Rotational constants: A =   3373.85571  B =    817.16829  C =    725.80766 [MHz]
  Nuclear repulsion =  396.152546914631444

  Charge       = 0
  Multiplicity = 1
  Electrons    = 66
  Nalpha       = 33
  Nbeta        = 33

  ==> Algorithm <==

  SCF Algorithm Type is DF.
  DIIS enabled.
  MOM disabled.
  Fractional occupation disabled.
  Guess Type is SAD.
  Energy threshold   = 1.00e-10
  Density threshold  = 1.00e-10
  Integral threshold = 0.00e+00

  ==> Primary Basis <==

  Basis Set: AUG-CC-PVTZ
    Number of shells: 274
    Number of basis function: 782
    Number of Cartesian functions: 890
    Spherical Harmonics?: true
    Max angular momentum: 3

  ==> Pre-Iterations <==

   -------------------------------------------------------
    Irrep   Nso     Nmo     Nalpha   Nbeta   Ndocc  Nsocc
   -------------------------------------------------------
     A        782     782       0       0       0       0
   -------------------------------------------------------
    Total     782     782      33      33      33       0
   -------------------------------------------------------

  ==> Integral Setup <==

  ==> DFJK: Density-Fitted J/K Matrices <==

    J tasked:                  Yes
    K tasked:                  Yes
    wK tasked:                  No
    OpenMP threads:             12
    Integrals threads:          12
    Memory (MB):             21457
    Algorithm:                Core
    Integral Cache:           NONE
    Schwarz Cutoff:          1E-12
    Fitting Condition:       1E-12

   => Auxiliary Basis Set <=

  Basis Set: 
    Number of shells: 492
    Number of basis function: 1660
    Number of Cartesian functions: 2038
    Spherical Harmonics?: true
    Max angular momentum: 4

  Minimum eigenvalue in the overlap matrix is 1.8699622316E-06.
  Using Symmetric Orthogonalization.
  SCF Guess: Superposition of Atomic Densities via on-the-fly atomic UHF.

  ==> Iterations <==

                           Total Energy        Delta E     RMS |[F,P]|

   @DF-RHF iter   0:  -317.04685359499183   -3.17047e+02   7.08228e-03 
   @DF-RHF iter   1:  -313.29900025282666    3.74785e+00   7.04448e-04 
   @DF-RHF iter   2:  -313.50651486819686   -2.07515e-01   2.57773e-04 DIIS
   @DF-RHF iter   3:  -313.53326407805719   -2.67492e-02   1.02617e-04 DIIS
   @DF-RHF iter   4:  -313.53839365904969   -5.12958e-03   1.67735e-05 DIIS
   @DF-RHF iter   5:  -313.53855792704792   -1.64268e-04   5.37461e-06 DIIS
   @DF-RHF iter   6:  -313.53857241495984   -1.44879e-05   1.16328e-06 DIIS
   @DF-RHF iter   7:  -313.53857327805179   -8.63092e-07   2.25079e-07 DIIS
   @DF-RHF iter   8:  -313.53857331239112   -3.43393e-08   6.21650e-08 DIIS
   @DF-RHF iter   9:  -313.53857331462495   -2.23383e-09   1.70909e-08 DIIS
   @DF-RHF iter  10:  -313.53857331481731   -1.92358e-10   4.91232e-09 DIIS
   @DF-RHF iter  11:  -313.53857331483391   -1.65983e-11   1.13798e-09 DIIS
   @DF-RHF iter  12:  -313.53857331483448   -5.68434e-13   3.13177e-10 DIIS
   @DF-RHF iter  13:  -313.53857331483391    5.68434e-13   9.73485e-11 DIIS

  ==> Post-Iterations <==

    Orbital Energies (a.u.)
    -----------------------

    Doubly Occupied:                                                      

       1A    -11.210499     2A    -11.209781     3A    -11.208978  
       4A    -11.208553     5A    -11.207981     6A    -11.207222  
       7A    -11.205727     8A    -11.205422     9A     -1.097842  
      10A     -1.062443    11A     -1.011062    12A     -0.951352  
      13A     -0.878486    14A     -0.831074    15A     -0.788352  
      16A     -0.764533    17A     -0.643864    18A     -0.637339  
      19A     -0.605126    20A     -0.596358    21A     -0.577532  
      22A     -0.563462    23A     -0.550310    24A     -0.530818  
      25A     -0.511423    26A     -0.502994    27A     -0.488830  
      28A     -0.473671    29A     -0.468207    30A     -0.462746  
      31A     -0.444486    32A     -0.437451    33A     -0.436594  

    Virtual:                                                              

      34A      0.029885    35A      0.033134    36A      0.033886  
      37A      0.035130    38A      0.045619    39A      0.048430  
      40A      0.049781    41A      0.053867    42A      0.054350  
      43A      0.067015    44A      0.068380    45A      0.070922  
      46A      0.073911    47A      0.079305    48A      0.083623  
      49A      0.088387    50A      0.098002    51A      0.102647  
      52A      0.113779    53A      0.115560    54A      0.119968  
      55A      0.120364    56A      0.128155    57A      0.130562  
      58A      0.133593    59A      0.138951    60A      0.144632  
      61A      0.147979    62A      0.148918    63A      0.151898  
      64A      0.154662    65A      0.157564    66A      0.160319  
      67A      0.162823    68A      0.168764    69A      0.172083  
      70A      0.175440    71A      0.181320    72A      0.186742  
      73A      0.187526    74A      0.190375    75A      0.197327  
      76A      0.200517    77A      0.218443    78A      0.220461  
      79A      0.230665    80A      0.235713    81A      0.239775  
      82A      0.246237    83A      0.255476    84A      0.257384  
      85A      0.263126    86A      0.267866    87A      0.272082  
      88A      0.276885    89A      0.283548    90A      0.289018  
      91A      0.297104    92A      0.303542    93A      0.307059  
      94A      0.315011    95A      0.317121    96A      0.320207  
      97A      0.323320    98A      0.332591    99A      0.336305  
     100A      0.336966   101A      0.341136   102A      0.344880  
     103A      0.352043   104A      0.353574   105A      0.358141  
     106A      0.363825   107A      0.364223   108A      0.366204  
     109A      0.369360   110A      0.374722   111A      0.379816  
     112A      0.381737   113A      0.385214   114A      0.389065  
     115A      0.392456   116A      0.394584   117A      0.396439  
     118A      0.399082   119A      0.401418   120A      0.404675  
     121A      0.413442   122A      0.419334   123A      0.423775  
     124A      0.428265   125A      0.431409   126A      0.435696  
     127A      0.439505   128A      0.443823   129A      0.444842  
     130A      0.449957   131A      0.456021   132A      0.460500  
     133A      0.463982   134A      0.465123   135A      0.470071  
     136A      0.473141   137A      0.478671   138A      0.480445  
     139A      0.483164   140A      0.488010   141A      0.496845  
     142A      0.501083   143A      0.501892   144A      0.505751  
     145A      0.507566   146A      0.507984   147A      0.512566  
     148A      0.516775   149A      0.518503   150A      0.525231  
     151A      0.528370   152A      0.531358   153A      0.535492  
     154A      0.541281   155A      0.549008   156A      0.552048  
     157A      0.554651   158A      0.558589   159A      0.565684  
     160A      0.569701   161A      0.572218   162A      0.579150  
     163A      0.580664   164A      0.585674   165A      0.594627  
     166A      0.600806   167A      0.605266   168A      0.611147  
     169A      0.613123   170A      0.619363   171A      0.622512  
     172A      0.629444   173A      0.633251   174A      0.635546  
     175A      0.638893   176A      0.644516   177A      0.652539  
     178A      0.657461   179A      0.662230   180A      0.665635  
     181A      0.667192   182A      0.671132   183A      0.680772  
     184A      0.684899   185A      0.689255   186A      0.693947  
     187A      0.701571   188A      0.711636   189A      0.717237  
     190A      0.720475   191A      0.726399   192A      0.733250  
     193A      0.741480   194A      0.753214   195A      0.758521  
     196A      0.766934   197A      0.778500   198A      0.781021  
     199A      0.785029   200A      0.788395   201A      0.805802  
     202A      0.813571   203A      0.817333   204A      0.823347  
     205A      0.834318   206A      0.837598   207A      0.844873  
     208A      0.848986   209A      0.854135   210A      0.859468  
     211A      0.861385   212A      0.871150   213A      0.875531  
     214A      0.879183   215A      0.884901   216A      0.890372  
     217A      0.893462   218A      0.903869   219A      0.907881  
     220A      0.913298   221A      0.918125   222A      0.920529  
     223A      0.922077   224A      0.931217   225A      0.934047  
     226A      0.939154   227A      0.943320   228A      0.953552  
     229A      0.955156   230A      0.961504   231A      0.966103  
     232A      0.968852   233A      0.973998   234A      0.979168  
     235A      0.984097   236A      0.986863   237A      0.987865  
     238A      0.997952   239A      1.006054   240A      1.009024  
     241A      1.016818   242A      1.022581   243A      1.027634  
     244A      1.028366   245A      1.036840   246A      1.038791  
     247A      1.042607   248A      1.044873   249A      1.052122  
     250A      1.060300   251A      1.066708   252A      1.072966  
     253A      1.076430   254A      1.082144   255A      1.086398  
     256A      1.090111   257A      1.099297   258A      1.108913  
     259A      1.111264   260A      1.119173   261A      1.127132  
     262A      1.131534   263A      1.134316   264A      1.139316  
     265A      1.143172   266A      1.146879   267A      1.148508  
     268A      1.152133   269A      1.161116   270A      1.165944  
     271A      1.172640   272A      1.175457   273A      1.179863  
     274A      1.184233   275A      1.196633   276A      1.197493  
     277A      1.204877   278A      1.205260   279A      1.211345  
     280A      1.213582   281A      1.226764   282A      1.228588  
     283A      1.235611   284A      1.239294   285A      1.243670  
     286A      1.255822   287A      1.262692   288A      1.267348  
     289A      1.268808   290A      1.274992   291A      1.281310  
     292A      1.283108   293A      1.285932   294A      1.293026  
     295A      1.305248   296A      1.306458   297A      1.312543  
     298A      1.317603   299A      1.330577   300A      1.332042  
     301A      1.333271   302A      1.345241   303A      1.351401  
     304A      1.362882   305A      1.364897   306A      1.369294  
     307A      1.370763   308A      1.382054   309A      1.389776  
     310A      1.394653   311A      1.410634   312A      1.414679  
     313A      1.418722   314A      1.433714   315A      1.437269  
     316A      1.446337   317A      1.450784   318A      1.460857  
     319A      1.465163   320A      1.479155   321A      1.487778  
     322A      1.493276   323A      1.499794   324A      1.501815  
     325A      1.509422   326A      1.524818   327A      1.534168  
     328A      1.536658   329A      1.538637   330A      1.558408  
     331A      1.558589   332A      1.573091   333A      1.581281  
     334A      1.583445   335A      1.586444   336A      1.594197  
     337A      1.602110   338A      1.613092   339A      1.620381  
     340A      1.622471   341A      1.626688   342A      1.631650  
     343A      1.642051   344A      1.645940   345A      1.658462  
     346A      1.664241   347A      1.671364   348A      1.676681  
     349A      1.682575   350A      1.688117   351A      1.695072  
     352A      1.698160   353A      1.705132   354A      1.712483  
     355A      1.721236   356A      1.727314   357A      1.729689  
     358A      1.739951   359A      1.740715   360A      1.745727  
     361A      1.752445   362A      1.754482   363A      1.763154  
     364A      1.765914   365A      1.772887   366A      1.779296  
     367A      1.785193   368A      1.788888   369A      1.795268  
     370A      1.797753   371A      1.806796   372A      1.814642  
     373A      1.822149   374A      1.825911   375A      1.832877  
     376A      1.840162   377A      1.844026   378A      1.847693  
     379A      1.857252   380A      1.863495   381A      1.872222  
     382A      1.875665   383A      1.882949   384A      1.888191  
     385A      1.896636   386A      1.902709   387A      1.908301  
     388A      1.911464   389A      1.917968   390A      1.921392  
     391A      1.934388   392A      1.942885   393A      1.947777  
     394A      1.952510   395A      1.962932   396A      1.970606  
     397A      1.973361   398A      1.989203   399A      1.992279  
     400A      1.996470   401A      2.004181   402A      2.016190  
     403A      2.017553   404A      2.022173   405A      2.030240  
     406A      2.037819   407A      2.046585   408A      2.051794  
     409A      2.066345   410A      2.070156   411A      2.075898  
     412A      2.084911   413A      2.091072   414A      2.095299  
     415A      2.112940   416A      2.121086   417A      2.123090  
     418A      2.133249   419A      2.142660   420A      2.151517  
     421A      2.158290   422A      2.173407   423A      2.175864  
     424A      2.181699   425A      2.189377   426A      2.193637  
     427A      2.205937   428A      2.212180   429A      2.225017  
     430A      2.228746   431A      2.242358   432A      2.245883  
     433A      2.254764   434A      2.254980   435A      2.265724  
     436A      2.271379   437A      2.282646   438A      2.295450  
     439A      2.298449   440A      2.308783   441A      2.315151  
     442A      2.317315   443A      2.330393   444A      2.344796  
     445A      2.353370   446A      2.356463   447A      2.362023  
     448A      2.378538   449A      2.392402   450A      2.396132  
     451A      2.412529   452A      2.413048   453A      2.429600  
     454A      2.441920   455A      2.450720   456A      2.463288  
     457A      2.468138   458A      2.477068   459A      2.481209  
     460A      2.496130   461A      2.499513   462A      2.515958  
     463A      2.530413   464A      2.542199   465A      2.557937  
     466A      2.566631   467A      2.569924   468A      2.579558  
     469A      2.594533   470A      2.608605   471A      2.627258  
     472A      2.633365   473A      2.652891   474A      2.668664  
     475A      2.677267   476A      2.689896   477A      2.715523  
     478A      2.731670   479A      2.765485   480A      2.773368  
     481A      2.790912   482A      2.813605   483A      2.868391  
     484A      2.875728   485A      2.942611   486A      2.975892  
     487A      3.031870   488A      3.059170   489A      3.090527  
     490A      3.121349   491A      3.183026   492A      3.247355  
     493A      3.290994   494A      3.321946   495A      3.348019  
     496A      3.406264   497A      3.454274   498A      3.456513  
     499A      3.474781   500A      3.485970   501A      3.494567  
     502A      3.499536   503A      3.513634   504A      3.520334  
     505A      3.537378   506A      3.551777   507A      3.566372  
     508A      3.570593   509A      3.581549   510A      3.586233  
     511A      3.593279   512A      3.621706   513A      3.626800  
     514A      3.638641   515A      3.651294   516A      3.661392  
     517A      3.666625   518A      3.674723   519A      3.679484  
     520A      3.699014   521A      3.703651   522A      3.709653  
     523A      3.718361   524A      3.724293   525A      3.733787  
     526A      3.755345   527A      3.764407   528A      3.773365  
     529A      3.779186   530A      3.783011   531A      3.787389  
     532A      3.791520   533A      3.795898   534A      3.802825  
     535A      3.814442   536A      3.835584   537A      3.838911  
     538A      3.849995   539A      3.863214   540A      3.873522  
     541A      3.882947   542A      3.886472   543A      3.895087  
     544A      3.897399   545A      3.910079   546A      3.917332  
     547A      3.930265   548A      3.931993   549A      3.935430  
     550A      3.950796   551A      3.958919   552A      3.966609  
     553A      3.967678   554A      3.974737   555A      3.979447  
     556A      3.987931   557A      3.991082   558A      3.998300  
     559A      4.009095   560A      4.019464   561A      4.025650  
     562A      4.027270   563A      4.041414   564A      4.051949  
     565A      4.055770   566A      4.060890   567A      4.068761  
     568A      4.082374   569A      4.090702   570A      4.095866  
     571A      4.099744   572A      4.109569   573A      4.121553  
     574A      4.125553   575A      4.140410   576A      4.143502  
     577A      4.155641   578A      4.171073   579A      4.174269  
     580A      4.183862   581A      4.196861   582A      4.202308  
     583A      4.219506   584A      4.237232   585A      4.248866  
     586A      4.252734   587A      4.257527   588A      4.264101  
     589A      4.274441   590A      4.282763   591A      4.288856  
     592A      4.299153   593A      4.316977   594A      4.320571  
     595A      4.326826   596A      4.333399   597A      4.348086  
     598A      4.351442   599A      4.361782   600A      4.377157  
     601A      4.402154   602A      4.406462   603A      4.424078  
     604A      4.429754   605A      4.438326   606A      4.450688  
     607A      4.460479   608A      4.463047   609A      4.473331  
     610A      4.488662   611A      4.503739   612A      4.514161  
     613A      4.525630   614A      4.545242   615A      4.570273  
     616A      4.582547   617A      4.600830   618A      4.615089  
     619A      4.619438   620A      4.636985   621A      4.644814  
     622A      4.665545   623A      4.677416   624A      4.684064  
     625A      4.703667   626A      4.714857   627A      4.722538  
     628A      4.728650   629A      4.733860   630A      4.737877  
     631A      4.754247   632A      4.769585   633A      4.782224  
     634A      4.794881   635A      4.796757   636A      4.809075  
     637A      4.820210   638A      4.823174   639A      4.835046  
     640A      4.847019   641A      4.855071   642A      4.862613  
     643A      4.872593   644A      4.876872   645A      4.884423  
     646A      4.889895   647A      4.905102   648A      4.908401  
     649A      4.919469   650A      4.922733   651A      4.952527  
     652A      4.966908   653A      4.972560   654A      4.996018  
     655A      5.003059   656A      5.010184   657A      5.025304  
     658A      5.049621   659A      5.059363   660A      5.080710  
     661A      5.086266   662A      5.098181   663A      5.107921  
     664A      5.122918   665A      5.140438   666A      5.141856  
     667A      5.175264   668A      5.176949   669A      5.185936  
     670A      5.194581   671A      5.216594   672A      5.219122  
     673A      5.228638   674A      5.246034   675A      5.248572  
     676A      5.255287   677A      5.278446   678A      5.281586  
     679A      5.286955   680A      5.302688   681A      5.309484  
     682A      5.324849   683A      5.348815   684A      5.356357  
     685A      5.364802   686A      5.377271   687A      5.379622  
     688A      5.394696   689A      5.397866   690A      5.413444  
     691A      5.421530   692A      5.434621   693A      5.436854  
     694A      5.442016   695A      5.458512   696A      5.466792  
     697A      5.484955   698A      5.497319   699A      5.498732  
     700A      5.510914   701A      5.513415   702A      5.537778  
     703A      5.546961   704A      5.553871   705A      5.570528  
     706A      5.604519   707A      5.614757   708A      5.633508  
     709A      5.641032   710A      5.650873   711A      5.658101  
     712A      5.669023   713A      5.675792   714A      5.692272  
     715A      5.709725   716A      5.720664   717A      5.736660  
     718A      5.741662   719A      5.749394   720A      5.766743  
     721A      5.774413   722A      5.788671   723A      5.800218  
     724A      5.816853   725A      5.818709   726A      5.838431  
     727A      5.865441   728A      5.873485   729A      5.886488  
     730A      5.899699   731A      5.940669   732A      5.965892  
     733A      5.998753   734A      6.018632   735A      6.044785  
     736A      6.048060   737A      6.075462   738A      6.097849  
     739A      6.122616   740A      6.125396   741A      6.159154  
     742A      6.184906   743A      6.220790   744A      6.224361  
     745A      6.238728   746A      6.250024   747A      6.275350  
     748A      6.279943   749A      6.291219   750A      6.302199  
     751A      6.311877   752A      6.339093   753A      6.347735  
     754A      6.355202   755A      6.403152   756A      6.413886  
     757A      6.457437   758A      6.513089   759A      6.569714  
     760A      6.632556   761A      6.671655   762A      6.709328  
     763A      6.748938   764A      6.800585   765A      6.809020  
     766A      6.822049   767A      6.880744   768A      6.890296  
     769A      6.913442   770A      6.936430   771A      7.028033  
     772A      7.059439   773A      7.116612   774A      7.136259  
     775A     18.243781   776A     18.327766   777A     18.460264  
     778A     18.697581   779A     18.805846   780A     19.151528  
     781A     19.667753   782A     19.996221  

    Final Occupation by Irrep:
              A 
    DOCC [    33 ]

  Energy converged.

  @DF-RHF Final Energy:  -313.53857331483391

   => Energetics <=

    Nuclear Repulsion Energy =            396.1525469146314435
    One-Electron Energy =               -1207.4212061808948420
    Two-Electron Energy =                 497.7300859514296008
    DFT Exchange-Correlation Energy =       0.0000000000000000
    Empirical Dispersion Energy =           0.0000000000000000
    PCM Polarization Energy =               0.0000000000000000
    EFP Energy =                            0.0000000000000000
    Total Energy =                       -313.5385733148337977


  Saving occupied orbitals to File 180.

*** tstop() called on wr31 at Tue Sep 20 16:44:40 2016
Module time:
	user time   =     970.64 seconds =      16.18 minutes
	system time =      12.12 seconds =       0.20 minutes
	total time  =         94 seconds =       1.57 minutes
Total time:
	user time   =     970.64 seconds =      16.18 minutes
	system time =      12.12 seconds =       0.20 minutes
	total time  =         94 seconds =       1.57 minutes


Properties will be evaluated at   0.000000,   0.000000,   0.000000 Bohr

Properties computed using the SCF density matrix

  Nuclear Dipole Moment: (a.u.)
     X:    -0.0558      Y:    -1.8337      Z:    -0.1176

  Electronic Dipole Moment: (a.u.)
     X:     0.0646      Y:     1.8630      Z:     0.1165

  Dipole Moment: (a.u.)
     X:     0.0088      Y:     0.0293      Z:    -0.0011     Total:     0.0306

  Dipole Moment: (Debye)
     X:     0.0223      Y:     0.0745      Z:    -0.0027     Total:     0.0778


  //>>>>>>>>>>>>>>>>>>>>>>>>>>>>>>>>>>>//
  //               DFMP2               //
  //<<<<<<<<<<<<<<<<<<<<<<<<<<<<<<<<<<<//


*** tstart() called on wr31
*** at Tue Sep 20 16:44:40 2016


*** tstop() called on wr31 at Tue Sep 20 16:44:40 2016
Module time:
	user time   =       3.22 seconds =       0.05 minutes
	system time =       0.16 seconds =       0.00 minutes
	total time  =          0 seconds =       0.00 minutes
Total time:
	user time   =     974.78 seconds =      16.25 minutes
	system time =      12.33 seconds =       0.21 minutes
	total time  =         94 seconds =       1.57 minutes
	 --------------------------------------------------------
	                          DF-MP2                         
	      2nd-Order Density-Fitted Moller-Plesset Theory     
	              RMP2 Wavefunction,  12 Threads             
	                                                         
	        Rob Parrish, Justin Turney, Andy Simmonett,      
	           Ed Hohenstein, and C. David Sherrill          
	 --------------------------------------------------------

   => Auxiliary Basis Set <=

  Basis Set: 
    Number of shells: 476
    Number of basis function: 1676
    Number of Cartesian functions: 2078
    Spherical Harmonics?: true
    Max angular momentum: 4

	 --------------------------------------------------------
	                 NBF =   782, NAUX =  1676
	 --------------------------------------------------------
	   CLASS    FOCC     OCC    AOCC    AVIR     VIR    FVIR
	   PAIRS       8      33      25     749     749       0
	 --------------------------------------------------------

DGAS Warning! /src/lib/libfock/apps.cc:80 is not currently checking restricted

         ------------------------------------------------------------
                                     CPHF                           
                                  Rob Parrish                       
         ------------------------------------------------------------

  ==> Geometry <==

    Molecular point group: c1
    Full point group: C1

    Geometry (in Angstrom), charge = 0, multiplicity = 1:

       Center              X                  Y                   Z               Mass       
    ------------   -----------------  -----------------  -----------------  -----------------
           C         -3.396107033549    -1.157125798651     0.096271747088    12.000000000000
           H         -3.462105789489    -2.204809422215     0.380487371683     1.007825032070
           H         -3.914503471365    -1.031729562275    -0.852668279425     1.007825032070
           H         -3.927894714594    -0.571849780626     0.844523166518     1.007825032070
           C          3.374043264549    -1.184249058860    -0.251917143567    12.000000000000
           H          2.792802339107    -2.021809936488    -0.633643056241     1.007825032070
           H          3.721288835338    -1.449394800207     0.745269210401     1.007825032070
           H          4.246244419979    -1.061693247123    -0.889958181903     1.007825032070
           C         -1.954234753538    -0.696655175347    -0.015013941727    12.000000000000
           H         -1.428100429879    -1.303468476964    -0.754584890189     1.007825032070
           H         -1.448501239839    -0.857812124522     0.937040416984     1.007825032070
           C          2.529883906849     0.075544913502    -0.207393720137    12.000000000000
           H          3.132506767467     0.913464975020     0.147579890521     1.007825032070
           H          2.204237343745     0.333667929887    -1.215699409090     1.007825032070
           C         -1.854509204658     0.765962234153    -0.407404725528    12.000000000000
           H         -2.354230369386     1.369231780098     0.355000576823     1.007825032070
           H         -2.409719318776     0.917939975530    -1.335588913402     1.007825032070
           C         -0.432946363581     1.277599403209    -0.583595342658    12.000000000000
           H         -0.477175561453     2.318683058126    -0.903127202617     1.007825032070
           H          0.043743585067     0.728396390948    -1.398377332000     1.007825032070
           C          0.418748734442     1.155442524919     0.682075707681    12.000000000000
           H          1.047596429533     2.040335302588     0.792999080696     1.007825032070
           H         -0.242623767897     1.139721609869     1.550637313564     1.007825032070
           C          1.320119913905    -0.072246708294     0.697511999276    12.000000000000
           H          1.665722774166    -0.264189810332     1.715334643198     1.007825032070
           H          0.751196308769    -0.950646407231     0.389342150062     1.007825032070

  Nuclear repulsion =  396.152546914631444
  Reference energy  = -313.538573314833911

  ==> Basis Set <==

  Basis Set: AUG-CC-PVTZ
    Number of shells: 274
    Number of basis function: 782
    Number of Cartesian functions: 890
    Spherical Harmonics?: true
    Max angular momentum: 3

  ==> CGRSolver (by Rob Parrish) <==

   Number of roots    =         1
   Preconditioning    =    JACOBI
   Convergence cutoff =     1E-06
   Maximum iterations =       100

  ==> CPHFRHamiltonian (by Rob Parrish) <== 

  ==> DFJK: Density-Fitted J/K Matrices <==

    J tasked:                  Yes
    K tasked:                  Yes
    wK tasked:                  No
    OpenMP threads:             12
    Integrals threads:          12
    Memory (MB):             21457
    Algorithm:                Core
    Integral Cache:           NONE
    Schwarz Cutoff:          1E-12
    Fitting Condition:       1E-12

   => Auxiliary Basis Set <=

  Basis Set: 
    Number of shells: 492
    Number of basis function: 1660
    Number of Cartesian functions: 2038
    Spherical Harmonics?: true
    Max angular momentum: 4

  ==> CPHF Iterations <==

  => Iterations <=

             Iter  Converged  Remaining    Residual
  CGR           1          0          1   9.048E-02
  CGR           2          0          1   1.305E-02
  CGR           3          0          1   3.830E-03
  CGR           4          0          1   8.543E-04
  CGR           5          0          1   1.921E-04
  CGR           6          0          1   5.063E-05
  CGR           7          0          1   1.453E-05
  CGR           8          0          1   3.699E-06
  CGR           9          1          0   9.439E-07

    CGRSolver converged.

  ==> DFCorrGrad: Density-Fitted Correlated Gradients <==

    OpenMP threads:             12
    Integrals threads:          12
    Memory (MB):             21457
    Schwarz Cutoff:          0E+00
    Fitting Condition:       1E-12

   => Auxiliary Basis Set <=

  Basis Set: 
    Number of shells: 492
    Number of basis function: 1660
    Number of Cartesian functions: 2038
    Spherical Harmonics?: true
    Max angular momentum: 4

	-----------------------------------------------------------
	 ==================> DF-MP2 Energies <==================== 
	-----------------------------------------------------------
	 Reference Energy          =    -313.5385733148339114 [Eh]
	 Singles Energy            =      -0.0000000000000005 [Eh]
	 Same-Spin Energy          =      -0.3167133698670253 [Eh]
	 Opposite-Spin Energy      =      -1.1252259278600278 [Eh]
	 Correlation Energy        =      -1.4419392977270535 [Eh]
	 Total Energy              =    -314.9805126125609718 [Eh]
	-----------------------------------------------------------
	 ================> DF-SCS-MP2 Energies <================== 
	-----------------------------------------------------------
	 SCS Same-Spin Scale       =       0.3333333333333333 [-]
	 SCS Opposite-Spin Scale   =       1.2000000000000000 [-]
	 SCS Same-Spin Energy      =      -0.1055711232890084 [Eh]
	 SCS Opposite-Spin Energy  =      -1.3502711134320333 [Eh]
	 SCS Correlation Energy    =      -1.4558422367210422 [Eh]
	 SCS Total Energy          =    -314.9944155515549369 [Eh]
	-----------------------------------------------------------


  -Total Gradient:
     Atom            X                  Y                   Z
    ------   -----------------  -----------------  -----------------
       1        0.001411214615     0.000519597097    -0.000129607212
       2        0.000372098550     0.001374027324    -0.000352531101
       3        0.000948894179    -0.000028743542     0.001163428250
       4        0.000974619803    -0.000621010456    -0.000955551972
       5       -0.000943947520     0.001246887709     0.000021970743
       6        0.000525695667     0.001312571512     0.000521654751
       7       -0.000637985481     0.000599730633    -0.001208688800
       8       -0.001219263986     0.000084019945     0.000788529947
       9       -0.001347621746     0.001316105726    -0.000225429800
      10       -0.000771234135     0.000946998005     0.000874873430
      11       -0.000777951463     0.000438578028    -0.001216360694
      12       -0.000584539339    -0.001747009272     0.000889045617
      13       -0.000822026134    -0.001198341714    -0.000072888646
      14        0.000187292679    -0.000512341413     0.001436360654
      15        0.001633677562    -0.001278835320     0.000261308213
      16        0.000900231471    -0.000841971564    -0.000817422676
      17        0.000904691855    -0.000360462796     0.001103446914
      18       -0.000952233761    -0.000906092500     0.001592406642
      19        0.000173929774    -0.001168175237     0.000603158516
      20       -0.000710468798     0.000337194980     0.001322574374
      21        0.000279258568    -0.001364260941    -0.001236067161
      22       -0.000833309200    -0.000996740517    -0.000620415173
      23        0.000783041840    -0.000497044638    -0.001199069723
      24        0.000352881520     0.001422947378    -0.001286321850
      25       -0.000559003654     0.000506854459    -0.001230247704
      26        0.000712057128     0.001415517115    -0.000028155541


			-----------------------------------------
			 OPTKING 2.0: for geometry optimizations 
			  - R.A. King,  Bethel University        
			-----------------------------------------

	Internal coordinates to be generated automatically.
	Detected frag 1 with atoms:  1 2 3 4 5 6 7 8 9 10 11 12 13 14 15 16 17 18 19 20
	 21 22 23 24 25 26
	---Fragment 1 Bond Connectivity---
	 1 : 2 3 4 9
	 2 : 1
	 3 : 1
	 4 : 1
	 5 : 6 7 8 12
	 6 : 5
	 7 : 5
	 8 : 5
	 9 : 1 10 11 15
	 10 : 9
	 11 : 9
	 12 : 5 13 14 24
	 13 : 12
	 14 : 12
	 15 : 9 16 17 18
	 16 : 15
	 17 : 15
	 18 : 15 19 20 21
	 19 : 18
	 20 : 18
	 21 : 18 22 23 24
	 22 : 21
	 23 : 21
	 24 : 12 21 25 26
	 25 : 24
	 26 : 24

	---Fragment 1 Geometry and Gradient---
	 C          -6.4177122114       -2.1866508607        0.1819272363
	 H          -6.5424317852       -4.1664859832        0.7190169295
	 H          -7.3973395071       -1.9496863159       -1.6113095303
	 H          -7.4226452894       -1.0806394745        1.5959174976
	 C           6.3760177305       -2.2379063944       -0.4760544095
	 H           5.2776315642       -3.8206670727       -1.1974118423
	 H           7.0322167602       -2.7389592308        1.4083547029
	 H           8.0242390471       -2.0063094742       -1.6817772335
	 C          -3.6929684836       -1.3164874905       -0.0283722380
	 H          -2.6987187027       -2.4631984443       -1.4259587865
	 H          -2.7372706464       -1.6210299888        1.7707497635
	 C           4.7807877319        0.1427591973       -0.3919173327
	 H           5.9195798999        1.7261986348        0.2788855758
	 H           4.1654049116        0.6305410068       -2.2973389431
	 C          -3.5045145077        1.4474588507       -0.7698833565
	 H          -4.4488506519        2.5874730768        0.6708538672
	 H          -4.5537095696        1.7346551602       -2.5238972724
	 C          -0.8181500574        2.4143129796       -1.1028353701
	 H          -0.9017311285        4.3816759688       -1.7066630761
	 H           0.0826633958        1.3764696951       -2.6425501879
	 C           0.7913204266        2.1834699344        1.2889362894
	 H           1.9796703496        3.8556749411        1.4985510861
	 H          -0.4584924747        2.1537617104        2.9302798541
	 C           2.4946650998       -0.1365264927        1.3181066530
	 H           3.1477598565       -0.4992463886        3.2415127019
	 H           1.4195552956       -1.7964613589        0.7357500356
	             0.0014112146        0.0005195971       -0.0001296072
	             0.0003720985        0.0013740273       -0.0003525311
	             0.0009488942       -0.0000287435        0.0011634283
	             0.0009746198       -0.0006210105       -0.0009555520
	            -0.0009439475        0.0012468877        0.0000219707
	             0.0005256957        0.0013125715        0.0005216548
	            -0.0006379855        0.0005997306       -0.0012086888
	            -0.0012192640        0.0000840199        0.0007885299
	            -0.0013476217        0.0013161057       -0.0002254298
	            -0.0007712341        0.0009469980        0.0008748734
	            -0.0007779515        0.0004385780       -0.0012163607
	            -0.0005845393       -0.0017470093        0.0008890456
	            -0.0008220261       -0.0011983417       -0.0000728886
	             0.0001872927       -0.0005123414        0.0014363607
	             0.0016336776       -0.0012788353        0.0002613082
	             0.0009002315       -0.0008419716       -0.0008174227
	             0.0009046919       -0.0003604628        0.0011034469
	            -0.0009522338       -0.0009060925        0.0015924066
	             0.0001739298       -0.0011681752        0.0006031585
	            -0.0007104688        0.0003371950        0.0013225744
	             0.0002792586       -0.0013642609       -0.0012360672
	            -0.0008333092       -0.0009967405       -0.0006204152
	             0.0007830418       -0.0004970446       -0.0011990697
	             0.0003528815        0.0014229474       -0.0012863219
	            -0.0005590037        0.0005068545       -0.0012302477
	             0.0007120571        0.0014155171       -0.0000281555

	Previous optimization step data not found.  Starting new optimization.

	---Fragment 1 Intrafragment Coordinates---
	 - Coordinate -           - BOHR/RAD -       - ANG/DEG -
	 R(1,2)           =         2.055181	       1.087555
	 R(1,3)           =         2.057066	       1.088552
	 R(1,4)           =         2.057309	       1.088681
	 R(1,9)           =         2.868037	       1.517700
	 R(5,6)           =         2.057168	       1.088606
	 R(5,7)           =         2.057340	       1.088698
	 R(5,8)           =         2.055246	       1.087590
	 R(5,12)          =         2.866951	       1.517125
	 R(9,10)          =         2.063184	       1.091790
	 R(9,11)          =         2.059841	       1.090021
	 R(9,15)          =         2.867883	       1.517618
	 R(12,13)         =         2.062548	       1.091453
	 R(12,14)         =         2.060888	       1.090575
	 R(12,24)         =         2.868543	       1.517968
	 R(15,16)         =         2.065703	       1.093123
	 R(15,17)         =         2.063942	       1.092191
	 R(15,18)         =         2.874407	       1.521071
	 R(18,19)         =         2.059639	       1.089914
	 R(18,20)         =         2.063808	       1.092120
	 R(18,21)         =         2.892102	       1.530435
	 R(21,22)         =         2.062131	       1.091233
	 R(21,23)         =         2.063231	       1.091815
	 R(21,24)         =         2.878301	       1.523131
	 R(24,25)         =         2.063393	       1.091900
	 R(24,26)         =         2.061646	       1.090976
	 B(1,9,10)        =         1.916507	     109.807738
	 B(1,9,11)        =         1.909097	     109.383210
	 B(1,9,15)        =         1.953890	     111.949676
	 B(2,1,3)         =         1.885873	     108.052560
	 B(2,1,4)         =         1.884552	     107.976893
	 B(2,1,9)         =         1.948829	     111.659700
	 B(3,1,4)         =         1.880315	     107.734110
	 B(3,1,9)         =         1.932172	     110.705278
	 B(4,1,9)         =         1.929812	     110.570082
	 B(5,12,13)       =         1.917524	     109.866032
	 B(5,12,14)       =         1.912989	     109.606201
	 B(5,12,24)       =         1.960694	     112.339503
	 B(6,5,7)         =         1.879791	     107.704097
	 B(6,5,8)         =         1.885122	     108.009532
	 B(6,5,12)        =         1.930596	     110.615016
	 B(7,5,8)         =         1.884937	     107.998957
	 B(7,5,12)        =         1.931387	     110.660345
	 B(8,5,12)        =         1.949666	     111.707619
	 B(9,15,16)       =         1.898114	     108.753902
	 B(9,15,17)       =         1.896983	     108.689132
	 B(9,15,18)       =         1.999331	     114.553232
	 B(10,9,11)       =         1.860736	     106.612340
	 B(10,9,15)       =         1.905874	     109.198538
	 B(11,9,15)       =         1.915409	     109.744844
	 B(12,24,21)      =         1.968297	     112.775136
	 B(12,24,25)      =         1.897107	     108.696241
	 B(12,24,26)      =         1.902445	     109.002060
	 B(13,12,14)      =         1.858610	     106.490499
	 B(13,12,24)      =         1.897468	     108.716892
	 B(14,12,24)      =         1.913707	     109.647355
	 B(15,18,19)      =         1.893709	     108.501528
	 B(15,18,20)      =         1.902013	     108.977298
	 B(15,18,21)      =         1.979540	     113.419267
	 B(16,15,17)      =         1.858281	     106.471631
	 B(16,15,18)      =         1.899059	     108.808077
	 B(17,15,18)      =         1.906936	     109.259358
	 B(18,21,22)      =         1.917753	     109.879165
	 B(18,21,23)      =         1.898574	     108.780284
	 B(18,21,24)      =         1.984552	     113.706438
	 B(19,18,20)      =         1.853901	     106.220714
	 B(19,18,21)      =         1.919074	     109.954814
	 B(20,18,21)      =         1.911282	     109.508418
	 B(21,24,25)      =         1.916063	     109.782305
	 B(21,24,26)      =         1.915062	     109.724993
	 B(22,21,23)      =         1.854478	     106.253760
	 B(22,21,24)      =         1.887627	     108.153085
	 B(23,21,24)      =         1.916449	     109.804422
	 B(25,24,26)      =         1.861711	     106.668195
	 D(1,9,15,16)     =         1.048443	      60.071365
	 D(1,9,15,17)     =        -0.967909	     -55.457075
	 D(1,9,15,18)     =        -3.106008	    -177.961175
	 D(2,1,9,10)      =         1.024572	      58.703628
	 D(2,1,9,11)      =        -1.011704	     -57.966348
	 D(2,1,9,15)      =        -3.138635	    -179.830526
	 D(3,1,9,10)      =        -1.077416	     -61.731417
	 D(3,1,9,11)      =        -3.113692	    -178.401393
	 D(3,1,9,15)      =         1.042562	      59.734430
	 D(4,1,9,10)      =         3.123281	     178.950794
	 D(4,1,9,11)      =         1.087005	      62.280818
	 D(4,1,9,15)      =        -1.039926	     -59.583359
	 D(5,12,24,21)    =        -3.078955	    -176.411143
	 D(5,12,24,25)    =         1.075309	      61.610645
	 D(5,12,24,26)    =        -0.947522	     -54.289011
	 D(6,5,12,13)     =        -3.111266	    -178.262399
	 D(6,5,12,14)     =        -1.074712	     -61.576469
	 D(6,5,12,24)     =         1.057356	      60.582038
	 D(7,5,12,13)     =         1.090084	      62.457198
	 D(7,5,12,14)     =         3.126637	     179.143127
	 D(7,5,12,24)     =        -1.024480	     -58.698365
	 D(8,5,12,13)     =        -1.010744	     -57.911354
	 D(8,5,12,14)     =         1.025810	      58.774575
	 D(8,5,12,24)     =        -3.125307	    -179.066917
	 D(9,15,18,19)    =         3.100961	     177.671975
	 D(9,15,18,20)    =         1.089473	      62.422185
	 D(9,15,18,21)    =        -1.044402	     -59.839818
	 D(10,9,15,16)    =        -3.108652	    -178.112623
	 D(10,9,15,17)    =         1.158182	      66.358937
	 D(10,9,15,18)    =        -0.979918	     -56.145163
	 D(11,9,15,16)    =        -1.074865	     -61.585216
	 D(11,9,15,17)    =        -3.091216	    -177.113656
	 D(11,9,15,18)    =         1.053869	      60.382244
	 D(12,24,21,18)   =         1.315864	      75.393471
	 D(12,24,21,22)   =        -0.819202	     -46.936824
	 D(12,24,21,23)   =        -2.835755	    -162.476786
	 D(13,12,24,21)   =         1.078203	      61.776485
	 D(13,12,24,25)   =        -1.050718	     -60.201726
	 D(13,12,24,26)   =        -3.073549	    -176.101382
	 D(14,12,24,21)   =        -0.947295	     -54.275988
	 D(14,12,24,25)   =        -3.076216	    -176.254200
	 D(14,12,24,26)   =         1.184139	      67.846144
	 D(15,18,21,22)   =        -2.449541	    -140.348359
	 D(15,18,21,23)   =        -0.426130	     -24.415470
	 D(15,18,21,24)   =         1.715291	      98.278917
	 D(16,15,18,19)   =        -1.054006	     -60.390102
	 D(16,15,18,20)   =        -3.065494	    -175.639892
	 D(16,15,18,21)   =         1.083816	      62.098105
	 D(17,15,18,19)   =         0.968264	      55.477420
	 D(17,15,18,20)   =        -1.043225	     -59.772370
	 D(17,15,18,21)   =         3.106086	     177.965626
	 D(18,21,24,25)   =        -2.849123	    -163.242747
	 D(18,21,24,26)   =        -0.808450	     -46.320770
	 D(19,18,21,22)   =        -0.325831	     -18.668738
	 D(19,18,21,23)   =         1.697580	      97.264151
	 D(19,18,21,24)   =        -2.444185	    -140.041462
	 D(20,18,21,22)   =         1.704925	      97.685030
	 D(20,18,21,23)   =        -2.554849	    -146.382081
	 D(20,18,21,24)   =        -0.413428	     -23.687694
	 D(22,21,24,25)   =         1.298995	      74.426957
	 D(22,21,24,26)   =        -2.943516	    -168.651065
	 D(23,21,24,25)   =        -0.717557	     -41.113005
	 D(23,21,24,26)   =         1.323116	      75.808973
	 R(9,24)          =         6.441438	       3.408662

	Current energy   :      -314.9805126126

	Generating empirical Hessian (Schlegel '84) for each fragment.
	Taking RFO optimization step.
	Going to follow RFO solution 1.
	Using RFO vector 1.
	Norm of target step-size    0.16800
	Projected energy change by RFO approximation:        -0.0003195890

	Back-transformation to cartesian coordinates...
	Successfully converged to displaced geometry.

	--- Internal Coordinate Step in ANG or DEG, aJ/ANG or AJ/DEG ---
	 ---------------------------------------------------------------------------
	   Coordinate                Previous        Force       Change         New 
	   ----------                --------       ------       ------       ------
	    1 R(1,2)          =      1.087555     0.011850     0.002165     1.089720
	    2 R(1,3)          =      1.088552     0.012106     0.002219     1.090771
	    3 R(1,4)          =      1.088681     0.012084     0.002216     1.090897
	    4 R(1,9)          =      1.517700     0.032289     0.006767     1.524467
	    5 R(5,6)          =      1.088606     0.012140     0.002226     1.090832
	    6 R(5,7)          =      1.088698     0.012001     0.002201     1.090898
	    7 R(5,8)          =      1.087590     0.011789     0.002154     1.089744
	    8 R(5,12)         =      1.517125     0.032649     0.006830     1.523955
	    9 R(9,10)         =      1.091790     0.012281     0.002275     1.094065
	   10 R(9,11)         =      1.090021     0.012261     0.002258     1.092279
	   11 R(9,15)         =      1.517618     0.031864     0.006951     1.524569
	   12 R(12,13)        =      1.091453     0.011514     0.002131     1.093584
	   13 R(12,14)        =      1.090575     0.012401     0.002288     1.092863
	   14 R(12,24)        =      1.517968     0.034788     0.007297     1.525264
	   15 R(15,16)        =      1.093123     0.011916     0.002218     1.095340
	   16 R(15,17)        =      1.092191     0.011928     0.002213     1.094404
	   17 R(15,18)        =      1.521071     0.028512     0.007441     1.528512
	   18 R(18,19)        =      1.089914     0.010708     0.001972     1.091885
	   19 R(18,20)        =      1.092120     0.012081     0.002241     1.094361
	   20 R(18,21)        =      1.530435     0.028475     0.007281     1.537716
	   21 R(21,22)        =      1.091233     0.011135     0.002059     1.093292
	   22 R(21,23)        =      1.091815     0.011708     0.002169     1.093984
	   23 R(21,24)        =      1.523131     0.031515     0.007358     1.530489
	   24 R(24,25)        =      1.091900     0.011640     0.002157     1.094058
	   25 R(24,26)        =      1.090976     0.012383     0.002288     1.093264
	   26 B(1,9,10)       =    109.807738    -0.000004    -0.046002   109.761736
	   27 B(1,9,11)       =    109.383210    -0.000002    -0.011983   109.371227
	   28 B(1,9,15)       =    111.949676     0.000003     0.048712   111.998388
	   29 B(2,1,3)        =    108.052560    -0.000024    -0.118282   107.934278
	   30 B(2,1,4)        =    107.976893    -0.000023    -0.104452   107.872441
	   31 B(2,1,9)        =    111.659700     0.000020     0.093614   111.753313
	   32 B(3,1,4)        =    107.734110    -0.000023    -0.086891   107.647219
	   33 B(3,1,9)        =    110.705278     0.000023     0.090490   110.795768
	   34 B(4,1,9)        =    110.570082     0.000024     0.109467   110.679549
	   35 B(5,12,13)      =    109.866032    -0.000005    -0.009486   109.856546
	   36 B(5,12,14)      =    109.606201    -0.000004    -0.039130   109.567071
	   37 B(5,12,24)      =    112.339503     0.000004     0.035892   112.375395
	   38 B(6,5,7)        =    107.704097    -0.000023    -0.086938   107.617159
	   39 B(6,5,8)        =    108.009532    -0.000023    -0.122987   107.886545
	   40 B(6,5,12)       =    110.615016     0.000025     0.141217   110.756234
	   41 B(7,5,8)        =    107.998957    -0.000023    -0.088182   107.910775
	   42 B(7,5,12)       =    110.660345     0.000026     0.103211   110.763555
	   43 B(8,5,12)       =    111.707619     0.000016     0.038554   111.746173
	   44 B(9,15,16)      =    108.753902     0.000023     0.058788   108.812691
	   45 B(9,15,17)      =    108.689132     0.000029    -0.090586   108.598546
	   46 B(9,15,18)      =    114.553232    -0.000084     0.195632   114.748864
	   47 B(10,9,11)      =    106.612340    -0.000008    -0.114716   106.497623
	   48 B(10,9,15)      =    109.198538     0.000004     0.032784   109.231322
	   49 B(11,9,15)      =    109.744844     0.000007     0.083184   109.828028
	   50 B(12,24,21)     =    112.775136     0.000026     0.137503   112.912639
	   51 B(12,24,25)     =    108.696241    -0.000016    -0.110227   108.586014
	   52 B(12,24,26)     =    109.002060    -0.000003     0.068098   109.070158
	   53 B(13,12,14)     =    106.490499    -0.000012    -0.203240   106.287259
	   54 B(13,12,24)     =    108.716892     0.000009     0.096361   108.813253
	   55 B(14,12,24)     =    109.647355     0.000008     0.107646   109.755001
	   56 B(15,18,19)     =    108.501528     0.000029    -0.176816   108.324712
	   57 B(15,18,20)     =    108.977298     0.000011     0.090056   109.067353
	   58 B(15,18,21)     =    113.419267    -0.000070     0.234199   113.653466
	   59 B(16,15,17)     =    106.471631    -0.000024    -0.198430   106.273201
	   60 B(16,15,18)     =    108.808077     0.000032     0.077037   108.885115
	   61 B(17,15,18)     =    109.259358     0.000027    -0.072213   109.187145
	   62 B(18,21,22)     =    109.879165     0.000023     0.032199   109.911364
	   63 B(18,21,23)     =    108.780284     0.000007     0.022973   108.803257
	   64 B(18,21,24)     =    113.706438    -0.000024     0.251688   113.958126
	   65 B(19,18,20)     =    106.220714    -0.000023    -0.228170   105.992544
	   66 B(19,18,21)     =    109.954814     0.000031    -0.077385   109.877429
	   67 B(20,18,21)     =    109.508418     0.000025     0.124846   109.633265
	   68 B(21,24,25)     =    109.782305    -0.000000    -0.020538   109.761767
	   69 B(21,24,26)     =    109.724993     0.000002     0.126974   109.851967
	   70 B(22,21,23)     =    106.253760    -0.000021    -0.302348   105.951412
	   71 B(22,21,24)     =    108.153085     0.000011    -0.158363   107.994722
	   72 B(23,21,24)     =    109.804422     0.000005     0.114003   109.918425
	   73 B(25,24,26)     =    106.668195    -0.000010    -0.224834   106.443361
	   74 D(1,9,15,16)    =     60.071365     0.000000    -0.132498    59.938867
	   75 D(1,9,15,17)    =    -55.457075     0.000000     0.119614   -55.337461
	   76 D(1,9,15,18)    =   -177.961175     0.000001     0.146808  -177.814367
	   77 D(2,1,9,10)     =     58.703628    -0.000001    -0.051646    58.651982
	   78 D(2,1,9,11)     =    -57.966348     0.000001     0.120177   -57.846172
	   79 D(2,1,9,15)     =   -179.830526    -0.000000    -0.009358  -179.839884
	   80 D(3,1,9,10)     =    -61.731417    -0.000001    -0.026410   -61.757827
	   81 D(3,1,9,11)     =   -178.401393     0.000002     0.145412  -178.255981
	   82 D(3,1,9,15)     =     59.734430    -0.000000     0.015877    59.750307
	   83 D(4,1,9,10)     =    178.950794    -0.000001    -0.046962   178.903832
	   84 D(4,1,9,11)     =     62.280818     0.000002     0.124860    62.405679
	   85 D(4,1,9,15)     =    -59.583359    -0.000000    -0.004675   -59.588034
	   86 D(5,12,24,21)   =   -176.411143    -0.000002    -0.770645  -177.181789
	   87 D(5,12,24,25)   =     61.610645    -0.000003    -0.757443    60.853203
	   88 D(5,12,24,26)   =    -54.289011     0.000002    -0.466979   -54.755990
	   89 D(6,5,12,13)    =   -178.262399     0.000003     0.215822  -178.046576
	   90 D(6,5,12,14)    =    -61.576469    -0.000002    -0.058406   -61.634875
	   91 D(6,5,12,24)    =     60.582038     0.000000     0.075687    60.657725
	   92 D(7,5,12,13)    =     62.457198     0.000002     0.166629    62.623827
	   93 D(7,5,12,14)    =    179.143127    -0.000003    -0.107599   179.035528
	   94 D(7,5,12,24)    =    -58.698365    -0.000000     0.026494   -58.671871
	   95 D(8,5,12,13)    =    -57.911354     0.000002     0.182096   -57.729259
	   96 D(8,5,12,14)    =     58.774575    -0.000002    -0.092132    58.682443
	   97 D(8,5,12,24)    =   -179.066917    -0.000000     0.041960  -179.024957
	   98 D(9,15,18,19)   =    177.671975    -0.000001    -1.381404   176.290571
	   99 D(9,15,18,20)   =     62.422185     0.000000    -1.064318    61.357867
	  100 D(9,15,18,21)   =    -59.839818     0.000002    -1.451959   -61.291778
	  101 D(10,9,15,16)   =   -178.112623     0.000000    -0.135841  -178.248463
	  102 D(10,9,15,17)   =     66.358937     0.000000     0.116272    66.475209
	  103 D(10,9,15,18)   =    -56.145163     0.000000     0.143466   -56.001697
	  104 D(11,9,15,16)   =    -61.585216    -0.000001    -0.207933   -61.793149
	  105 D(11,9,15,17)   =   -177.113656    -0.000001     0.044180  -177.069477
	  106 D(11,9,15,18)   =     60.382244    -0.000000     0.071374    60.453618
	  107 D(12,24,21,18)  =     75.393471     0.000002    -1.677152    73.716319
	  108 D(12,24,21,22)  =    -46.936824    -0.000003    -1.770529   -48.707353
	  109 D(12,24,21,23)  =   -162.476786     0.000001    -1.383926  -163.860713
	  110 D(13,12,24,21)  =     61.776485    -0.000002    -0.849177    60.927309
	  111 D(13,12,24,25)  =    -60.201726    -0.000003    -0.835974   -61.037700
	  112 D(13,12,24,26)  =   -176.101382     0.000002    -0.545511  -176.646893
	  113 D(14,12,24,21)  =    -54.275988    -0.000001    -0.719661   -54.995649
	  114 D(14,12,24,25)  =   -176.254200    -0.000002    -0.706459  -176.960658
	  115 D(14,12,24,26)  =     67.846144     0.000003    -0.415995    67.430149
	  116 D(15,18,21,22)  =   -140.348359    -0.000005    -1.837988  -142.186347
	  117 D(15,18,21,23)  =    -24.415470    -0.000007    -2.169539   -26.585009
	  118 D(15,18,21,24)  =     98.278917    -0.000008    -1.831218    96.447699
	  119 D(16,15,18,19)  =    -60.390102    -0.000002    -1.111781   -61.501882
	  120 D(16,15,18,20)  =   -175.639892    -0.000000    -0.794695  -176.434587
	  121 D(16,15,18,21)  =     62.098105     0.000001    -1.182336    60.915769
	  122 D(17,15,18,19)  =     55.477420    -0.000001    -1.345323    54.132097
	  123 D(17,15,18,20)  =    -59.772370     0.000000    -1.028237   -60.800607
	  124 D(17,15,18,21)  =    177.965626     0.000002    -1.415878   176.549748
	  125 D(18,21,24,25)  =   -163.242747     0.000001    -1.739639  -164.982387
	  126 D(18,21,24,26)  =    -46.320770    -0.000001    -1.950130   -48.270899
	  127 D(19,18,21,22)  =    -18.668738    -0.000002    -1.960939   -20.629677
	  128 D(19,18,21,23)  =     97.264151    -0.000004    -2.292489    94.971662
	  129 D(19,18,21,24)  =   -140.041462    -0.000005    -1.954169  -141.995630
	  130 D(20,18,21,22)  =     97.685030    -0.000001    -2.208988    95.476042
	  131 D(20,18,21,23)  =   -146.382081    -0.000003    -2.540539  -148.922620
	  132 D(20,18,21,24)  =    -23.687694    -0.000004    -2.202218   -25.889912
	  133 D(22,21,24,25)  =     74.426957    -0.000004    -1.833017    72.593941
	  134 D(22,21,24,26)  =   -168.651065    -0.000006    -2.043507  -170.694572
	  135 D(23,21,24,25)  =    -41.113005     0.000000    -1.446414   -42.559419
	  136 D(23,21,24,26)  =     75.808973    -0.000002    -1.656904    74.152069
	  137 R(9,24)         =      3.408662     0.009131     0.009718     3.418380
	 ---------------------------------------------------------------------------

  ==> Convergence Check <==

  Measures of convergence in internal coordinates in au.
  Criteria marked as inactive (o), active & met (*), and active & unmet ( ).
  --------------------------------------------------------------------------------------------- ~
   Step     Total Energy     Delta E     MAX Force     RMS Force      MAX Disp      RMS Disp    ~
  --------------------------------------------------------------------------------------------- ~
    Convergence Criteria             o    2.00e-06 *    1.00e-06 *    6.00e-06 *    4.00e-06 *  ~
  --------------------------------------------------------------------------------------------- ~
      1    -314.98051261   -3.15e+02 o    4.22e-03      1.04e-03      4.43e-02      1.44e-02    ~
  ---------------------------------------------------------------------------------------------

	Writing optimization data to binary file.
	Structure for next step:
	Cartesian Geometry (in Angstrom)
	    C    -3.3890990785  -1.1737342979   0.0190612383
	    H    -3.4522390185  -2.2320352750   0.2710563760
	    H    -3.9053178688  -1.0230562352  -0.9299364744
	    H    -3.9314146088  -0.6147575279   0.7829296361
	    C     3.3564629629  -1.2253145048  -0.1914355890
	    H     2.7657952776  -2.0778585324  -0.5293629860
	    H     3.7179284654  -1.4513214092   0.8127172556
	    H     4.2222497344  -1.1369476006  -0.8472906330
	    C    -1.9430228853  -0.6994943107  -0.0701499673
	    H    -1.4084973965  -1.2824858050  -0.8260481297
	    H    -1.4401843573  -0.8892820244   0.8807485748
	    C     2.5171031309   0.0466566407  -0.1899373768
	    H     3.1320210552   0.8971126436   0.1175156240
	    H     2.1799073554   0.2638617100  -1.2065352020
	    C    -1.8482411656   0.7816753043  -0.4186661565
	    H    -2.3583871708   1.3607813474   0.3586095012
	    H    -2.4021362932   0.9582158429  -1.3458953009
	    C    -0.4233819018   1.3121474488  -0.5759044510
	    H    -0.4785640799   2.3570783431  -0.8878150952
	    H     0.0683937513   0.7785373507  -1.3950768960
	    C     0.4241773701   1.1918772689   0.7014947311
	    H     1.0669706198   2.0700595652   0.8058974908
	    H    -0.2421734753   1.2021827092   1.5690615630
	    C     1.3138620801  -0.0527944195   0.7421309077
	    H     1.6751988621  -0.2160782217   1.7618056510
	    H     0.7280712401  -0.9367162219   0.4761268441
			--------------------------
			 OPTKING Finished Execution 
			--------------------------

    Structure for next step:
    Molecular point group: c1
    Full point group: C1

    Geometry (in Angstrom), charge = 0, multiplicity = 1:

    C           -3.389374704094    -1.175347074560     0.018477758283
    H           -3.452514644108    -2.233648051657     0.270472895982
    H           -3.905593494352    -1.024669011879    -0.930519954443
    H           -3.931690234385    -0.616370304568     0.782346156019
    C            3.356187337295    -1.226927281498    -0.192019069016
    H            2.765519652007    -2.079471309048    -0.529946466083
    H            3.717652839853    -1.452934185880     0.812133775520
    H            4.221974108794    -1.138560377296    -0.847874113070
    C           -1.943298510826    -0.701107087393    -0.070733447373
    H           -1.408773022019    -1.284098581653    -0.826631609740
    H           -1.440459982889    -0.890894801125     0.880165094739
    C            2.516827505356     0.045043864051    -0.190520856813
    H            3.131745429585     0.895499866894     0.116932143928
    H            2.179631729791     0.262248933294    -1.207118682060
    C           -1.848516791210     0.780062527658    -0.419249636507
    H           -2.358662796399     1.359168570744     0.358026021194
    H           -2.402411918765     0.956603066169    -1.346478780941
    C           -0.423657527368     1.310534672080    -0.576487931023
    H           -0.478839705421     2.355465566375    -0.888398575208
    H            0.068118125744     0.776924574021    -1.395660375996
    C            0.423901744545     1.190264492214     0.700911251061
    H            1.066694994248     2.068446788514     0.805314010737
    H           -0.242449100843     1.200569932540     1.568478082939
    C            1.313586454571    -0.054407196226     0.741547427695
    H            1.674923236518    -0.217690998400     1.761222170962
    H            0.727795614576    -0.938328998570     0.475543364029

gradient() will perform analytic gradient computation.

*** tstart() called on wr31
*** at Tue Sep 20 16:52:27 2016


         ---------------------------------------------------------
                                   SCF
            by Justin Turney, Rob Parrish, and Andy Simmonett
                              RHF Reference
                       12 Threads,  30000 MiB Core
         ---------------------------------------------------------

  ==> Geometry <==

    Molecular point group: c1
    Full point group: C1

    Geometry (in Angstrom), charge = 0, multiplicity = 1:

       Center              X                  Y                   Z               Mass       
    ------------   -----------------  -----------------  -----------------  -----------------
           C         -3.389374704094    -1.175347074560     0.018477758283    12.000000000000
           H         -3.452514644108    -2.233648051657     0.270472895982     1.007825032070
           H         -3.905593494352    -1.024669011879    -0.930519954443     1.007825032070
           H         -3.931690234385    -0.616370304568     0.782346156019     1.007825032070
           C          3.356187337295    -1.226927281498    -0.192019069016    12.000000000000
           H          2.765519652007    -2.079471309048    -0.529946466083     1.007825032070
           H          3.717652839853    -1.452934185880     0.812133775520     1.007825032070
           H          4.221974108794    -1.138560377296    -0.847874113070     1.007825032070
           C         -1.943298510826    -0.701107087393    -0.070733447373    12.000000000000
           H         -1.408773022019    -1.284098581653    -0.826631609740     1.007825032070
           H         -1.440459982889    -0.890894801125     0.880165094739     1.007825032070
           C          2.516827505356     0.045043864051    -0.190520856813    12.000000000000
           H          3.131745429585     0.895499866894     0.116932143928     1.007825032070
           H          2.179631729791     0.262248933294    -1.207118682060     1.007825032070
           C         -1.848516791210     0.780062527658    -0.419249636507    12.000000000000
           H         -2.358662796399     1.359168570744     0.358026021194     1.007825032070
           H         -2.402411918765     0.956603066169    -1.346478780941     1.007825032070
           C         -0.423657527368     1.310534672080    -0.576487931023    12.000000000000
           H         -0.478839705421     2.355465566375    -0.888398575208     1.007825032070
           H          0.068118125744     0.776924574021    -1.395660375996     1.007825032070
           C          0.423901744545     1.190264492214     0.700911251061    12.000000000000
           H          1.066694994248     2.068446788514     0.805314010737     1.007825032070
           H         -0.242449100843     1.200569932540     1.568478082939     1.007825032070
           C          1.313586454571    -0.054407196226     0.741547427695    12.000000000000
           H          1.674923236518    -0.217690998400     1.761222170962     1.007825032070
           H          0.727795614576    -0.938328998570     0.475543364029     1.007825032070

  Running in c1 symmetry.

  Rotational constants: A =      0.10863  B =      0.02742  C =      0.02418 [cm^-1]
  Rotational constants: A =   3256.77285  B =    821.91895  C =    724.82339 [MHz]
  Nuclear repulsion =  394.726365292603020

  Charge       = 0
  Multiplicity = 1
  Electrons    = 66
  Nalpha       = 33
  Nbeta        = 33

  ==> Algorithm <==

  SCF Algorithm Type is DF.
  DIIS enabled.
  MOM disabled.
  Fractional occupation disabled.
  Guess Type is READ.
  Energy threshold   = 1.00e-10
  Density threshold  = 1.00e-10
  Integral threshold = 0.00e+00

  ==> Primary Basis <==

  Basis Set: AUG-CC-PVTZ
    Number of shells: 274
    Number of basis function: 782
    Number of Cartesian functions: 890
    Spherical Harmonics?: true
    Max angular momentum: 3

  ==> Pre-Iterations <==

   -------------------------------------------------------
    Irrep   Nso     Nmo     Nalpha   Nbeta   Ndocc  Nsocc
   -------------------------------------------------------
     A        782     782       0       0       0       0
   -------------------------------------------------------
    Total     782     782      33      33      33       0
   -------------------------------------------------------

  ==> Integral Setup <==

  ==> DFJK: Density-Fitted J/K Matrices <==

    J tasked:                  Yes
    K tasked:                  Yes
    wK tasked:                  No
    OpenMP threads:             12
    Integrals threads:          12
    Memory (MB):             21457
    Algorithm:                Core
    Integral Cache:           NONE
    Schwarz Cutoff:          1E-12
    Fitting Condition:       1E-12

   => Auxiliary Basis Set <=

  Basis Set: 
    Number of shells: 492
    Number of basis function: 1660
    Number of Cartesian functions: 2038
    Spherical Harmonics?: true
    Max angular momentum: 4

  Minimum eigenvalue in the overlap matrix is 2.0362904175E-06.
  Using Symmetric Orthogonalization.
  SCF Guess: Reading in previously saved MOs, projecting if necessary.

  Using orbitals from previous SCF, no projection.
  Recomputing DOCC and SOCC from number of alpha and beta electrons from previous calculation.
              A 
    DOCC [    33 ]

  ==> Iterations <==

                           Total Energy        Delta E     RMS |[F,P]|

   @DF-RHF iter   0:  -313.47387054446943   -3.13474e+02   1.38947e-04 
   @DF-RHF iter   1:  -313.53816400022134   -6.42935e-02   3.36994e-05 
   @DF-RHF iter   2:  -313.53870687728562   -5.42877e-04   1.55289e-05 DIIS
   @DF-RHF iter   3:  -313.53880027336589   -9.33961e-05   5.01620e-06 DIIS
   @DF-RHF iter   4:  -313.53881870648974   -1.84331e-05   6.98771e-07 DIIS
   @DF-RHF iter   5:  -313.53881903167513   -3.25185e-07   2.39577e-07 DIIS
   @DF-RHF iter   6:  -313.53881906356031   -3.18852e-08   5.08794e-08 DIIS
   @DF-RHF iter   7:  -313.53881906526652   -1.70621e-09   1.26336e-08 DIIS
   @DF-RHF iter   8:  -313.53881906535076   -8.42419e-11   3.50677e-09 DIIS
   @DF-RHF iter   9:  -313.53881906535838   -7.61702e-12   9.02115e-10 DIIS
   @DF-RHF iter  10:  -313.53881906535906   -6.82121e-13   2.58925e-10 DIIS
   @DF-RHF iter  11:  -313.53881906535838    6.82121e-13   6.51501e-11 DIIS

  ==> Post-Iterations <==

    Orbital Energies (a.u.)
    -----------------------

    Doubly Occupied:                                                      

       1A    -11.212544     2A    -11.211787     3A    -11.211101  
       4A    -11.210813     5A    -11.210198     6A    -11.209329  
       7A    -11.207269     8A    -11.207005     9A     -1.093879  
      10A     -1.059190    11A     -1.008666    12A     -0.949623  
      13A     -0.877994    14A     -0.830438    15A     -0.788105  
      16A     -0.763602    17A     -0.642200    18A     -0.634374  
      19A     -0.602048    20A     -0.595308    21A     -0.575670  
      22A     -0.562583    23A     -0.549002    24A     -0.529759  
      25A     -0.510625    26A     -0.502752    27A     -0.489279  
      28A     -0.473626    29A     -0.467376    30A     -0.462727  
      31A     -0.443708    32A     -0.437218    33A     -0.436218  

    Virtual:                                                              

      34A      0.029872    35A      0.033204    36A      0.033886  
      37A      0.035125    38A      0.045811    39A      0.048368  
      40A      0.049751    41A      0.053708    42A      0.054716  
      43A      0.067090    44A      0.068390    45A      0.070553  
      46A      0.074228    47A      0.079137    48A      0.084021  
      49A      0.087817    50A      0.098784    51A      0.102789  
      52A      0.113836    53A      0.115145    54A      0.120021  
      55A      0.120563    56A      0.127306    57A      0.130515  
      58A      0.133856    59A      0.138727    60A      0.144400  
      61A      0.147777    62A      0.149143    63A      0.151771  
      64A      0.154493    65A      0.157243    66A      0.160852  
      67A      0.163398    68A      0.168758    69A      0.171690  
      70A      0.175501    71A      0.180169    72A      0.185661  
      73A      0.187878    74A      0.190987    75A      0.197416  
      76A      0.200509    77A      0.218272    78A      0.219652  
      79A      0.230356    80A      0.235244    81A      0.241131  
      82A      0.245342    83A      0.255513    84A      0.255777  
      85A      0.262187    86A      0.266153    87A      0.271321  
      88A      0.275611    89A      0.282702    90A      0.288561  
      91A      0.295834    92A      0.303736    93A      0.308926  
      94A      0.315693    95A      0.316351    96A      0.320794  
      97A      0.322724    98A      0.332190    99A      0.335119  
     100A      0.337100   101A      0.341510   102A      0.344304  
     103A      0.351263   104A      0.353335   105A      0.356811  
     106A      0.362693   107A      0.364853   108A      0.366310  
     109A      0.369128   110A      0.374306   111A      0.380182  
     112A      0.381541   113A      0.384226   114A      0.388133  
     115A      0.391540   116A      0.394010   117A      0.396150  
     118A      0.398991   119A      0.400408   120A      0.403644  
     121A      0.411766   122A      0.417720   123A      0.423437  
     124A      0.426904   125A      0.432296   126A      0.435436  
     127A      0.438185   128A      0.442727   129A      0.445240  
     130A      0.449976   131A      0.454347   132A      0.459900  
     133A      0.463006   134A      0.463233   135A      0.468890  
     136A      0.472308   137A      0.477531   138A      0.478123  
     139A      0.482125   140A      0.487156   141A      0.496843  
     142A      0.498722   143A      0.499967   144A      0.504430  
     145A      0.505687   146A      0.507124   147A      0.510364  
     148A      0.515716   149A      0.516704   150A      0.524329  
     151A      0.527585   152A      0.530170   153A      0.535038  
     154A      0.540771   155A      0.548659   156A      0.550414  
     157A      0.552914   158A      0.558024   159A      0.563061  
     160A      0.568949   161A      0.573949   162A      0.577338  
     163A      0.581013   164A      0.583062   165A      0.593984  
     166A      0.600665   167A      0.603143   168A      0.609273  
     169A      0.610879   170A      0.617861   171A      0.621072  
     172A      0.629147   173A      0.631606   174A      0.633371  
     175A      0.638868   176A      0.643324   177A      0.650187  
     178A      0.659143   179A      0.660493   180A      0.663907  
     181A      0.667619   182A      0.671104   183A      0.680668  
     184A      0.683603   185A      0.686906   186A      0.694422  
     187A      0.698968   188A      0.710542   189A      0.715170  
     190A      0.720361   191A      0.724584   192A      0.731858  
     193A      0.738947   194A      0.752643   195A      0.756688  
     196A      0.765128   197A      0.775951   198A      0.779854  
     199A      0.784365   200A      0.787629   201A      0.806970  
     202A      0.813127   203A      0.815801   204A      0.823562  
     205A      0.832089   206A      0.838180   207A      0.842694  
     208A      0.848397   209A      0.853096   210A      0.856853  
     211A      0.859511   212A      0.871128   213A      0.873787  
     214A      0.878632   215A      0.884653   216A      0.889834  
     217A      0.892108   218A      0.902064   219A      0.907089  
     220A      0.913496   221A      0.916906   222A      0.919379  
     223A      0.921341   224A      0.929412   225A      0.931496  
     226A      0.939533   227A      0.941774   228A      0.952849  
     229A      0.955522   230A      0.962572   231A      0.964421  
     232A      0.967017   233A      0.972729   234A      0.977954  
     235A      0.983990   236A      0.985519   237A      0.986075  
     238A      0.998469   239A      1.004302   240A      1.009711  
     241A      1.016666   242A      1.020596   243A      1.024321  
     244A      1.025879   245A      1.033860   246A      1.034721  
     247A      1.037779   248A      1.043664   249A      1.052500  
     250A      1.058561   251A      1.064776   252A      1.073108  
     253A      1.074443   254A      1.079519   255A      1.084357  
     256A      1.088655   257A      1.098562   258A      1.105132  
     259A      1.108872   260A      1.118205   261A      1.124287  
     262A      1.128847   263A      1.130808   264A      1.135397  
     265A      1.142242   266A      1.146208   267A      1.149231  
     268A      1.151395   269A      1.160750   270A      1.164721  
     271A      1.172109   272A      1.172372   273A      1.177782  
     274A      1.182313   275A      1.190804   276A      1.196094  
[...]
	   17 R(15,18)        =      1.528100    -0.000001    -0.000000     1.528100
	   18 R(18,19)        =      1.091947    -0.000001    -0.000000     1.091947
	   19 R(18,20)        =      1.094000    -0.000002    -0.000000     1.093999
	   20 R(18,21)        =      1.536487     0.000003     0.000001     1.536488
	   21 R(21,22)        =      1.093335    -0.000004    -0.000001     1.093334
	   22 R(21,23)        =      1.094061    -0.000004    -0.000001     1.094060
	   23 R(21,24)        =      1.529843     0.000000     0.000000     1.529843
	   24 R(24,25)        =      1.094044    -0.000004    -0.000001     1.094044
	   25 R(24,26)        =      1.093081    -0.000005    -0.000001     1.093080
	   26 B(1,9,10)       =    109.790878    -0.000000     0.000005   109.790883
	   27 B(1,9,11)       =    109.387514     0.000000     0.000003   109.387517
	   28 B(1,9,15)       =    111.865526     0.000000     0.000012   111.865538
	   29 B(2,1,3)        =    107.971475     0.000000     0.000003   107.971478
	   30 B(2,1,4)        =    107.910498     0.000000     0.000011   107.910509
	   31 B(2,1,9)        =    111.692769    -0.000000     0.000002   111.692771
	   32 B(3,1,4)        =    107.685806     0.000000    -0.000002   107.685805
	   33 B(3,1,9)        =    110.766017    -0.000000    -0.000020   110.765997
	   34 B(4,1,9)        =    110.662392     0.000000     0.000006   110.662398
	   35 B(5,12,13)      =    109.828078     0.000000     0.000041   109.828120
	   36 B(5,12,14)      =    109.513429    -0.000000    -0.000020   109.513409
	   37 B(5,12,24)      =    112.213159     0.000000     0.000010   112.213169
	   38 B(6,5,7)        =    107.670246     0.000000    -0.000004   107.670243
	   39 B(6,5,8)        =    107.922484    -0.000000     0.000003   107.922488
	   40 B(6,5,12)       =    110.704878    -0.000000    -0.000009   110.704869
	   41 B(7,5,8)        =    107.930442    -0.000000    -0.000004   107.930439
	   42 B(7,5,12)       =    110.760793    -0.000000    -0.000027   110.760766
	   43 B(8,5,12)       =    111.697863     0.000000     0.000039   111.697902
	   44 B(9,15,16)      =    108.768226     0.000000     0.000015   108.768242
	   45 B(9,15,17)      =    108.629438     0.000000    -0.000006   108.629432
	   46 B(9,15,18)      =    114.780263    -0.000000    -0.000016   114.780247
	   47 B(10,9,11)      =    106.606024    -0.000000    -0.000019   106.606005
	   48 B(10,9,15)      =    109.258984     0.000000     0.000009   109.258993
	   49 B(11,9,15)      =    109.791432    -0.000000    -0.000012   109.791420
	   50 B(12,24,21)     =    112.969741    -0.000000    -0.000029   112.969712
	   51 B(12,24,25)     =    108.490911     0.000000     0.000034   108.490944
	   52 B(12,24,26)     =    109.075897    -0.000000    -0.000044   109.075854
	   53 B(13,12,14)     =    106.411352     0.000000     0.000010   106.411363
	   54 B(13,12,24)     =    108.856171    -0.000000    -0.000038   108.856133
	   55 B(14,12,24)     =    109.848841     0.000000    -0.000003   109.848838
	   56 B(15,18,19)     =    108.212157    -0.000000    -0.000056   108.212101
	   57 B(15,18,20)     =    109.104081    -0.000000    -0.000035   109.104046
	   58 B(15,18,21)     =    113.684821     0.000000     0.000115   113.684936
	   59 B(16,15,17)     =    106.357351    -0.000000     0.000007   106.357358
	   60 B(16,15,18)     =    108.858390     0.000000    -0.000011   108.858379
	   61 B(17,15,18)     =    109.117301     0.000000     0.000011   109.117312
	   62 B(18,21,22)     =    109.856147     0.000000    -0.000002   109.856144
	   63 B(18,21,23)     =    108.736946     0.000000     0.000013   108.736959
	   64 B(18,21,24)     =    114.136267    -0.000000    -0.000023   114.136244
	   65 B(19,18,20)     =    106.094526     0.000000    -0.000015   106.094511
	   66 B(19,18,21)     =    109.763425     0.000000     0.000039   109.763465
	   67 B(20,18,21)     =    109.693837    -0.000000    -0.000057   109.693780
	   68 B(21,24,25)     =    109.570602     0.000000     0.000057   109.570660
	   69 B(21,24,26)     =    109.982944     0.000000     0.000009   109.982953
	   70 B(22,21,23)     =    106.075848    -0.000000    -0.000017   106.075831
	   71 B(22,21,24)     =    107.899976     0.000000     0.000025   107.900001
	   72 B(23,21,24)     =    109.829727     0.000000     0.000005   109.829731
	   73 B(25,24,26)     =    106.536198    -0.000000    -0.000027   106.536171
	   74 D(1,9,15,16)    =     60.524135     0.000000     0.000253    60.524388
	   75 D(1,9,15,17)    =    -54.844602     0.000000     0.000239   -54.844363
	   76 D(1,9,15,18)    =   -177.275895     0.000000     0.000240  -177.275655
	   77 D(2,1,9,10)     =     58.803992    -0.000000     0.000103    58.804095
	   78 D(2,1,9,11)     =    -57.851162    -0.000000     0.000121   -57.851041
	   79 D(2,1,9,15)     =   -179.721403     0.000000     0.000127  -179.721276
	   80 D(3,1,9,10)     =    -61.591895    -0.000000     0.000112   -61.591783
	   81 D(3,1,9,11)     =   -178.247049     0.000000     0.000130  -178.246919
	   82 D(3,1,9,15)     =     59.882710     0.000000     0.000135    59.882846
	   83 D(4,1,9,10)     =    179.051878     0.000000     0.000123   179.052001
	   84 D(4,1,9,11)     =     62.396725     0.000000     0.000141    62.396866
	   85 D(4,1,9,15)     =    -59.473516     0.000000     0.000146   -59.473370
	   86 D(5,12,24,21)   =   -177.984634     0.000000     0.000025  -177.984609
	   87 D(5,12,24,25)   =     60.322656    -0.000000    -0.000053    60.322603
	   88 D(5,12,24,26)   =    -55.348037     0.000000    -0.000016   -55.348053
	   89 D(6,5,12,13)    =   -178.259978    -0.000000    -0.000030  -178.260009
	   90 D(6,5,12,14)    =    -61.745727    -0.000000    -0.000005   -61.745732
	   91 D(6,5,12,24)    =     60.518479    -0.000000    -0.000017    60.518462
	   92 D(7,5,12,13)    =     62.379112    -0.000000    -0.000002    62.379109
	   93 D(7,5,12,14)    =    178.893363     0.000000     0.000023   178.893386
	   94 D(7,5,12,24)    =    -58.842431     0.000000     0.000011   -58.842420
	   95 D(8,5,12,13)    =    -57.964556    -0.000000    -0.000006   -57.964562
	   96 D(8,5,12,14)    =     58.549696     0.000000     0.000019    58.549715
	   97 D(8,5,12,24)    =   -179.186099     0.000000     0.000007  -179.186092
	   98 D(9,15,18,19)   =    177.237350    -0.000000     0.000176   177.237525
	   99 D(9,15,18,20)   =     62.225137     0.000000     0.000241    62.225379
	  100 D(9,15,18,21)   =    -60.551851     0.000000     0.000261   -60.551590
	  101 D(10,9,15,16)   =   -177.695002     0.000000     0.000274  -177.694728
	  102 D(10,9,15,17)   =     66.936260     0.000000     0.000260    66.936521
	  103 D(10,9,15,18)   =    -55.495033     0.000000     0.000261   -55.494771
	  104 D(11,9,15,16)   =    -61.113853     0.000000     0.000250   -61.113603
	  105 D(11,9,15,17)   =   -176.482591     0.000000     0.000236  -176.482354
	  106 D(11,9,15,18)   =     61.086116     0.000000     0.000237    61.086353
	  107 D(12,24,21,18)  =     73.712412    -0.000000     0.000020    73.712432
	  108 D(12,24,21,22)  =    -48.689717    -0.000000     0.000020   -48.689697
	  109 D(12,24,21,23)  =   -163.891710    -0.000000     0.000024  -163.891686
	  110 D(13,12,24,21)  =     60.237091    -0.000000    -0.000008    60.237083
	  111 D(13,12,24,25)  =    -61.455620    -0.000000    -0.000085   -61.455705
	  112 D(13,12,24,26)  =   -177.126313    -0.000000    -0.000048  -177.126360
	  113 D(14,12,24,21)  =    -55.911168     0.000000     0.000004   -55.911165
	  114 D(14,12,24,25)  =   -177.603879    -0.000000    -0.000074  -177.603953
	  115 D(14,12,24,26)  =     66.725428     0.000000    -0.000037    66.725391
	  116 D(15,18,21,22)  =   -141.466825    -0.000000    -0.000090  -141.466915
	  117 D(15,18,21,23)  =    -25.784300    -0.000000    -0.000104   -25.784404
	  118 D(15,18,21,24)  =     97.207274    -0.000000    -0.000104    97.207170
	  119 D(16,15,18,19)  =    -60.611506    -0.000000     0.000177   -60.611329
	  120 D(16,15,18,20)  =   -175.623718     0.000000     0.000243  -175.623476
	  121 D(16,15,18,21)  =     61.599293     0.000000     0.000262    61.599556
	  122 D(17,15,18,19)  =     55.069883    -0.000000     0.000186    55.070069
	  123 D(17,15,18,20)  =    -59.942329     0.000000     0.000251   -59.942078
	  124 D(17,15,18,21)  =    177.280683     0.000000     0.000271   177.280954
	  125 D(18,21,24,25)  =   -165.205305     0.000000     0.000084  -165.205221
	  126 D(18,21,24,26)  =    -48.416884     0.000000     0.000090   -48.416794
	  127 D(19,18,21,22)  =    -20.117624     0.000000    -0.000055   -20.117679
	  128 D(19,18,21,23)  =     95.564901     0.000000    -0.000069    95.564832
	  129 D(19,18,21,24)  =   -141.443525    -0.000000    -0.000069  -141.443594
	  130 D(20,18,21,22)  =     96.080736    -0.000000    -0.000083    96.080653
	  131 D(20,18,21,23)  =   -148.236739    -0.000000    -0.000097  -148.236836
	  132 D(20,18,21,24)  =    -25.245165    -0.000000    -0.000097   -25.245262
	  133 D(22,21,24,25)  =     72.392566     0.000000     0.000084    72.392651
	  134 D(22,21,24,26)  =   -170.819013     0.000000     0.000091  -170.818923
	  135 D(23,21,24,25)  =    -42.809426    -0.000000     0.000088   -42.809338
	  136 D(23,21,24,26)  =     73.978994     0.000000     0.000094    73.979089
	  137 R(9,24)         =      3.428833     0.000001    -0.000001     3.428832
	 ---------------------------------------------------------------------------

  ==> Convergence Check <==

  Measures of convergence in internal coordinates in au.
  Criteria marked as inactive (o), active & met (*), and active & unmet ( ).
  ---------------------------------------------------------------------------------------------
   Step     Total Energy     Delta E     MAX Force     RMS Force      MAX Disp      RMS Disp   
  ---------------------------------------------------------------------------------------------
    Convergence Criteria             o    2.00e-06 *    1.00e-06 *    6.00e-06 *    4.00e-06 *
  ---------------------------------------------------------------------------------------------
     45    -314.98078936    7.65e-10 o    6.59e-07 *    1.61e-07 *    4.78e-06 *    1.82e-06 *  ~
  ---------------------------------------------------------------------------------------------


  **** Optimization is complete! (in 45 steps) ****

  ==> Optimization Summary <==

  Measures of convergence in internal coordinates in au.
  --------------------------------------------------------------------------------------------------------------- ~
   Step         Total Energy             Delta E       MAX Force       RMS Force        MAX Disp        RMS Disp  ~
  --------------------------------------------------------------------------------------------------------------- ~
      1    -314.980512612561   -314.980512612561      0.00422248      0.00103693      0.04434077      0.01435069  ~
      2    -314.980760394960     -0.000247782399      0.00093143      0.00017200      0.04331641      0.01565952  ~
      3    -314.980730580775      0.000029814185      0.00103170      0.00022015      0.02830550      0.00964632  ~
      4    -314.980788572780     -0.000057992005      0.00020169      0.00003469      0.00232732      0.00084179  ~
      5    -314.980789203335     -0.000000630555      0.00003208      0.00000800      0.00402202      0.00107939  ~
      6    -314.980789296972     -0.000000093636      0.00002019      0.00000670      0.00128550      0.00043951  ~
      7    -314.980789349568     -0.000000052596      0.00001016      0.00000193      0.00033600      0.00010036  ~
      8    -314.980789359137     -0.000000009569      0.00000287      0.00000051      0.00007286      0.00001773  ~
      9    -314.980789359918     -0.000000000781      0.00000157      0.00000045      0.00007188      0.00001898  ~
     10    -314.980789359421      0.000000000498      0.00000094      0.00000023      0.00005185      0.00001416  ~
     11    -314.980789358083      0.000000001337      0.00000153      0.00000039      0.00003676      0.00001292  ~
     12    -314.980789357709      0.000000000374      0.00000236      0.00000059      0.00007824      0.00002366  ~
     13    -314.980789356462      0.000000001247      0.00000170      0.00000045      0.00004855      0.00001583  ~
     14    -314.980789356111      0.000000000351      0.00000033      0.00000011      0.00001767      0.00000526  ~
     15    -314.980789359424     -0.000000003313      0.00000078      0.00000019      0.00004063      0.00001428  ~
     16    -314.980789357673      0.000000001751      0.00000071      0.00000019      0.00002430      0.00000816  ~
     17    -314.980789358873     -0.000000001200      0.00000049      0.00000012      0.00001464      0.00000478  ~
     18    -314.980789355561      0.000000003312      0.00000210      0.00000049      0.00004657      0.00001632  ~
     19    -314.980789358719     -0.000000003158      0.00000146      0.00000040      0.00003936      0.00001222  ~
     20    -314.980789358639      0.000000000080      0.00000088      0.00000021      0.00002774      0.00000807  ~
     21    -314.980789358875     -0.000000000236      0.00000084      0.00000018      0.00001504      0.00000411  ~
     22    -314.980789359307     -0.000000000432      0.00000184      0.00000048      0.00005680      0.00001710  ~
     23    -314.980789360345     -0.000000001038      0.00000126      0.00000034      0.00004168      0.00001237  ~
     24    -314.980789355370      0.000000004974      0.00000067      0.00000016      0.00002672      0.00000697  ~
     25    -314.980789356406     -0.000000001036      0.00000062      0.00000015      0.00001807      0.00000477  ~
     26    -314.980789360373     -0.000000003967      0.00000078      0.00000017      0.00001882      0.00000566  ~
     27    -314.980789358383      0.000000001990      0.00000116      0.00000025      0.00002295      0.00000789  ~
     28    -314.980789357228      0.000000001155      0.00000135      0.00000032      0.00005075      0.00001535  ~
     29    -314.980789359438     -0.000000002210      0.00000211      0.00000054      0.00007429      0.00002351  ~
     30    -314.980789360558     -0.000000001120      0.00000096      0.00000027      0.00002906      0.00000790  ~
     31    -314.980789359754      0.000000000804      0.00000068      0.00000016      0.00001151      0.00000377  ~
     32    -314.980789356486      0.000000003268      0.00000055      0.00000014      0.00001596      0.00000486  ~
     33    -314.980789360331     -0.000000003845      0.00000100      0.00000021      0.00002582      0.00000744  ~
     34    -314.980789356452      0.000000003879      0.00000211      0.00000050      0.00006422      0.00002130  ~
     35    -314.980789358304     -0.000000001853      0.00000197      0.00000054      0.00006132      0.00001998  ~
     36    -314.980789360337     -0.000000002032      0.00000081      0.00000020      0.00001418      0.00000434  ~
     37    -314.980789356421      0.000000003916      0.00000145      0.00000035      0.00004903      0.00001454  ~
     38    -314.980789358617     -0.000000002196      0.00000152      0.00000041      0.00005038      0.00001573  ~
     39    -314.980789361623     -0.000000003006      0.00000098      0.00000028      0.00002382      0.00000648  ~
     40    -314.980789356507      0.000000005116      0.00000191      0.00000047      0.00004942      0.00001504  ~
     41    -314.980789355167      0.000000001340      0.00000260      0.00000060      0.00005824      0.00002083  ~
     42    -314.980789360332     -0.000000005166      0.00000108      0.00000029      0.00003442      0.00000972  ~
     43    -314.980789357485      0.000000002847      0.00000323      0.00000076      0.00007562      0.00002588  ~
     44    -314.980789358158     -0.000000000673      0.00000062      0.00000014      0.00001455      0.00000452  ~
     45    -314.980789357393      0.000000000765      0.00000066      0.00000016      0.00000478      0.00000182  ~
  --------------------------------------------------------------------------------------------------------------- ~

	Writing optimization data to binary file.
	Final energy is   -314.9807893573931
	Final (previous) structure:
	Cartesian Geometry (in Angstrom)
	    C    -3.4081822432  -1.1557715845   0.0066163207
	    H    -3.4817750445  -2.2119949498   0.2643881081
	    H    -3.9080854522  -1.0075408925  -0.9513875910
	    H    -3.9577298313  -0.5878728627   0.7585462917
	    C     3.3763053179  -1.2193238709  -0.1906580886
	    H     2.7946011524  -2.0776906462  -0.5291984129
	    H     3.7373391054  -1.4397891966   0.8147709518
	    H     4.2426995785  -1.1224513298  -0.8444999542
	    C    -1.9578162989  -0.6926788652  -0.0633252088
	    H    -1.4163245089  -1.2822047063  -0.8088877993
	    H    -1.4708432444  -0.8797106046   0.8962041642
	    C     2.5242210385   0.0438973075  -0.1936708442
	    H     3.1289515073   0.8999533142   0.1180547806
	    H     2.1902061533   0.2563674086  -1.2119739531
	    C    -1.8504969341   0.7860138041  -0.4169840177
	    H    -2.3597188177   1.3710822709   0.3561661622
	    H    -2.3975332471   0.9633709316  -1.3480497421
	    C    -0.4217102800   1.3061104513  -0.5691568365
	    H    -0.4704417392   2.3549752189  -0.8689169728
	    H     0.0658761322   0.7774245422  -1.3935268538
	    C     0.4241420729   1.1690159189   0.7061985786
	    H     1.0642285465   2.0475981248   0.8235171380
	    H    -0.2442865552   1.1633355714   1.5723051435
	    C     1.3189068126  -0.0715865871   0.7330573103
	    H     1.6795790065  -0.2413106361   1.7519010489
	    H     0.7393237135  -0.9562241415   0.4567861747
	Saving final (previous) structure.
			--------------------------
			 OPTKING Finished Execution 
			--------------------------

    Final optimized geometry and variables:
    Molecular point group: c1
    Full point group: C1

    Geometry (in Angstrom), charge = 0, multiplicity = 1:

    C           -3.408182243200    -1.155771584511     0.006616320722
    H           -3.481775044528    -2.211994949823     0.264388108129
    H           -3.908085452210    -1.007540892528    -0.951387590965
    H           -3.957729831341    -0.587872862699     0.758546291691
    C            3.376305317879    -1.219323870871    -0.190658088616
    H            2.794601152429    -2.077690646168    -0.529198412882
    H            3.737339105384    -1.439789196567     0.814770951805
    H            4.242699578468    -1.122451329779    -0.844499954154
    C           -1.957816298877    -0.692678865174    -0.063325208794
    H           -1.416324508867    -1.282204706280    -0.808887799270
    H           -1.470843244352    -0.879710604628     0.896204164171
    C            2.524221038482     0.043897307455    -0.193670844219
    H            3.128951507286     0.899953314225     0.118054780612
    H            2.190206153320     0.256367408619    -1.211973953051
    C           -1.850496934149     0.786013804111    -0.416984017742
    H           -2.359718817678     1.371082270866     0.356166162188
    H           -2.397533247081     0.963370931623    -1.348049742070
    C           -0.421710280039     1.306110451272    -0.569156836526
    H           -0.470441739243     2.354975218864    -0.868916972777
    H            0.065876132205     0.777424542214    -1.393526853801
    C            0.424142072921     1.169015918851     0.706198578598
    H            1.064228546533     2.047598124780     0.823517138019
    H           -0.244286555243     1.163335571365     1.572305143545
    C            1.318906812567    -0.071586587137     0.733057310336
    H            1.679579006486    -0.241310636061     1.751901048914
    H            0.739323713462    -0.956224141510     0.456786174681

	Cleaning optimization helper files.

*** Psi4 exiting successfully. Buy a developer a beer!
