    -----------------------------------------------------------------------
          Psi4: An Open-Source Ab Initio Electronic Structure Package
                              Psi4 1.0.0 Driver

                          Git: Rev {master} 6a9a71b dirty

    J. M. Turney, A. C. Simmonett, R. M. Parrish, E. G. Hohenstein,
    F. A. Evangelista, J. T. Fermann, B. J. Mintz, L. A. Burns, J. J. Wilke,
    M. L. Abrams, N. J. Russ, M. L. Leininger, C. L. Janssen, E. T. Seidl,
    W. D. Allen, H. F. Schaefer, R. A. King, E. F. Valeev, C. D. Sherrill,
    and T. D. Crawford, WIREs Comput. Mol. Sci. 2, 556-565 (2012)
    (doi: 10.1002/wcms.93)

                         Additional Contributions by
    A. E. DePrince, U. Bozkaya, A. Yu. Sokolov, D. G. A. Smith, R. Di Remigio,
    R. M. Richard, J. F. Gonthier, H. R. McAlexander, M. Saitow, and
    B. P. Pritchard
    -----------------------------------------------------------------------


    Psi4 started on: Wed Sep 21 04:57:33 2016

    Process ID:   5207
    PSI4DATADIR: /usr/local/hpc5/psi4conda/share/psi4
    Memory level set to 256.000 MB

  ==> Input File <==

--------------------------------------------------------------------------
memory 60 Gb

molecule molecule_52_psi {
0 1
C           -3.162566437043    -0.835635871134    -0.225579744194
H           -3.999278712698    -1.301935668132     0.293995929101
H           -2.380848544276    -1.587688167282    -0.333408585921
H           -3.499838648871    -0.561481945284    -1.226766755429
C            3.162665418142     0.835534901784     0.225450804369
H            2.381017569067     1.587652175032     0.333287039390
H            3.999382288694     1.301740678927    -0.294193575405
H            3.499971380468     0.561400483444     1.226626678403
C           -2.658716085652     0.389345111138     0.529083426026
H           -2.288780048761     0.088555765111     1.511404165064
H           -3.493689555587     1.068602092969     0.714571892135
C            2.658667287603    -0.389441770544    -0.529118218552
H            2.288699120445    -0.088673449598    -1.511429977189
H            3.493564371323    -1.068783576171    -0.714620276273
C           -1.570472899766     1.152489579518    -0.225771760101
H           -1.244139519019     2.002188980138     0.381150091764
H           -2.004992289973     1.571346182595    -1.138269322878
C           -0.346650446594     0.316302333772    -0.600343786424
H            0.357784736688     0.960467489108    -1.132096671135
H           -0.630822804085    -0.469634545420    -1.306538016463
C            0.346665456630    -0.316140133293     0.600440161578
H            0.630934771090     0.469806959660     1.306581386653
H           -0.357794035674    -0.960222760476     1.132260779553
C            1.570401548386    -1.152446056870     0.225847814260
H            2.004942226847    -1.571280467735     1.138343772005
H            1.243961020068    -2.002156605180    -0.381002106599
}

set globals {
  reference rhf
  g_convergence gau_verytight
  basis aug-cc-pvtz
  freeze_core true
  scf_type df
  mp_type df
}
optimize('mp2')
--------------------------------------------------------------------------
/usr/local/hpc5/psi4conda/lib/python2.7/site-packages/v2rdm_casscf/v2rdm_casscf.so loaded.

  Memory set to  60.000 GiB by Python script.
gradient() will perform analytic gradient computation.

*** tstart() called on wr38
*** at Wed Sep 21 04:57:34 2016


         ---------------------------------------------------------
                                   SCF
            by Justin Turney, Rob Parrish, and Andy Simmonett
                              RHF Reference
                       12 Threads,  60000 MiB Core
         ---------------------------------------------------------

  ==> Geometry <==

    Molecular point group: c1
    Full point group: C1

    Geometry (in Angstrom), charge = 0, multiplicity = 1:

       Center              X                  Y                   Z               Mass       
    ------------   -----------------  -----------------  -----------------  -----------------
           C         -3.162566437043    -0.835635871134    -0.225579744194    12.000000000000
           H         -3.999278712698    -1.301935668132     0.293995929101     1.007825032070
           H         -2.380848544276    -1.587688167282    -0.333408585921     1.007825032070
           H         -3.499838648871    -0.561481945284    -1.226766755429     1.007825032070
           C          3.162665418142     0.835534901784     0.225450804369    12.000000000000
           H          2.381017569067     1.587652175032     0.333287039390     1.007825032070
           H          3.999382288694     1.301740678927    -0.294193575405     1.007825032070
           H          3.499971380468     0.561400483444     1.226626678403     1.007825032070
           C         -2.658716085652     0.389345111138     0.529083426026    12.000000000000
           H         -2.288780048761     0.088555765111     1.511404165064     1.007825032070
           H         -3.493689555587     1.068602092969     0.714571892135     1.007825032070
           C          2.658667287603    -0.389441770544    -0.529118218552    12.000000000000
           H          2.288699120445    -0.088673449598    -1.511429977189     1.007825032070
           H          3.493564371323    -1.068783576171    -0.714620276273     1.007825032070
           C         -1.570472899766     1.152489579518    -0.225771760101    12.000000000000
           H         -1.244139519019     2.002188980138     0.381150091764     1.007825032070
           H         -2.004992289973     1.571346182595    -1.138269322878     1.007825032070
           C         -0.346650446594     0.316302333772    -0.600343786424    12.000000000000
           H          0.357784736688     0.960467489108    -1.132096671135     1.007825032070
           H         -0.630822804085    -0.469634545420    -1.306538016463     1.007825032070
           C          0.346665456630    -0.316140133293     0.600440161578    12.000000000000
           H          0.630934771090     0.469806959660     1.306581386653     1.007825032070
           H         -0.357794035674    -0.960222760476     1.132260779553     1.007825032070
           C          1.570401548386    -1.152446056870     0.225847814260    12.000000000000
           H          2.004942226847    -1.571280467735     1.138343772005     1.007825032070
           H          1.243961020068    -2.002156605180    -0.381002106599     1.007825032070

  Running in c1 symmetry.

  Rotational constants: A =      0.14377  B =      0.02704  C =      0.02519 [cm^-1]
  Rotational constants: A =   4310.10331  B =    810.69770  C =    755.32668 [MHz]
  Nuclear repulsion =  399.662058314946592

  Charge       = 0
  Multiplicity = 1
  Electrons    = 66
  Nalpha       = 33
  Nbeta        = 33

  ==> Algorithm <==

  SCF Algorithm Type is DF.
  DIIS enabled.
  MOM disabled.
  Fractional occupation disabled.
  Guess Type is SAD.
  Energy threshold   = 1.00e-10
  Density threshold  = 1.00e-10
  Integral threshold = 0.00e+00

  ==> Primary Basis <==

  Basis Set: AUG-CC-PVTZ
    Number of shells: 274
    Number of basis function: 782
    Number of Cartesian functions: 890
    Spherical Harmonics?: true
    Max angular momentum: 3

  ==> Pre-Iterations <==

   -------------------------------------------------------
    Irrep   Nso     Nmo     Nalpha   Nbeta   Ndocc  Nsocc
   -------------------------------------------------------
     A        782     782       0       0       0       0
   -------------------------------------------------------
    Total     782     782      33      33      33       0
   -------------------------------------------------------

  ==> Integral Setup <==

  ==> DFJK: Density-Fitted J/K Matrices <==

    J tasked:                  Yes
    K tasked:                  Yes
    wK tasked:                  No
    OpenMP threads:             12
    Integrals threads:          12
    Memory (MB):             42915
    Algorithm:                Core
    Integral Cache:           NONE
    Schwarz Cutoff:          1E-12
    Fitting Condition:       1E-12

   => Auxiliary Basis Set <=

  Basis Set: 
    Number of shells: 492
    Number of basis function: 1660
    Number of Cartesian functions: 2038
    Spherical Harmonics?: true
    Max angular momentum: 4

  Minimum eigenvalue in the overlap matrix is 2.1199563005E-06.
  Using Symmetric Orthogonalization.
  SCF Guess: Superposition of Atomic Densities via on-the-fly atomic UHF.

  ==> Iterations <==

                           Total Energy        Delta E     RMS |[F,P]|

   @DF-RHF iter   0:  -317.05744772785482   -3.17057e+02   7.08255e-03 
   @DF-RHF iter   1:  -313.32144897757956    3.73600e+00   6.34309e-04 
   @DF-RHF iter   2:  -313.51104537400892   -1.89596e-01   2.23868e-04 DIIS
   @DF-RHF iter   3:  -313.53488906810520   -2.38437e-02   1.01262e-04 DIIS
   @DF-RHF iter   4:  -313.53947210298787   -4.58303e-03   1.29015e-05 DIIS
   @DF-RHF iter   5:  -313.53958977937560   -1.17676e-04   3.30877e-06 DIIS
   @DF-RHF iter   6:  -313.53959561003245   -5.83066e-06   8.63515e-07 DIIS
   @DF-RHF iter   7:  -313.53959594846486   -3.38432e-07   1.71255e-07 DIIS
   @DF-RHF iter   8:  -313.53959596549754   -1.70327e-08   3.30768e-08 DIIS
   @DF-RHF iter   9:  -313.53959596606916   -5.71617e-10   9.69041e-09 DIIS
   @DF-RHF iter  10:  -313.53959596612043   -5.12728e-11   2.27955e-09 DIIS
   @DF-RHF iter  11:  -313.53959596612327   -2.84217e-12   5.24662e-10 DIIS
   @DF-RHF iter  12:  -313.53959596612430   -1.02318e-12   1.22128e-10 DIIS
   @DF-RHF iter  13:  -313.53959596612327    1.02318e-12   2.66254e-11 DIIS

  ==> Post-Iterations <==

    Orbital Energies (a.u.)
    -----------------------

    Doubly Occupied:                                                      

       1A    -11.211923     2A    -11.211922     3A    -11.210825  
       4A    -11.210809     5A    -11.209280     6A    -11.208667  
       7A    -11.206902     8A    -11.206900     9A     -1.095655  
      10A     -1.060206    11A     -1.002824    12A     -0.948306  
      13A     -0.887390    14A     -0.843269    15A     -0.780550  
      16A     -0.744414    17A     -0.650353    18A     -0.630363  
      19A     -0.614610    20A     -0.601890    21A     -0.569441  
      22A     -0.557764    23A     -0.540745    24A     -0.535761  
      25A     -0.519589    26A     -0.504112    27A     -0.488775  
      28A     -0.471139    29A     -0.466128    30A     -0.458222  
      31A     -0.448941    32A     -0.437298    33A     -0.432799  

    Virtual:                                                              

      34A      0.030190    35A      0.033037    36A      0.033956  
      37A      0.035494    38A      0.046720    39A      0.047332  
      40A      0.050622    41A      0.053747    42A      0.055240  
      43A      0.066250    44A      0.068102    45A      0.071160  
      46A      0.073916    47A      0.078611    48A      0.089344  
      49A      0.090023    50A      0.093140    51A      0.099534  
      52A      0.113274    53A      0.115586    54A      0.116575  
      55A      0.122725    56A      0.126511    57A      0.130376  
      58A      0.133556    59A      0.135668    60A      0.139143  
      61A      0.148043    62A      0.149284    63A      0.152772  
      64A      0.154708    65A      0.158141    66A      0.160531  
      67A      0.163347    68A      0.163926    69A      0.166626  
      70A      0.170293    71A      0.176690    72A      0.184371  
      73A      0.189024    74A      0.192632    75A      0.199945  
      76A      0.201566    77A      0.213997    78A      0.214825  
      79A      0.231104    80A      0.235196    81A      0.240606  
      82A      0.245081    83A      0.250147    84A      0.250545  
      85A      0.271179    86A      0.280527    87A      0.281870  
      88A      0.286110    89A      0.290115    90A      0.291533  
      91A      0.297611    92A      0.307784    93A      0.309507  
      94A      0.311694    95A      0.317396    96A      0.321319  
      97A      0.322968    98A      0.332721    99A      0.332833  
     100A      0.333710   101A      0.335580   102A      0.341129  
     103A      0.342048   104A      0.351882   105A      0.354973  
     106A      0.357588   107A      0.358161   108A      0.359612  
     109A      0.367260   110A      0.369244   111A      0.375572  
     112A      0.376149   113A      0.384528   114A      0.386376  
     115A      0.393576   116A      0.398607   117A      0.399543  
     118A      0.407511   119A      0.410216   120A      0.411069  
     121A      0.416977   122A      0.421941   123A      0.433213  
     124A      0.433244   125A      0.434923   126A      0.438352  
     127A      0.441430   128A      0.444561   129A      0.448763  
     130A      0.452751   131A      0.456155   132A      0.459275  
     133A      0.463615   134A      0.471596   135A      0.474876  
     136A      0.481174   137A      0.484297   138A      0.489007  
     139A      0.489744   140A      0.491097   141A      0.496178  
     142A      0.502033   143A      0.503319   144A      0.503472  
     145A      0.504916   146A      0.514877   147A      0.516058  
     148A      0.521502   149A      0.523214   150A      0.527965  
     151A      0.530274   152A      0.536419   153A      0.540571  
     154A      0.540833   155A      0.552950   156A      0.560811  
     157A      0.563624   158A      0.567443   159A      0.568794  
     160A      0.574416   161A      0.577643   162A      0.581785  
     163A      0.584551   164A      0.596198   165A      0.597930  
     166A      0.599190   167A      0.601084   168A      0.612844  
     169A      0.616591   170A      0.620023   171A      0.621607  
     172A      0.623942   173A      0.633634   174A      0.635433  
     175A      0.640808   176A      0.650736   177A      0.653521  
     178A      0.657154   179A      0.657185   180A      0.665941  
     181A      0.671800   182A      0.676408   183A      0.678034  
     184A      0.682078   185A      0.690062   186A      0.695528  
     187A      0.698797   188A      0.703961   189A      0.714489  
     190A      0.721772   191A      0.724233   192A      0.735481  
     193A      0.736392   194A      0.737465   195A      0.748296  
     196A      0.756909   197A      0.758781   198A      0.772153  
     199A      0.774563   200A      0.775264   201A      0.800676  
     202A      0.806267   203A      0.814874   204A      0.827024  
     205A      0.828191   206A      0.838145   207A      0.843367  
     208A      0.847215   209A      0.860728   210A      0.865194  
     211A      0.867625   212A      0.870009   213A      0.879748  
     214A      0.883357   215A      0.893526   216A      0.899270  
     217A      0.903968   218A      0.911113   219A      0.911194  
     220A      0.917321   221A      0.922806   222A      0.925795  
     223A      0.928344   224A      0.932414   225A      0.940885  
     226A      0.946543   227A      0.953912   228A      0.958131  
     229A      0.961771   230A      0.964183   231A      0.969863  
     232A      0.973464   233A      0.977376   234A      0.981741  
     235A      0.985868   236A      0.994309   237A      0.999220  
     238A      1.005449   239A      1.006234   240A      1.015039  
     241A      1.015495   242A      1.022549   243A      1.029498  
     244A      1.029577   245A      1.038116   246A      1.042141  
     247A      1.053538   248A      1.055785   249A      1.058885  
     250A      1.062296   251A      1.063506   252A      1.069177  
     253A      1.087571   254A      1.092065   255A      1.095932  
     256A      1.098692   257A      1.105691   258A      1.106769  
     259A      1.121029   260A      1.121333   261A      1.127664  
     262A      1.128546   263A      1.134931   264A      1.140149  
     265A      1.140606   266A      1.152340   267A      1.154482  
     268A      1.160991   269A      1.173003   270A      1.173444  
     271A      1.177294   272A      1.188284   273A      1.192056  
     274A      1.193488   275A      1.204469   276A      1.206328  
     277A      1.214806   278A      1.215763   279A      1.218037  
     280A      1.219056   281A      1.227956   282A      1.237877  
     283A      1.244172   284A      1.244464   285A      1.255443  
     286A      1.263319   287A      1.264853   288A      1.266935  
     289A      1.269287   290A      1.280064   291A      1.284476  
     292A      1.293771   293A      1.296943   294A      1.298799  
     295A      1.307424   296A      1.315477   297A      1.319352  
     298A      1.330231   299A      1.332333   300A      1.336971  
     301A      1.341872   302A      1.358904   303A      1.360976  
     304A      1.364967   305A      1.375616   306A      1.376848  
     307A      1.392761   308A      1.393130   309A      1.399315  
     310A      1.410311   311A      1.421177   312A      1.421658  
     313A      1.434469   314A      1.439883   315A      1.440133  
     316A      1.459286   317A      1.460724   318A      1.464057  
     319A      1.477620   320A      1.480202   321A      1.494173  
     322A      1.495130   323A      1.500043   324A      1.512029  
     325A      1.519089   326A      1.521504   327A      1.534504  
     328A      1.540785   329A      1.550948   330A      1.552563  
     331A      1.554252   332A      1.560668   333A      1.571780  
     334A      1.581170   335A      1.584945   336A      1.585428  
     337A      1.597492   338A      1.599233   339A      1.616016  
     340A      1.616893   341A      1.631110   342A      1.642138  
     343A      1.642420   344A      1.648282   345A      1.653884  
     346A      1.656932   347A      1.666077   348A      1.675270  
     349A      1.680186   350A      1.685117   351A      1.692530  
     352A      1.694403   353A      1.698695   354A      1.717214  
     355A      1.723892   356A      1.730668   357A      1.736803  
     358A      1.739516   359A      1.744980   360A      1.757450  
     361A      1.758885   362A      1.767413   363A      1.776959  
     364A      1.781554   365A      1.789363   366A      1.790754  
     367A      1.793871   368A      1.807049   369A      1.811421  
     370A      1.825494   371A      1.827243   372A      1.834520  
     373A      1.840982   374A      1.844764   375A      1.848504  
     376A      1.855029   377A      1.856023   378A      1.866467  
     379A      1.869216   380A      1.877140   381A      1.888557  
     382A      1.893152   383A      1.895054   384A      1.906285  
     385A      1.910341   386A      1.919214   387A      1.919993  
     388A      1.926736   389A      1.929878   390A      1.942272  
     391A      1.945808   392A      1.955564   393A      1.965260  
     394A      1.967347   395A      1.980743   396A      1.990796  
     397A      1.993537   398A      1.998957   399A      2.004914  
     400A      2.011724   401A      2.013964   402A      2.016374  
     403A      2.023622   404A      2.027452   405A      2.037040  
     406A      2.038939   407A      2.049073   408A      2.054570  
     409A      2.058097   410A      2.078859   411A      2.095342  
     412A      2.098589   413A      2.101637   414A      2.105133  
     415A      2.113021   416A      2.119633   417A      2.124913  
     418A      2.133114   419A      2.139022   420A      2.145340  
     421A      2.147760   422A      2.151138   423A      2.166571  
     424A      2.170949   425A      2.190039   426A      2.197725  
     427A      2.197847   428A      2.226043   429A      2.227808  
     430A      2.245946   431A      2.249210   432A      2.255487  
     433A      2.260102   434A      2.270193   435A      2.277847  
     436A      2.282778   437A      2.285625   438A      2.314887  
     439A      2.320895   440A      2.339119   441A      2.339615  
     442A      2.359281   443A      2.364870   444A      2.367714  
     445A      2.369983   446A      2.390359   447A      2.398002  
     448A      2.399039   449A      2.401388   450A      2.420404  
     451A      2.423274   452A      2.429050   453A      2.435243  
     454A      2.452555   455A      2.469212   456A      2.474642  
     457A      2.476348   458A      2.483638   459A      2.493416  
     460A      2.514107   461A      2.522563   462A      2.523064  
     463A      2.530109   464A      2.544820   465A      2.569321  
     466A      2.574078   467A      2.576526   468A      2.586429  
     469A      2.597766   470A      2.618032   471A      2.633631  
     472A      2.646706   473A      2.647888   474A      2.653402  
     475A      2.696401   476A      2.700260   477A      2.710437  
     478A      2.713703   479A      2.729608   480A      2.745840  
     481A      2.768595   482A      2.780369   483A      2.818588  
     484A      2.881009   485A      2.882680   486A      2.947465  
     487A      2.997224   488A      3.021305   489A      3.036394  
     490A      3.121822   491A      3.206849   492A      3.243071  
     493A      3.281035   494A      3.312114   495A      3.326212  
     496A      3.411801   497A      3.430375   498A      3.442449  
     499A      3.466523   500A      3.469021   501A      3.490368  
     502A      3.499473   503A      3.505037   504A      3.515762  
     505A      3.526392   506A      3.549567   507A      3.568629  
     508A      3.579093   509A      3.579964   510A      3.598742  
     511A      3.603992   512A      3.626403   513A      3.645733  
     514A      3.645763   515A      3.673936   516A      3.680157  
     517A      3.684592   518A      3.686258   519A      3.697178  
     520A      3.698956   521A      3.713746   522A      3.718054  
     523A      3.749011   524A      3.753246   525A      3.760526  
     526A      3.767617   527A      3.774264   528A      3.776657  
     529A      3.780392   530A      3.790012   531A      3.800347  
     532A      3.806528   533A      3.809678   534A      3.821940  
     535A      3.835254   536A      3.847323   537A      3.853651  
     538A      3.866372   539A      3.879452   540A      3.881482  
     541A      3.896821   542A      3.899013   543A      3.908809  
     544A      3.917850   545A      3.920892   546A      3.933870  
     547A      3.944464   548A      3.947787   549A      3.952090  
     550A      3.972427   551A      3.975997   552A      3.980258  
     553A      3.986497   554A      3.999490   555A      4.006691  
     556A      4.013217   557A      4.018186   558A      4.028996  
     559A      4.036911   560A      4.041028   561A      4.042898  
     562A      4.046572   563A      4.050246   564A      4.068738  
     565A      4.069036   566A      4.078177   567A      4.080153  
     568A      4.084376   569A      4.094552   570A      4.100549  
     571A      4.105557   572A      4.117200   573A      4.120699  
     574A      4.134705   575A      4.136463   576A      4.160996  
     577A      4.171978   578A      4.179621   579A      4.186033  
     580A      4.186192   581A      4.199072   582A      4.199593  
     583A      4.212823   584A      4.213031   585A      4.214457  
     586A      4.222634   587A      4.238894   588A      4.240186  
     589A      4.273472   590A      4.285803   591A      4.294842  
     592A      4.298946   593A      4.300772   594A      4.312365  
     595A      4.315625   596A      4.318125   597A      4.328464  
     598A      4.331816   599A      4.372475   600A      4.378182  
     601A      4.384519   602A      4.396668   603A      4.408198  
     604A      4.423090   605A      4.425296   606A      4.432774  
     607A      4.460279   608A      4.461993   609A      4.477254  
     610A      4.481548   611A      4.501380   612A      4.518317  
     613A      4.522020   614A      4.540931   615A      4.570115  
     616A      4.578486   617A      4.584803   618A      4.591501  
     619A      4.611600   620A      4.643008   621A      4.645238  
     622A      4.647905   623A      4.669293   624A      4.679442  
     625A      4.693187   626A      4.697086   627A      4.718970  
     628A      4.720822   629A      4.726777   630A      4.727664  
     631A      4.733669   632A      4.746135   633A      4.759344  
     634A      4.775055   635A      4.792165   636A      4.798359  
     637A      4.800538   638A      4.808944   639A      4.816886  
     640A      4.836589   641A      4.843060   642A      4.857731  
     643A      4.877514   644A      4.884535   645A      4.899287  
     646A      4.908429   647A      4.910756   648A      4.928058  
     649A      4.931320   650A      4.952700   651A      4.959581  
     652A      4.968721   653A      4.981048   654A      4.988037  
     655A      4.993714   656A      5.015271   657A      5.035208  
     658A      5.062841   659A      5.066948   660A      5.077386  
     661A      5.092275   662A      5.095586   663A      5.120767  
     664A      5.145943   665A      5.147368   666A      5.167480  
     667A      5.181111   668A      5.181296   669A      5.184220  
     670A      5.199893   671A      5.209350   672A      5.221139  
     673A      5.231075   674A      5.243760   675A      5.245586  
     676A      5.253772   677A      5.274581   678A      5.279683  
     679A      5.309780   680A      5.312623   681A      5.315843  
     682A      5.336284   683A      5.344266   684A      5.347444  
     685A      5.354864   686A      5.362843   687A      5.378594  
     688A      5.381330   689A      5.413194   690A      5.416839  
     691A      5.419947   692A      5.429718   693A      5.443678  
     694A      5.448340   695A      5.458358   696A      5.458432  
     697A      5.486280   698A      5.494680   699A      5.497227  
     700A      5.526755   701A      5.534421   702A      5.544643  
     703A      5.558774   704A      5.579445   705A      5.604885  
     706A      5.616501   707A      5.619333   708A      5.626694  
     709A      5.630426   710A      5.633674   711A      5.656624  
     712A      5.664576   713A      5.679543   714A      5.689182  
     715A      5.701177   716A      5.706049   717A      5.717081  
     718A      5.722037   719A      5.730126   720A      5.739069  
     721A      5.773221   722A      5.785663   723A      5.793565  
     724A      5.822962   725A      5.823310   726A      5.858377  
     727A      5.868372   728A      5.886275   729A      5.908529  
     730A      5.926439   731A      5.927018   732A      5.962772  
     733A      5.973608   734A      5.975728   735A      6.005857  
     736A      6.020430   737A      6.044698   738A      6.063958  
     739A      6.098304   740A      6.102790   741A      6.146152  
     742A      6.148569   743A      6.175291   744A      6.177234  
     745A      6.188244   746A      6.248792   747A      6.268289  
     748A      6.271975   749A      6.287691   750A      6.321319  
     751A      6.334511   752A      6.339074   753A      6.352459  
     754A      6.358126   755A      6.367794   756A      6.387117  
     757A      6.396382   758A      6.439162   759A      6.612008  
     760A      6.651509   761A      6.673708   762A      6.674692  
     763A      6.755029   764A      6.758474   765A      6.844133  
     766A      6.853670   767A      6.912457   768A      6.927140  
     769A      7.008569   770A      7.014443   771A      7.052122  
     772A      7.053694   773A      7.092106   774A      7.165051  
     775A     17.937069   776A     18.002098   777A     18.237547  
     778A     18.456720   779A     18.503189   780A     19.048464  
     781A     19.338098   782A     19.856853  

    Final Occupation by Irrep:
              A 
    DOCC [    33 ]

  Energy converged.

  @DF-RHF Final Energy:  -313.53959596612327

   => Energetics <=

    Nuclear Repulsion Energy =            399.6620583149465915
    One-Electron Energy =               -1214.4677647822791187
    Two-Electron Energy =                 501.2661105012095391
    DFT Exchange-Correlation Energy =       0.0000000000000000
    Empirical Dispersion Energy =           0.0000000000000000
    PCM Polarization Energy =               0.0000000000000000
    EFP Energy =                            0.0000000000000000
    Total Energy =                       -313.5395959661230449


  Saving occupied orbitals to File 180.

*** tstop() called on wr38 at Wed Sep 21 04:59:07 2016
Module time:
	user time   =    1019.03 seconds =      16.98 minutes
	system time =      11.46 seconds =       0.19 minutes
	total time  =         93 seconds =       1.55 minutes
Total time:
	user time   =    1019.03 seconds =      16.98 minutes
	system time =      11.46 seconds =       0.19 minutes
	total time  =         93 seconds =       1.55 minutes


Properties will be evaluated at   0.000000,   0.000000,   0.000000 Bohr

Properties computed using the SCF density matrix

  Nuclear Dipole Moment: (a.u.)
     X:     0.0001      Y:    -0.0001      Z:    -0.0001

  Electronic Dipole Moment: (a.u.)
     X:    -0.0001      Y:     0.0001      Z:     0.0001

  Dipole Moment: (a.u.)
     X:    -0.0000      Y:     0.0000      Z:     0.0000     Total:     0.0000

  Dipole Moment: (Debye)
     X:    -0.0000      Y:     0.0000      Z:     0.0000     Total:     0.0000


  //>>>>>>>>>>>>>>>>>>>>>>>>>>>>>>>>>>>//
  //               DFMP2               //
  //<<<<<<<<<<<<<<<<<<<<<<<<<<<<<<<<<<<//


*** tstart() called on wr38
*** at Wed Sep 21 04:59:07 2016


*** tstop() called on wr38 at Wed Sep 21 04:59:08 2016
Module time:
	user time   =       4.46 seconds =       0.07 minutes
	system time =       0.22 seconds =       0.00 minutes
	total time  =          1 seconds =       0.02 minutes
Total time:
	user time   =    1024.39 seconds =      17.07 minutes
	system time =      11.72 seconds =       0.20 minutes
	total time  =         94 seconds =       1.57 minutes
	 --------------------------------------------------------
	                          DF-MP2                         
	      2nd-Order Density-Fitted Moller-Plesset Theory     
	              RMP2 Wavefunction,  12 Threads             
	                                                         
	        Rob Parrish, Justin Turney, Andy Simmonett,      
	           Ed Hohenstein, and C. David Sherrill          
	 --------------------------------------------------------

   => Auxiliary Basis Set <=

  Basis Set: 
    Number of shells: 476
    Number of basis function: 1676
    Number of Cartesian functions: 2078
    Spherical Harmonics?: true
    Max angular momentum: 4

	 --------------------------------------------------------
	                 NBF =   782, NAUX =  1676
	 --------------------------------------------------------
	   CLASS    FOCC     OCC    AOCC    AVIR     VIR    FVIR
	   PAIRS       8      33      25     749     749       0
	 --------------------------------------------------------

DGAS Warning! /src/lib/libfock/apps.cc:80 is not currently checking restricted

         ------------------------------------------------------------
                                     CPHF                           
                                  Rob Parrish                       
         ------------------------------------------------------------

  ==> Geometry <==

    Molecular point group: c1
    Full point group: C1

    Geometry (in Angstrom), charge = 0, multiplicity = 1:

       Center              X                  Y                   Z               Mass       
    ------------   -----------------  -----------------  -----------------  -----------------
           C         -3.162566437043    -0.835635871134    -0.225579744194    12.000000000000
           H         -3.999278712698    -1.301935668132     0.293995929101     1.007825032070
           H         -2.380848544276    -1.587688167282    -0.333408585921     1.007825032070
           H         -3.499838648871    -0.561481945284    -1.226766755429     1.007825032070
           C          3.162665418142     0.835534901784     0.225450804369    12.000000000000
           H          2.381017569067     1.587652175032     0.333287039390     1.007825032070
           H          3.999382288694     1.301740678927    -0.294193575405     1.007825032070
           H          3.499971380468     0.561400483444     1.226626678403     1.007825032070
           C         -2.658716085652     0.389345111138     0.529083426026    12.000000000000
           H         -2.288780048761     0.088555765111     1.511404165064     1.007825032070
           H         -3.493689555587     1.068602092969     0.714571892135     1.007825032070
           C          2.658667287603    -0.389441770544    -0.529118218552    12.000000000000
           H          2.288699120445    -0.088673449598    -1.511429977189     1.007825032070
           H          3.493564371323    -1.068783576171    -0.714620276273     1.007825032070
           C         -1.570472899766     1.152489579518    -0.225771760101    12.000000000000
           H         -1.244139519019     2.002188980138     0.381150091764     1.007825032070
           H         -2.004992289973     1.571346182595    -1.138269322878     1.007825032070
           C         -0.346650446594     0.316302333772    -0.600343786424    12.000000000000
           H          0.357784736688     0.960467489108    -1.132096671135     1.007825032070
           H         -0.630822804085    -0.469634545420    -1.306538016463     1.007825032070
           C          0.346665456630    -0.316140133293     0.600440161578    12.000000000000
           H          0.630934771090     0.469806959660     1.306581386653     1.007825032070
           H         -0.357794035674    -0.960222760476     1.132260779553     1.007825032070
           C          1.570401548386    -1.152446056870     0.225847814260    12.000000000000
           H          2.004942226847    -1.571280467735     1.138343772005     1.007825032070
           H          1.243961020068    -2.002156605180    -0.381002106599     1.007825032070

  Nuclear repulsion =  399.662058314946592
  Reference energy  = -313.539595966123272

  ==> Basis Set <==

  Basis Set: AUG-CC-PVTZ
    Number of shells: 274
    Number of basis function: 782
    Number of Cartesian functions: 890
    Spherical Harmonics?: true
    Max angular momentum: 3

  ==> CGRSolver (by Rob Parrish) <==

   Number of roots    =         1
   Preconditioning    =    JACOBI
   Convergence cutoff =     1E-06
   Maximum iterations =       100

  ==> CPHFRHamiltonian (by Rob Parrish) <== 

  ==> DFJK: Density-Fitted J/K Matrices <==

    J tasked:                  Yes
    K tasked:                  Yes
    wK tasked:                  No
    OpenMP threads:             12
    Integrals threads:          12
    Memory (MB):             42915
    Algorithm:                Core
    Integral Cache:           NONE
    Schwarz Cutoff:          1E-12
    Fitting Condition:       1E-12

   => Auxiliary Basis Set <=

  Basis Set: 
    Number of shells: 492
    Number of basis function: 1660
    Number of Cartesian functions: 2038
    Spherical Harmonics?: true
    Max angular momentum: 4

  ==> CPHF Iterations <==

  => Iterations <=

             Iter  Converged  Remaining    Residual
  CGR           1          0          1   9.320E-02
  CGR           2          0          1   1.306E-02
  CGR           3          0          1   3.449E-03
  CGR           4          0          1   8.497E-04
  CGR           5          0          1   2.022E-04
  CGR           6          0          1   4.175E-05
  CGR           7          0          1   1.248E-05
  CGR           8          0          1   2.703E-06
  CGR           9          1          0   5.809E-07

    CGRSolver converged.

  ==> DFCorrGrad: Density-Fitted Correlated Gradients <==

    OpenMP threads:             12
    Integrals threads:          12
    Memory (MB):             42915
    Schwarz Cutoff:          0E+00
    Fitting Condition:       1E-12

   => Auxiliary Basis Set <=

  Basis Set: 
    Number of shells: 492
    Number of basis function: 1660
    Number of Cartesian functions: 2038
    Spherical Harmonics?: true
    Max angular momentum: 4

	-----------------------------------------------------------
	 ==================> DF-MP2 Energies <==================== 
	-----------------------------------------------------------
	 Reference Energy          =    -313.5395959661232723 [Eh]
	 Singles Energy            =      -0.0000000000000000 [Eh]
	 Same-Spin Energy          =      -0.3172130420914347 [Eh]
	 Opposite-Spin Energy      =      -1.1264542788436005 [Eh]
	 Correlation Energy        =      -1.4436673209350352 [Eh]
	 Total Energy              =    -314.9832632870583211 [Eh]
	-----------------------------------------------------------
	 ================> DF-SCS-MP2 Energies <================== 
	-----------------------------------------------------------
	 SCS Same-Spin Scale       =       0.3333333333333333 [-]
	 SCS Opposite-Spin Scale   =       1.2000000000000000 [-]
	 SCS Same-Spin Energy      =      -0.1057376806971449 [Eh]
	 SCS Opposite-Spin Energy  =      -1.3517451346123206 [Eh]
	 SCS Correlation Energy    =      -1.4574828153094654 [Eh]
	 SCS Total Energy          =    -314.9970787814327196 [Eh]
	-----------------------------------------------------------


  -Total Gradient:
     Atom            X                  Y                   Z
    ------   -----------------  -----------------  -----------------
       1        0.000000369559     0.000001124186     0.000001063552
       2       -0.000000882768    -0.000000249277     0.000000696513
       3        0.000000757714    -0.000001024190    -0.000000312727
       4       -0.000000498287     0.000000187435    -0.000001279999
       5       -0.000000151022     0.000000931695     0.000000120488
       6        0.000001175785    -0.000000937490    -0.000000198535
       7       -0.000000975635    -0.000000552685     0.000000590579
       8       -0.000000448864     0.000000119607    -0.000001349813
       9        0.000001089376    -0.000000514052    -0.000000664110
      10        0.000000551815    -0.000000220188     0.000000274916
      11       -0.000000888922     0.000000507722     0.000000024580
      12        0.000001365250    -0.000000121540    -0.000000512906
      13        0.000000604620    -0.000000378773     0.000001249339
      14       -0.000000713309     0.000000337666     0.000000028778
      15        0.000000853804     0.000000238519     0.000000737762
      16       -0.000000398910    -0.000000702479    -0.000000591322
      17        0.000000005312     0.000000273566    -0.000000313568
      18        0.000000061542     0.000000419024    -0.000000284977
      19       -0.000000503001    -0.000000476650     0.000000930836
      20        0.000000407179     0.000000274137     0.000000343931
      21       -0.000000900248     0.000000185735     0.000000889854
      22       -0.000000375727    -0.000000828171    -0.000001104699
      23        0.000000042740     0.000000940751     0.000000063369
      24       -0.000000744189     0.000000170597    -0.000000279006
      25        0.000000052921     0.000000160836    -0.000000226484
      26        0.000000143263     0.000000134021     0.000000103646


			-----------------------------------------
			 OPTKING 2.0: for geometry optimizations 
			  - R.A. King,  Bethel University        
			-----------------------------------------

	Internal coordinates to be generated automatically.
	Detected frag 1 with atoms:  1 2 3 4 5 6 7 8 9 10 11 12 13 14 15 16 17 18 19 20
	 21 22 23 24 25 26
	---Fragment 1 Bond Connectivity---
	 1 : 2 3 4 9
	 2 : 1
	 3 : 1
	 4 : 1
	 5 : 6 7 8 12
	 6 : 5
	 7 : 5
	 8 : 5
	 9 : 1 10 11 15
	 10 : 9
	 11 : 9
	 12 : 5 13 14 24
	 13 : 12
	 14 : 12
	 15 : 9 16 17 18
	 16 : 15
	 17 : 15
	 18 : 15 19 20 21
	 19 : 18
	 20 : 18
	 21 : 18 22 23 24
	 22 : 21
	 23 : 21
	 24 : 12 21 25 26
	 25 : 24
	 26 : 24

	---Fragment 1 Geometry and Gradient---
	 C          -5.9763844431       -1.5791229433       -0.4262839377
	 H          -7.5575414961       -2.4603018554        0.5555717902
	 H          -4.4991517126       -3.0002958206       -0.6300509177
	 H          -6.6137365557       -1.0610471051       -2.3182531967
	 C           5.9765714902        1.5789321388        0.4260402767
	 H           4.4994711231        3.0002278051        0.6298212281
	 H           7.5577372263        2.4599333792       -0.5559452876
	 H           6.6139873820        1.0608931646        2.3179884895
	 C          -5.0242452670        0.7357556312        0.9998227766
	 H          -4.3251674706        0.1673461435        2.8561399481
	 H          -6.6021164534        2.0193653007        1.3503451784
	 C           5.0241530520       -0.7359382910       -0.9998885250
	 H           4.3250145382       -0.1675685350       -2.8561887259
	 H           6.6018798894       -2.0197082543       -1.3504366112
	 C          -2.9677636797        2.1778896763       -0.4266467951
	 H          -2.3510829620        3.7835888387        0.7202692890
	 H          -3.7888863266        2.9694139451       -2.1510172857
	 C          -0.6550744079        0.5977247860       -1.1344853419
	 H           0.6761151669        1.8150205140       -2.1393526644
	 H          -1.1920823381       -0.8874806734       -2.4689990333
	 C           0.6551027728       -0.5974182715        1.1346674646
	 H           1.1922939251        0.8878064891        2.4690809911
	 H          -0.6761327394       -1.8145580439        2.1396627844
	 C           2.9676288451       -2.1778074304        0.4267905167
	 H           3.7887917210       -2.9692897620        2.1511579742
	 H           2.3507456479       -3.7835276589       -0.7199896375
	             0.0000003696        0.0000011242        0.0000010636
	            -0.0000008828       -0.0000002493        0.0000006965
	             0.0000007577       -0.0000010242       -0.0000003127
	            -0.0000004983        0.0000001874       -0.0000012800
	            -0.0000001510        0.0000009317        0.0000001205
	             0.0000011758       -0.0000009375       -0.0000001985
	            -0.0000009756       -0.0000005527        0.0000005906
	            -0.0000004489        0.0000001196       -0.0000013498
	             0.0000010894       -0.0000005141       -0.0000006641
	             0.0000005518       -0.0000002202        0.0000002749
	            -0.0000008889        0.0000005077        0.0000000246
	             0.0000013652       -0.0000001215       -0.0000005129
	             0.0000006046       -0.0000003788        0.0000012493
	            -0.0000007133        0.0000003377        0.0000000288
	             0.0000008538        0.0000002385        0.0000007378
	            -0.0000003989       -0.0000007025       -0.0000005913
	             0.0000000053        0.0000002736       -0.0000003136
	             0.0000000615        0.0000004190       -0.0000002850
	            -0.0000005030       -0.0000004767        0.0000009308
	             0.0000004072        0.0000002741        0.0000003439
	            -0.0000009002        0.0000001857        0.0000008899
	            -0.0000003757       -0.0000008282       -0.0000011047
	             0.0000000427        0.0000009408        0.0000000634
	            -0.0000007442        0.0000001706       -0.0000002790
	             0.0000000529        0.0000001608       -0.0000002265
	             0.0000001433        0.0000001340        0.0000001036

	Previous optimization step data not found.  Starting new optimization.

	---Fragment 1 Intrafragment Coordinates---
	 - Coordinate -           - BOHR/RAD -       - ANG/DEG -
	 R(1,2)           =         2.059266	       1.089716
	 R(1,3)           =         2.059968	       1.090088
	 R(1,4)           =         2.062563	       1.091462
	 R(1,9)           =         2.880801	       1.524454
	 R(5,6)           =         2.059960	       1.090084
	 R(5,7)           =         2.059258	       1.089712
	 R(5,8)           =         2.062555	       1.091457
	 R(5,12)          =         2.880798	       1.524453
	 R(9,10)          =         2.063423	       1.091916
	 R(9,11)          =         2.064025	       1.092235
	 R(9,15)          =         2.888543	       1.528551
	 R(12,13)         =         2.063417	       1.091913
	 R(12,14)         =         2.064018	       1.092231
	 R(12,24)         =         2.888545	       1.528552
	 R(15,16)         =         2.067361	       1.094000
	 R(15,17)         =         2.067415	       1.094029
	 R(15,18)         =         2.889029	       1.528808
	 R(18,19)         =         2.064857	       1.092675
	 R(18,20)         =         2.067641	       1.094149
	 R(18,21)         =         2.879928	       1.523992
	 R(21,22)         =         2.067638	       1.094147
	 R(21,23)         =         2.064857	       1.092675
	 R(21,24)         =         2.889030	       1.528809
	 R(24,25)         =         2.067413	       1.094028
	 R(24,26)         =         2.067362	       1.094001
	 B(1,9,10)        =         1.913434	     109.631711
	 B(1,9,11)        =         1.908300	     109.337546
	 B(1,9,15)        =         1.973623	     113.080257
	 B(2,1,3)         =         1.878182	     107.611895
	 B(2,1,4)         =         1.883445	     107.913447
	 B(2,1,9)         =         1.940769	     111.197878
	 B(3,1,4)         =         1.879841	     107.706957
	 B(3,1,9)         =         1.945853	     111.489160
	 B(4,1,9)         =         1.933056	     110.755948
	 B(5,12,13)       =         1.913435	     109.631734
	 B(5,12,14)       =         1.908307	     109.337947
	 B(5,12,24)       =         1.973616	     113.079852
	 B(6,5,7)         =         1.878181	     107.611869
	 B(6,5,8)         =         1.879843	     107.707099
	 B(6,5,12)        =         1.945849	     111.488962
	 B(7,5,8)         =         1.883446	     107.913510
	 B(7,5,12)        =         1.940775	     111.198193
	 B(8,5,12)        =         1.933051	     110.755663
	 B(9,15,16)       =         1.903047	     109.036557
	 B(9,15,17)       =         1.896816	     108.679538
	 B(9,15,18)       =         2.001862	     114.698240
	 B(10,9,11)       =         1.852019	     106.112873
	 B(10,9,15)       =         1.918349	     109.913319
	 B(11,9,15)       =         1.894028	     108.519836
	 B(12,24,21)      =         2.001870	     114.698675
	 B(12,24,25)      =         1.896811	     108.679238
	 B(12,24,26)      =         1.903047	     109.036547
	 B(13,12,14)      =         1.852019	     106.112874
	 B(13,12,24)      =         1.918350	     109.913386
	 B(14,12,24)      =         1.894027	     108.519777
	 B(15,18,19)      =         1.889006	     108.232068
	 B(15,18,20)      =         1.921022	     110.066449
	 B(15,18,21)      =         1.980253	     113.460146
	 B(16,15,17)      =         1.858585	     106.489104
	 B(16,15,18)      =         1.898587	     108.780998
	 B(17,15,18)      =         1.899684	     108.843868
	 B(18,21,22)      =         1.905626	     109.184335
	 B(18,21,23)      =         1.912199	     109.560940
	 B(18,21,24)      =         1.980249	     113.459886
	 B(19,18,20)      =         1.851263	     106.069582
	 B(19,18,21)      =         1.912191	     109.560492
	 B(20,18,21)      =         1.905627	     109.184410
	 B(21,24,25)      =         1.899685	     108.843946
	 B(21,24,26)      =         1.898582	     108.780708
	 B(22,21,23)      =         1.851262	     106.069472
	 B(22,21,24)      =         1.921024	     110.066551
	 B(23,21,24)      =         1.889004	     108.231974
	 B(25,24,26)      =         1.858587	     106.489168
	 D(1,9,15,16)     =        -3.121559	    -178.852154
	 D(1,9,15,17)     =         1.142344	      65.451488
	 D(1,9,15,18)     =        -0.987960	     -56.605918
	 D(2,1,9,10)      =         1.087379	      62.302207
	 D(2,1,9,11)      =        -0.936185	     -53.639443
	 D(2,1,9,15)      =        -3.048519	    -174.667286
	 D(3,1,9,10)      =        -1.008699	     -57.794201
	 D(3,1,9,11)      =        -3.032263	    -173.735851
	 D(3,1,9,15)      =         1.138588	      65.236306
	 D(4,1,9,10)      =        -3.101664	    -177.712238
	 D(4,1,9,11)      =         1.157958	      66.346113
	 D(4,1,9,15)      =        -0.954376	     -54.681730
	 D(5,12,24,21)    =         0.987969	      56.606439
	 D(5,12,24,25)    =        -1.142338	     -65.451141
	 D(5,12,24,26)    =         3.121567	     178.852594
	 D(6,5,12,13)     =         1.008702	      57.794350
	 D(6,5,12,14)     =         3.032269	     173.736241
	 D(6,5,12,24)     =        -1.138583	     -65.235977
	 D(7,5,12,13)     =        -1.087377	     -62.302106
	 D(7,5,12,14)     =         0.936191	      53.639786
	 D(7,5,12,24)     =         3.048524	     174.667568
	 D(8,5,12,13)     =         3.101664	     177.712242
	 D(8,5,12,14)     =        -1.157954	     -66.345866
	 D(8,5,12,24)     =         0.954379	      54.681915
	 D(9,15,18,19)    =         3.140684	     179.947923
	 D(9,15,18,20)    =         1.124734	      64.442520
	 D(9,15,18,21)    =        -1.016381	     -58.234336
	 D(10,9,15,16)    =        -0.976997	     -55.977815
	 D(10,9,15,17)    =        -2.996280	    -171.674173
	 D(10,9,15,18)    =         1.156602	      66.268421
	 D(11,9,15,16)    =         1.041229	      59.658037
	 D(11,9,15,17)    =        -0.978053	     -56.038321
	 D(11,9,15,18)    =        -3.108357	    -178.095727
	 D(12,24,21,18)   =         1.016361	      58.233212
	 D(12,24,21,22)   =        -1.124750	     -64.443439
	 D(12,24,21,23)   =        -3.140698	    -179.948714
	 D(13,12,24,21)   =        -1.156589	     -66.267694
	 D(13,12,24,25)   =         2.996289	     171.674727
	 D(13,12,24,26)   =         0.977008	      55.978461
	 D(14,12,24,21)   =         3.108369	     178.096450
	 D(14,12,24,25)   =         0.978063	      56.038871
	 D(14,12,24,26)   =        -1.041218	     -59.657395
	 D(15,18,21,22)   =        -0.992106	     -56.843481
	 D(15,18,21,23)   =         1.028345	      58.919825
	 D(15,18,21,24)   =         3.141487	     179.993953
	 D(16,15,18,19)   =        -1.006487	     -57.667447
	 D(16,15,18,20)   =        -3.022436	    -173.172850
	 D(16,15,18,21)   =         1.119634	      64.150294
	 D(17,15,18,19)   =         1.011938	      57.979804
	 D(17,15,18,20)   =        -1.004011	     -57.525599
	 D(17,15,18,21)   =         3.138059	     179.797545
	 D(18,21,24,25)   =        -3.138079	    -179.798700
	 D(18,21,24,26)   =        -1.119655	     -64.151488
	 D(19,18,21,22)   =         1.121036	      64.230619
	 D(19,18,21,23)   =         3.141487	     179.993925
	 D(19,18,21,24)   =        -1.028557	     -58.931947
	 D(20,18,21,22)   =         3.141485	     179.993848
	 D(20,18,21,23)   =        -1.121249	     -64.242845
	 D(20,18,21,24)   =         0.991893	      56.831282
	 D(22,21,24,25)   =         1.003995	      57.524649
	 D(22,21,24,26)   =         3.022419	     173.171861
	 D(23,21,24,25)   =        -1.011953	     -57.980625
	 D(23,21,24,26)   =         1.006472	      57.666587
	 R(1,21)          =         6.883091	       3.642375
	 R(5,18)          =         6.883076	       3.642367

	Current energy   :      -314.9832632871

	Generating empirical Hessian (Schlegel '84) for each fragment.
	Taking RFO optimization step.
	Going to follow RFO solution 1.
	Using RFO vector 1.
	Norm of target step-size    0.00048
	Projected energy change by RFO approximation:         0.0000000016

	Back-transformation to cartesian coordinates...
	Successfully converged to displaced geometry.

	--- Internal Coordinate Step in ANG or DEG, aJ/ANG or AJ/DEG ---
	 ---------------------------------------------------------------------------
	   Coordinate                Previous        Force       Change         New 
	   ----------                --------       ------       ------       ------
	    1 R(1,2)          =      1.089716    -0.000009    -0.000002     1.089715
	    2 R(1,3)          =      1.090088    -0.000011    -0.000002     1.090086
	    3 R(1,4)          =      1.091462    -0.000011    -0.000002     1.091459
	    4 R(1,9)          =      1.524454    -0.000003    -0.000000     1.524454
	    5 R(5,6)          =      1.090084     0.000012     0.000002     1.090086
	    6 R(5,7)          =      1.089712     0.000010     0.000002     1.089714
	    7 R(5,8)          =      1.091457     0.000012     0.000002     1.091459
	    8 R(5,12)         =      1.524453     0.000008     0.000001     1.524454
	    9 R(9,10)         =      1.091916    -0.000004    -0.000001     1.091915
	   10 R(9,11)         =      1.092235    -0.000008    -0.000001     1.092233
	   11 R(9,15)         =      1.528551    -0.000000     0.000000     1.528552
	   12 R(12,13)        =      1.091913     0.000012     0.000002     1.091915
	   13 R(12,14)        =      1.092231     0.000006     0.000001     1.092233
	   14 R(12,24)        =      1.528552    -0.000002    -0.000001     1.528551
	   15 R(15,16)        =      1.094000     0.000008     0.000002     1.094002
	   16 R(15,17)        =      1.094029    -0.000003    -0.000001     1.094029
	   17 R(15,18)        =      1.528808     0.000007     0.000002     1.528810
	   18 R(18,19)        =      1.092675     0.000009     0.000002     1.092677
	   19 R(18,20)        =      1.094149     0.000004     0.000001     1.094149
	   20 R(18,21)        =      1.523992     0.000009     0.000002     1.523994
	   21 R(21,22)        =      1.094147     0.000012     0.000002     1.094149
	   22 R(21,23)        =      1.092675     0.000005     0.000001     1.092676
	   23 R(21,24)        =      1.528809    -0.000001    -0.000001     1.528808
	   24 R(24,25)        =      1.094028     0.000002     0.000000     1.094028
	   25 R(24,26)        =      1.094001     0.000002     0.000000     1.094001
	   26 B(1,9,10)       =    109.631711     0.000000     0.000066   109.631777
	   27 B(1,9,11)       =    109.337546     0.000000     0.000164   109.337711
	   28 B(1,9,15)       =    113.080257    -0.000000    -0.000264   113.079993
	   29 B(2,1,3)        =    107.611895     0.000000    -0.000002   107.611894
	   30 B(2,1,4)        =    107.913447    -0.000000     0.000048   107.913495
	   31 B(2,1,9)        =    111.197878     0.000000     0.000186   111.198064
	   32 B(3,1,4)        =    107.706957     0.000000     0.000050   107.707007
	   33 B(3,1,9)        =    111.489160    -0.000000    -0.000192   111.488968
	   34 B(4,1,9)        =    110.755948    -0.000000    -0.000085   110.755863
	   35 B(5,12,13)      =    109.631734     0.000000     0.000134   109.631868
	   36 B(5,12,14)      =    109.337947    -0.000000    -0.000109   109.337838
	   37 B(5,12,24)      =    113.079852    -0.000000    -0.000119   113.079733
	   38 B(6,5,7)        =    107.611869     0.000000     0.000026   107.611896
	   39 B(6,5,8)        =    107.707099    -0.000000    -0.000044   107.707054
	   40 B(6,5,12)       =    111.488962    -0.000000    -0.000093   111.488869
	   41 B(7,5,8)        =    107.913510    -0.000000    -0.000009   107.913501
	   42 B(7,5,12)       =    111.198193    -0.000000    -0.000019   111.198174
	   43 B(8,5,12)       =    110.755663     0.000000     0.000137   110.755800
	   44 B(9,15,16)      =    109.036557    -0.000000     0.000138   109.036695
	   45 B(9,15,17)      =    108.679538    -0.000000    -0.000328   108.679209
	   46 B(9,15,18)      =    114.698240     0.000000     0.000380   114.698620
	   47 B(10,9,11)      =    106.112873    -0.000000    -0.000109   106.112764
	   48 B(10,9,15)      =    109.913319     0.000000     0.000230   109.913549
	   49 B(11,9,15)      =    108.519836     0.000000    -0.000080   108.519757
	   50 B(12,24,21)     =    114.698675    -0.000000    -0.000454   114.698222
	   51 B(12,24,25)     =    108.679238     0.000000     0.000240   108.679478
	   52 B(12,24,26)     =    109.036547     0.000000     0.000098   109.036645
	   53 B(13,12,14)     =    106.112874     0.000000     0.000080   106.112955
	   54 B(13,12,24)     =    109.913386    -0.000000     0.000002   109.913389
	   55 B(14,12,24)     =    108.519777     0.000000     0.000022   108.519798
	   56 B(15,18,19)     =    108.232068    -0.000000    -0.000248   108.231820
	   57 B(15,18,20)     =    110.066449    -0.000000    -0.000042   110.066407
	   58 B(15,18,21)     =    113.460146     0.000000     0.000368   113.460514
	   59 B(16,15,17)     =    106.489104     0.000000    -0.000007   106.489097
	   60 B(16,15,18)     =    108.780998    -0.000000     0.000050   108.781048
	   61 B(17,15,18)     =    108.843868    -0.000000    -0.000259   108.843609
	   62 B(18,21,22)     =    109.184335     0.000000     0.000158   109.184493
	   63 B(18,21,23)     =    109.560940    -0.000000     0.000078   109.561019
	   64 B(18,21,24)     =    113.459886     0.000000    -0.000075   113.459811
	   65 B(19,18,20)     =    106.069582     0.000000    -0.000173   106.069408
	   66 B(19,18,21)     =    109.560492     0.000000    -0.000009   109.560482
	   67 B(20,18,21)     =    109.184410    -0.000000     0.000066   109.184475
	   68 B(21,24,25)     =    108.843946     0.000000     0.000100   108.844046
	   69 B(21,24,26)     =    108.780708     0.000000    -0.000013   108.780695
	   70 B(22,21,23)     =    106.069472     0.000000     0.000126   106.069598
	   71 B(22,21,24)     =    110.066551    -0.000000    -0.000106   110.066445
	   72 B(23,21,24)     =    108.231974    -0.000000    -0.000169   108.231805
	   73 B(25,24,26)     =    106.489168    -0.000000     0.000064   106.489232
	   74 D(1,9,15,16)    =   -178.852154     0.000000     0.003821  -178.848332
	   75 D(1,9,15,17)    =     65.451488     0.000000     0.003934    65.455422
	   76 D(1,9,15,18)    =    -56.605918     0.000000     0.004257   -56.601660
	   77 D(2,1,9,10)     =     62.302207     0.000000     0.000447    62.302654
	   78 D(2,1,9,11)     =    -53.639443    -0.000000     0.000447   -53.638996
	   79 D(2,1,9,15)     =   -174.667286     0.000000     0.000607  -174.666678
	   80 D(3,1,9,10)     =    -57.794201     0.000000     0.000452   -57.793749
	   81 D(3,1,9,11)     =   -173.735851    -0.000000     0.000452  -173.735399
	   82 D(3,1,9,15)     =     65.236306     0.000000     0.000613    65.236919
	   83 D(4,1,9,10)     =   -177.712238     0.000000     0.000574  -177.711664
	   84 D(4,1,9,11)     =     66.346113    -0.000000     0.000574    66.346686
	   85 D(4,1,9,15)     =    -54.681730     0.000000     0.000734   -54.680996
	   86 D(5,12,24,21)   =     56.606439     0.000000     0.001505    56.607943
	   87 D(5,12,24,25)   =    -65.451141     0.000000     0.001506   -65.449635
	   88 D(5,12,24,26)   =    178.852594     0.000000     0.001246   178.853839
	   89 D(6,5,12,13)    =     57.794350    -0.000000     0.000076    57.794426
	   90 D(6,5,12,14)    =    173.736241     0.000000     0.000186   173.736428
	   91 D(6,5,12,24)    =    -65.235977    -0.000000     0.000058   -65.235919
	   92 D(7,5,12,13)    =    -62.302106     0.000000     0.000119   -62.301987
	   93 D(7,5,12,14)    =     53.639786     0.000000     0.000229    53.640015
	   94 D(7,5,12,24)    =    174.667568     0.000000     0.000100   174.667668
	   95 D(8,5,12,13)    =    177.712242    -0.000000     0.000050   177.712292
	   96 D(8,5,12,14)    =    -66.345866     0.000000     0.000161   -66.345705
	   97 D(8,5,12,24)    =     54.681915    -0.000000     0.000032    54.681947
	   98 D(9,15,18,19)   =    179.947923    -0.000000    -0.003548   179.944375
	   99 D(9,15,18,20)   =     64.442520     0.000000    -0.003179    64.439340
	  100 D(9,15,18,21)   =    -58.234336    -0.000000    -0.003495   -58.237832
	  101 D(10,9,15,16)   =    -55.977815    -0.000000     0.003891   -55.973924
	  102 D(10,9,15,17)   =   -171.674173     0.000000     0.004003  -171.670170
	  103 D(10,9,15,18)   =     66.268421     0.000000     0.004327    66.272748
	  104 D(11,9,15,16)   =     59.658037     0.000000     0.003842    59.661879
	  105 D(11,9,15,17)   =    -56.038321     0.000000     0.003954   -56.034367
	  106 D(11,9,15,18)   =   -178.095727     0.000000     0.004277  -178.091450
	  107 D(12,24,21,18)  =     58.233212     0.000000    -0.000527    58.232685
	  108 D(12,24,21,22)  =    -64.443439    -0.000000    -0.000599   -64.444038
	  109 D(12,24,21,23)  =   -179.948714     0.000000    -0.000598  -179.949311
	  110 D(13,12,24,21)  =    -66.267694     0.000000     0.001413   -66.266280
	  111 D(13,12,24,25)  =    171.674727     0.000000     0.001414   171.676141
	  112 D(13,12,24,26)  =     55.978461    -0.000000     0.001154    55.979616
	  113 D(14,12,24,21)  =    178.096450     0.000000     0.001304   178.097754
	  114 D(14,12,24,25)  =     56.038871     0.000000     0.001305    56.040175
	  115 D(14,12,24,26)  =    -59.657395    -0.000000     0.001045   -59.656350
	  116 D(15,18,21,22)  =    -56.843481     0.000000     0.007422   -56.836059
	  117 D(15,18,21,23)  =     58.919825     0.000000     0.007705    58.927531
	  118 D(15,18,21,24)  =    179.993953     0.000000     0.007494   180.001447
	  119 D(16,15,18,19)  =    -57.667447    -0.000000    -0.003067   -57.670513
	  120 D(16,15,18,20)  =   -173.172850     0.000000    -0.002698  -173.175548
	  121 D(16,15,18,21)  =     64.150294     0.000000    -0.003014    64.147280
	  122 D(17,15,18,19)  =     57.979804    -0.000000    -0.003188    57.976616
	  123 D(17,15,18,20)  =    -57.525599     0.000000    -0.002819   -57.528418
	  124 D(17,15,18,21)  =    179.797545     0.000000    -0.003135   179.794410
	  125 D(18,21,24,25)  =   -179.798700     0.000000    -0.000453  -179.799153
	  126 D(18,21,24,26)  =    -64.151488     0.000000    -0.000330   -64.151818
	  127 D(19,18,21,22)  =     64.230619     0.000000     0.007346    64.237965
	  128 D(19,18,21,23)  =    179.993925     0.000000     0.007629   180.001555
	  129 D(19,18,21,24)  =    -58.931947     0.000000     0.007418   -58.924529
	  130 D(20,18,21,22)  =    179.993848     0.000000     0.007170   180.001018
	  131 D(20,18,21,23)  =    -64.242845     0.000000     0.007453   -64.235392
	  132 D(20,18,21,24)  =     56.831282     0.000000     0.007242    56.838525
	  133 D(22,21,24,25)  =     57.524649    -0.000000    -0.000525    57.524124
	  134 D(22,21,24,26)  =    173.171861    -0.000000    -0.000402   173.171459
	  135 D(23,21,24,25)  =    -57.980625     0.000000    -0.000524   -57.981149
	  136 D(23,21,24,26)  =     57.666587     0.000000    -0.000400    57.666186
	  137 R(1,21)         =      3.642375     0.000004    -0.000000     3.642374
	  138 R(5,18)         =      3.642367    -0.000003     0.000004     3.642371
	 ---------------------------------------------------------------------------

  ==> Convergence Check <==

  Measures of convergence in internal coordinates in au.
  Criteria marked as inactive (o), active & met (*), and active & unmet ( ).
  --------------------------------------------------------------------------------------------- ~
   Step     Total Energy     Delta E     MAX Force     RMS Force      MAX Disp      RMS Disp    ~
  --------------------------------------------------------------------------------------------- ~
    Convergence Criteria             o    2.00e-06 *    1.00e-06 *    6.00e-06 *    4.00e-06 *  ~
  --------------------------------------------------------------------------------------------- ~
      1    -314.98326329   -3.15e+02 o    1.48e-06 *    4.82e-07 *    1.34e-04      4.08e-05    ~
  ---------------------------------------------------------------------------------------------

	Writing optimization data to binary file.
	Structure for next step:
	Cartesian Geometry (in Angstrom)
	    C    -3.1625934797  -0.8355906486  -0.2255459692
	    H    -3.9993476841  -1.3018314945   0.2940115278
	    H    -2.3809014283  -1.5876775693  -0.3333004551
	    H    -3.4998058771  -0.5614711611  -1.2267602652
	    C     3.1626237652   0.8355810630   0.2254847380
	    H     2.3809391997   1.5876582794   0.3333569162
	    H     3.9993148486   1.3018468436  -0.2941513620
	    H     3.4999530923   0.5614257902   1.2266493697
	    C    -2.6587258058   0.3894061679   0.5290796107
	    H    -2.2888394030   0.0886499212   1.5114282915
	    H    -3.4936775016   1.0687046866   0.7145051623
	    C     2.6586749027  -0.3893910355  -0.5291272481
	    H     2.2886831033  -0.0886041002  -1.5114268016
	    H     3.4936034098  -1.0686877833  -0.7146599369
	    C    -1.5704270136   1.1524717379  -0.2257760822
	    H    -1.2440309757   2.0021504665   0.3811437677
	    H    -2.0049215263   1.5713572051  -1.1382716154
	    C    -0.3466628851   0.3162005575  -0.6003600834
	    H     0.3577850040   0.9603091688  -1.1321679666
	    H    -0.6309050575  -0.4697472369  -1.3065153476
	    C     0.3466715692  -0.3162343715   0.6004196510
	    H     0.6308975752   0.4697112225   1.3065833608
	    H    -0.3577607450  -0.9603665068   1.1322180481
	    C     1.5704518674  -1.1524717624   0.2258212640
	    H     2.0050102276  -1.5712993586   1.1383123999
	    H     1.2440579853  -2.0021883653  -0.3810458309
			--------------------------
			 OPTKING Finished Execution 
			--------------------------

    Structure for next step:
    Molecular point group: c1
    Full point group: C1

    Geometry (in Angstrom), charge = 0, multiplicity = 1:

    C           -3.162595317076    -0.835587144505    -0.225544734935
    H           -3.999349521436    -1.301827990391     0.294012762028
    H           -2.380903265626    -1.587674065160    -0.333299220900
    H           -3.499807714467    -0.561467657019    -1.226759030999
    C            3.162621927862     0.835584567143     0.225485972266
    H            2.380937362331     1.587661783507     0.333358150415
    H            3.999313011226     1.301850347670    -0.294150127827
    H            3.499951254904     0.561429294280     1.226650603960
    C           -2.658727643137     0.389409671983     0.529080844961
    H           -2.288841240338     0.088653425318     1.511429525717
    H           -3.493679338944     1.068708190743     0.714506396566
    C            2.658673065342    -0.389387531385    -0.529126013871
    H            2.288681265932    -0.088600596132    -1.511425567391
    H            3.493601572488    -1.068684279213    -0.714658702634
    C           -1.570428850911     1.152475242013    -0.225774847961
    H           -1.244032813095     2.002153970591     0.381145001872
    H           -2.004923363611     1.571360709246    -1.138270381208
    C           -0.346664722409     0.316204061647    -0.600358849134
    H            0.357783166673     0.960312672874    -1.132166732354
    H           -0.630906894867    -0.469743732743    -1.306514113413
    C            0.346669731866    -0.316230867402     0.600420885228
    H            0.630895737815     0.469714726593     1.306584595029
    H           -0.357762582380    -0.960363002736     1.132219282329
    C            1.570450030087    -1.152468258314     0.225822498242
    H            2.005008390292    -1.571295854480     1.138313634072
    H            1.244056147928    -2.002184861204    -0.381044596646

gradient() will perform analytic gradient computation.

*** tstart() called on wr38
*** at Wed Sep 21 05:05:04 2016


         ---------------------------------------------------------
                                   SCF
            by Justin Turney, Rob Parrish, and Andy Simmonett
                              RHF Reference
                       12 Threads,  60000 MiB Core
         ---------------------------------------------------------

  ==> Geometry <==

    Molecular point group: c1
    Full point group: C1

    Geometry (in Angstrom), charge = 0, multiplicity = 1:

       Center              X                  Y                   Z               Mass       
    ------------   -----------------  -----------------  -----------------  -----------------
           C         -3.162595317076    -0.835587144505    -0.225544734935    12.000000000000
           H         -3.999349521436    -1.301827990391     0.294012762028     1.007825032070
           H         -2.380903265626    -1.587674065160    -0.333299220900     1.007825032070
           H         -3.499807714467    -0.561467657019    -1.226759030999     1.007825032070
           C          3.162621927862     0.835584567143     0.225485972266    12.000000000000
           H          2.380937362331     1.587661783507     0.333358150415     1.007825032070
           H          3.999313011226     1.301850347670    -0.294150127827     1.007825032070
           H          3.499951254904     0.561429294280     1.226650603960     1.007825032070
           C         -2.658727643137     0.389409671983     0.529080844961    12.000000000000
           H         -2.288841240338     0.088653425318     1.511429525717     1.007825032070
           H         -3.493679338944     1.068708190743     0.714506396566     1.007825032070
           C          2.658673065342    -0.389387531385    -0.529126013871    12.000000000000
           H          2.288681265932    -0.088600596132    -1.511425567391     1.007825032070
           H          3.493601572488    -1.068684279213    -0.714658702634     1.007825032070
           C         -1.570428850911     1.152475242013    -0.225774847961    12.000000000000
           H         -1.244032813095     2.002153970591     0.381145001872     1.007825032070
           H         -2.004923363611     1.571360709246    -1.138270381208     1.007825032070
           C         -0.346664722409     0.316204061647    -0.600358849134    12.000000000000
           H          0.357783166673     0.960312672874    -1.132166732354     1.007825032070
           H         -0.630906894867    -0.469743732743    -1.306514113413     1.007825032070
           C          0.346669731866    -0.316230867402     0.600420885228    12.000000000000
           H          0.630895737815     0.469714726593     1.306584595029     1.007825032070
           H         -0.357762582380    -0.960363002736     1.132219282329     1.007825032070
           C          1.570450030087    -1.152468258314     0.225822498242    12.000000000000
           H          2.005008390292    -1.571295854480     1.138313634072     1.007825032070
           H          1.244056147928    -2.002184861204    -0.381044596646     1.007825032070

  Running in c1 symmetry.

  Rotational constants: A =      0.14377  B =      0.02704  C =      0.02519 [cm^-1]
  Rotational constants: A =   4310.09525  B =    810.69751  C =    755.32603 [MHz]
  Nuclear repulsion =  399.661901693833556

  Charge       = 0
  Multiplicity = 1
  Electrons    = 66
  Nalpha       = 33
  Nbeta        = 33

  ==> Algorithm <==

  SCF Algorithm Type is DF.
  DIIS enabled.
  MOM disabled.
  Fractional occupation disabled.
  Guess Type is READ.
  Energy threshold   = 1.00e-10
  Density threshold  = 1.00e-10
  Integral threshold = 0.00e+00

  ==> Primary Basis <==

  Basis Set: AUG-CC-PVTZ
    Number of shells: 274
    Number of basis function: 782
    Number of Cartesian functions: 890
    Spherical Harmonics?: true
    Max angular momentum: 3

  ==> Pre-Iterations <==

   -------------------------------------------------------
    Irrep   Nso     Nmo     Nalpha   Nbeta   Ndocc  Nsocc
   -------------------------------------------------------
     A        782     782       0       0       0       0
   -------------------------------------------------------
    Total     782     782      33      33      33       0
   -------------------------------------------------------

  ==> Integral Setup <==

  ==> DFJK: Density-Fitted J/K Matrices <==

    J tasked:                  Yes
    K tasked:                  Yes
    wK tasked:                  No
    OpenMP threads:             12
    Integrals threads:          12
    Memory (MB):             42915
    Algorithm:                Core
    Integral Cache:           NONE
    Schwarz Cutoff:          1E-12
    Fitting Condition:       1E-12

   => Auxiliary Basis Set <=

  Basis Set: 
    Number of shells: 492
    Number of basis function: 1660
    Number of Cartesian functions: 2038
    Spherical Harmonics?: true
    Max angular momentum: 4

  Minimum eigenvalue in the overlap matrix is 2.1199632501E-06.
  Using Symmetric Orthogonalization.
  SCF Guess: Reading in previously saved MOs, projecting if necessary.

  Using orbitals from previous SCF, no projection.
  Recomputing DOCC and SOCC from number of alpha and beta electrons from previous calculation.
              A 
    DOCC [    33 ]

  ==> Iterations <==

                           Total Energy        Delta E     RMS |[F,P]|

   @DF-RHF iter   0:  -313.53957587380125   -3.13540e+02   2.68979e-07 
   @DF-RHF iter   1:  -313.53959589027863   -2.00165e-05   5.95607e-08 
   @DF-RHF iter   2:  -313.53959589193482   -1.65619e-09   2.63536e-08 DIIS
   @DF-RHF iter   3:  -313.53959589220108   -2.66255e-10   9.16266e-09 DIIS
   @DF-RHF iter   4:  -313.53959589225485   -5.37739e-11   1.28811e-09 DIIS
   @DF-RHF iter   5:  -313.53959589225497   -1.13687e-13   4.02266e-10 DIIS
   @DF-RHF iter   6:  -313.53959589225553   -5.68434e-13   1.04484e-10 DIIS
   @DF-RHF iter   7:  -313.53959589225553    0.00000e+00   2.60696e-11 DIIS

  ==> Post-Iterations <==

    Orbital Energies (a.u.)
    -----------------------

    Doubly Occupied:                                                      

       1A    -11.211923     2A    -11.211922     3A    -11.210825  
       4A    -11.210809     5A    -11.209280     6A    -11.208667  
       7A    -11.206901     8A    -11.206901     9A     -1.095654  
      10A     -1.060206    11A     -1.002823    12A     -0.948306  
      13A     -0.887390    14A     -0.843269    15A     -0.780549  
      16A     -0.744414    17A     -0.650353    18A     -0.630362  
      19A     -0.614611    20A     -0.601890    21A     -0.569441  
      22A     -0.557763    23A     -0.540744    24A     -0.535761  
      25A     -0.519589    26A     -0.504111    27A     -0.488775  
      28A     -0.471139    29A     -0.466128    30A     -0.458222  
      31A     -0.448941    32A     -0.437298    33A     -0.432800  

    Virtual:                                                              

      34A      0.030190    35A      0.033037    36A      0.033956  
      37A      0.035494    38A      0.046720    39A      0.047332  
      40A      0.050622    41A      0.053747    42A      0.055240  
      43A      0.066250    44A      0.068102    45A      0.071160  
      46A      0.073916    47A      0.078611    48A      0.089344  
      49A      0.090023    50A      0.093140    51A      0.099534  
      52A      0.113275    53A      0.115586    54A      0.116575  
      55A      0.122725    56A      0.126511    57A      0.130376  
      58A      0.133556    59A      0.135668    60A      0.139143  
      61A      0.148043    62A      0.149284    63A      0.152772  
      64A      0.154707    65A      0.158141    66A      0.160531  
      67A      0.163347    68A      0.163925    69A      0.166626  
      70A      0.170293    71A      0.176691    72A      0.184370  
      73A      0.189024    74A      0.192632    75A      0.199945  
      76A      0.201567    77A      0.213997    78A      0.214826  
      79A      0.231104    80A      0.235195    81A      0.240607  
      82A      0.245081    83A      0.250147    84A      0.250544  
      85A      0.271179    86A      0.280527    87A      0.281870  
      88A      0.286110    89A      0.290114    90A      0.291532  
      91A      0.297612    92A      0.307784    93A      0.309507  
      94A      0.311694    95A      0.317396    96A      0.321319  
      97A      0.322967    98A      0.332721    99A      0.332833  
     100A      0.333710   101A      0.335580   102A      0.341128  
     103A      0.342048   104A      0.351882   105A      0.354973  
     106A      0.357587   107A      0.358162   108A      0.359612  
     109A      0.367260   110A      0.369244   111A      0.375571  
     112A      0.376149   113A      0.384527   114A      0.386376  
     115A      0.393576   116A      0.398606   117A      0.399543  
     118A      0.407512   119A      0.410216   120A      0.411068  
     121A      0.416975   122A      0.421941   123A      0.433213  
     124A      0.433244   125A      0.434922   126A      0.438352  
     127A      0.441431   128A      0.444561   129A      0.448763  
     130A      0.452750   131A      0.456156   132A      0.459274  
     133A      0.463615   134A      0.471595   135A      0.474876  
     136A      0.481174   137A      0.484297   138A      0.489007  
     139A      0.489744   140A      0.491097   141A      0.496178  
     142A      0.502033   143A      0.503320   144A      0.503473  
     145A      0.504915   146A      0.514878   147A      0.516057  
     148A      0.521502   149A      0.523214   150A      0.527964  
     151A      0.530273   152A      0.536419   153A      0.540570  
     154A      0.540834   155A      0.552950   156A      0.560810  
     157A      0.563624   158A      0.567444   159A      0.568794  
     160A      0.574416   161A      0.577643   162A      0.581785  
     163A      0.584551   164A      0.596198   165A      0.597930  
     166A      0.599189   167A      0.601084   168A      0.612844  
     169A      0.616590   170A      0.620023   171A      0.621608  
     172A      0.623942   173A      0.633634   174A      0.635433  
     175A      0.640807   176A      0.650736   177A      0.653522  
     178A      0.657154   179A      0.657184   180A      0.665941  
     181A      0.671800   182A      0.676408   183A      0.678034  
     184A      0.682077   185A      0.690062   186A      0.695527  
     187A      0.698797   188A      0.703960   189A      0.714490  
     190A      0.721773   191A      0.724232   192A      0.735478  
     193A      0.736392   194A      0.737465   195A      0.748296  
     196A      0.756909   197A      0.758782   198A      0.772150  
     199A      0.774562   200A      0.775265   201A      0.800675  
     202A      0.806268   203A      0.814873   204A      0.827024  
     205A      0.828189   206A      0.838146   207A      0.843368  
     208A      0.847216   209A      0.860727   210A      0.865194  
     211A      0.867626   212A      0.870007   213A      0.879747  
     214A      0.883358   215A      0.893526   216A      0.899269  
     217A      0.903968   218A      0.911112   219A      0.911195  
     220A      0.917321   221A      0.922807   222A      0.925796  
     223A      0.928344   224A      0.932413   225A      0.940885  
     226A      0.946543   227A      0.953910   228A      0.958132  
     229A      0.961774   230A      0.964183   231A      0.969863  
     232A      0.973466   233A      0.977378   234A      0.981741  
     235A      0.985869   236A      0.994310   237A      0.999219  
     238A      1.005449   239A      1.006235   240A      1.015037  
     241A      1.015495   242A      1.022548   243A      1.029498  
     244A      1.029579   245A      1.038115   246A      1.042141  
     247A      1.053539   248A      1.055784   249A      1.058885  
     250A      1.062295   251A      1.063506   252A      1.069178  
     253A      1.087571   254A      1.092064   255A      1.095931  
     256A      1.098690   257A      1.105690   258A      1.106770  
     259A      1.121026   260A      1.121333   261A      1.127663  
     262A      1.128544   263A      1.134931   264A      1.140149  
     265A      1.140607   266A      1.152340   267A      1.154484  
     268A      1.160991   269A      1.173002   270A      1.173445  
     271A      1.177293   272A      1.188284   273A      1.192059  
     274A      1.193487   275A      1.204469   276A      1.206327  
     277A      1.214809   278A      1.215764   279A      1.218037  
     280A      1.219056   281A      1.227956   282A      1.237877  
     283A      1.244171   284A      1.244462   285A      1.255443  
     286A      1.263318   287A      1.264852   288A      1.266932  
[...]
	 Skipping Hessian update for step 15.
	Denominators (dg)(dq) or (dq)(dq) are very small.
	 Skipping Hessian update for step 14.
	Denominators (dg)(dq) or (dq)(dq) are very small.
	 Skipping Hessian update for step 13.
	Denominators (dg)(dq) or (dq)(dq) are very small.
	 Skipping Hessian update for step 12.
	Denominators (dg)(dq) or (dq)(dq) are very small.
	 Skipping Hessian update for step 11.
	Denominators (dg)(dq) or (dq)(dq) are very small.
	 Skipping Hessian update for step 10.
	Denominators (dg)(dq) or (dq)(dq) are very small.
	 Skipping Hessian update for step 9.
	Denominators (dg)(dq) or (dq)(dq) are very small.
	 Skipping Hessian update for step 8.
	Denominators (dg)(dq) or (dq)(dq) are very small.
	 Skipping Hessian update for step 7.
	Denominators (dg)(dq) or (dq)(dq) are very small.
	 Skipping Hessian update for step 6.
	Denominators (dg)(dq) or (dq)(dq) are very small.
	 Skipping Hessian update for step 5.
	Denominators (dg)(dq) or (dq)(dq) are very small.
	 Skipping Hessian update for step 4.
	Denominators (dg)(dq) or (dq)(dq) are very small.
	 Skipping Hessian update for step 3.
	Denominators (dg)(dq) or (dq)(dq) are very small.
	 Skipping Hessian update for step 2.
	Steps to be used in Hessian update: 1
	Taking RFO optimization step.
	Going to follow RFO solution 1.
	Using RFO vector 1.
	Norm of target step-size    0.00003
	Projected energy change by RFO approximation:        -0.0000000000

	Back-transformation to cartesian coordinates...
	Successfully converged to displaced geometry.
	First geometry is closer to target in internal coordinates, so am using that one.
	First geometry has RMS(Delta(q)) = 1.98e-07

	--- Internal Coordinate Step in ANG or DEG, aJ/ANG or AJ/DEG ---
	 ---------------------------------------------------------------------------
	   Coordinate                Previous        Force       Change         New 
	   ----------                --------       ------       ------       ------
	    1 R(1,2)          =      1.089714    -0.000001    -0.000000     1.089714
	    2 R(1,3)          =      1.090085    -0.000001    -0.000000     1.090085
	    3 R(1,4)          =      1.091458    -0.000001    -0.000000     1.091458
	    4 R(1,9)          =      1.524454     0.000000     0.000000     1.524454
	    5 R(5,6)          =      1.090085    -0.000001    -0.000000     1.090085
	    6 R(5,7)          =      1.089713    -0.000001    -0.000000     1.089713
	    7 R(5,8)          =      1.091458    -0.000002    -0.000000     1.091458
	    8 R(5,12)         =      1.524454     0.000000    -0.000000     1.524454
	    9 R(9,10)         =      1.091914    -0.000001    -0.000000     1.091914
	   10 R(9,11)         =      1.092232    -0.000001    -0.000000     1.092232
	   11 R(9,15)         =      1.528551    -0.000001    -0.000000     1.528551
	   12 R(12,13)        =      1.091914    -0.000003    -0.000000     1.091913
	   13 R(12,14)        =      1.092232    -0.000002    -0.000000     1.092232
	   14 R(12,24)        =      1.528551    -0.000001    -0.000000     1.528551
	   15 R(15,16)        =      1.094000    -0.000001    -0.000000     1.094000
	   16 R(15,17)        =      1.094027    -0.000002    -0.000000     1.094027
	   17 R(15,18)        =      1.528809     0.000001     0.000000     1.528809
	   18 R(18,19)        =      1.092675    -0.000000     0.000000     1.092675
	   19 R(18,20)        =      1.094147    -0.000001    -0.000000     1.094147
	   20 R(18,21)        =      1.523993     0.000001     0.000000     1.523993
	   21 R(21,22)        =      1.094147    -0.000003    -0.000000     1.094146
	   22 R(21,23)        =      1.092675    -0.000002    -0.000000     1.092675
	   23 R(21,24)        =      1.528809    -0.000002    -0.000000     1.528809
	   24 R(24,25)        =      1.094027    -0.000004    -0.000000     1.094026
	   25 R(24,26)        =      1.094000    -0.000003    -0.000000     1.094000
	   26 B(1,9,10)       =    109.631802     0.000000    -0.000004   109.631798
	   27 B(1,9,11)       =    109.337807     0.000000     0.000017   109.337824
	   28 B(1,9,15)       =    113.079766    -0.000000    -0.000042   113.079723
	   29 B(2,1,3)        =    107.611875    -0.000000     0.000001   107.611876
	   30 B(2,1,4)        =    107.913496    -0.000000    -0.000000   107.913496
	   31 B(2,1,9)        =    111.198225     0.000000     0.000016   111.198242
	   32 B(3,1,4)        =    107.707057     0.000000     0.000002   107.707059
	   33 B(3,1,9)        =    111.488897    -0.000000    -0.000009   111.488888
	   34 B(4,1,9)        =    110.755743    -0.000000    -0.000010   110.755733
	   35 B(5,12,13)      =    109.631805     0.000000    -0.000005   109.631800
	   36 B(5,12,14)      =    109.337840     0.000000     0.000033   109.337873
	   37 B(5,12,24)      =    113.079720    -0.000000    -0.000051   113.079669
	   38 B(6,5,7)        =    107.611871    -0.000000     0.000002   107.611873
	   39 B(6,5,8)        =    107.707072     0.000000    -0.000007   107.707065
	   40 B(6,5,12)       =    111.488876    -0.000000    -0.000002   111.488874
	   41 B(7,5,8)        =    107.913500    -0.000000    -0.000002   107.913498
	   42 B(7,5,12)       =    111.198260     0.000000     0.000022   111.198282
	   43 B(8,5,12)       =    110.755715    -0.000000    -0.000013   110.755702
	   44 B(9,15,16)      =    109.036679     0.000000     0.000016   109.036696
	   45 B(9,15,17)      =    108.679413    -0.000000    -0.000005   108.679408
	   46 B(9,15,18)      =    114.698439    -0.000000    -0.000015   114.698424
	   47 B(10,9,11)      =    106.112853    -0.000000     0.000004   106.112857
	   48 B(10,9,15)      =    109.913485     0.000000     0.000007   109.913492
	   49 B(11,9,15)      =    108.519861     0.000000     0.000022   108.519883
	   50 B(12,24,21)     =    114.698479     0.000000    -0.000033   114.698446
	   51 B(12,24,25)     =    108.679382    -0.000000     0.000011   108.679393
	   52 B(12,24,26)     =    109.036677     0.000000     0.000019   109.036697
	   53 B(13,12,14)     =    106.112859    -0.000000     0.000002   106.112861
	   54 B(13,12,24)     =    109.913489     0.000000     0.000000   109.913489
	   55 B(14,12,24)     =    108.519864     0.000000     0.000024   108.519889
	   56 B(15,18,19)     =    108.231823    -0.000000     0.000006   108.231828
	   57 B(15,18,20)     =    110.066518    -0.000000    -0.000004   110.066514
	   58 B(15,18,21)     =    113.460064     0.000000     0.000016   113.460080
	   59 B(16,15,17)     =    106.489176     0.000000     0.000008   106.489184
	   60 B(16,15,18)     =    108.780748    -0.000000    -0.000004   108.780744
	   61 B(17,15,18)     =    108.843842     0.000000     0.000002   108.843844
	   62 B(18,21,22)     =    109.184413     0.000000     0.000033   109.184446
	   63 B(18,21,23)     =    109.560794     0.000000     0.000010   109.560804
	   64 B(18,21,24)     =    113.460017    -0.000000    -0.000025   113.459993
	   65 B(19,18,20)     =    106.069564     0.000000     0.000007   106.069571
	   66 B(19,18,21)     =    109.560738    -0.000000     0.000001   109.560739
	   67 B(20,18,21)     =    109.184443    -0.000000    -0.000027   109.184416
	   68 B(21,24,25)     =    108.843862     0.000000     0.000002   108.843864
	   69 B(21,24,26)     =    108.780709    -0.000000    -0.000002   108.780707
	   70 B(22,21,23)     =    106.069555    -0.000000     0.000013   106.069568
	   71 B(22,21,24)     =    110.066544     0.000000     0.000004   110.066548
	   72 B(23,21,24)     =    108.231829    -0.000000    -0.000033   108.231796
	   73 B(25,24,26)     =    106.489186     0.000000     0.000006   106.489191
	   74 D(1,9,15,16)    =   -178.852598     0.000000     0.000175  -178.852423
	   75 D(1,9,15,17)    =     65.450960     0.000000     0.000160    65.451120
	   76 D(1,9,15,18)    =    -56.606454     0.000000     0.000171   -56.606283
	   77 D(2,1,9,10)     =     62.302412     0.000000     0.000043    62.302455
	   78 D(2,1,9,11)     =    -53.639413    -0.000000     0.000031   -53.639382
	   79 D(2,1,9,15)     =   -174.667144    -0.000000     0.000019  -174.667125
	   80 D(3,1,9,10)     =    -57.794028     0.000000     0.000037   -57.793992
	   81 D(3,1,9,11)     =   -173.735853    -0.000000     0.000025  -173.735828
	   82 D(3,1,9,15)     =     65.236416    -0.000000     0.000013    65.236428
	   83 D(4,1,9,10)     =   -177.711878     0.000000     0.000046  -177.711832
	   84 D(4,1,9,11)     =     66.346297     0.000000     0.000035    66.346332
	   85 D(4,1,9,15)     =    -54.681434     0.000000     0.000023   -54.681412
	   86 D(5,12,24,21)   =     56.606458     0.000000     0.000283    56.606741
	   87 D(5,12,24,25)   =    -65.450987     0.000000     0.000295   -65.450692
	   88 D(5,12,24,26)   =    178.852577     0.000000     0.000272   178.852849
	   89 D(6,5,12,13)    =     57.793945     0.000000     0.000289    57.794234
	   90 D(6,5,12,14)    =    173.735798     0.000000     0.000307   173.736105
	   91 D(6,5,12,24)    =    -65.236473     0.000000     0.000328   -65.236145
	   92 D(7,5,12,13)    =    -62.302499     0.000000     0.000273   -62.302226
	   93 D(7,5,12,14)    =     53.639353     0.000000     0.000292    53.639645
	   94 D(7,5,12,24)    =    174.667082    -0.000000     0.000312   174.667395
	   95 D(8,5,12,13)    =    177.711783    -0.000000     0.000270   177.712052
	   96 D(8,5,12,14)    =    -66.346365     0.000000     0.000288   -66.346077
	   97 D(8,5,12,24)    =     54.681364    -0.000000     0.000309    54.681673
	   98 D(9,15,18,19)   =    179.948702    -0.000000    -0.000270   179.948432
	   99 D(9,15,18,20)   =     64.443420    -0.000000    -0.000280    64.443140
	  100 D(9,15,18,21)   =    -58.233472    -0.000000    -0.000254   -58.233726
	  101 D(10,9,15,16)   =    -55.978365    -0.000000     0.000145   -55.978221
	  102 D(10,9,15,17)   =   -171.674808    -0.000000     0.000130  -171.674678
	  103 D(10,9,15,18)   =     66.267778    -0.000000     0.000141    66.267919
	  104 D(11,9,15,16)   =     59.657567     0.000000     0.000166    59.657732
	  105 D(11,9,15,17)   =    -56.038876     0.000000     0.000151   -56.038726
	  106 D(11,9,15,18)   =   -178.096290     0.000000     0.000162  -178.096128
	  107 D(12,24,21,18)  =     58.233431     0.000000    -0.000218    58.233213
	  108 D(12,24,21,22)  =    -64.443410    -0.000000    -0.000246   -64.443656
	  109 D(12,24,21,23)  =   -179.948698    -0.000000    -0.000246  -179.948944
	  110 D(13,12,24,21)  =    -66.267748     0.000000     0.000325   -66.267423
	  111 D(13,12,24,25)  =    171.674807     0.000000     0.000337   171.675144
	  112 D(13,12,24,26)  =     55.978371     0.000000     0.000314    55.978685
	  113 D(14,12,24,21)  =    178.096309     0.000000     0.000309   178.096617
	  114 D(14,12,24,25)  =     56.038864     0.000000     0.000321    56.039184
	  115 D(14,12,24,26)  =    -59.657572     0.000000     0.000297   -59.657275
	  116 D(15,18,21,22)  =    -56.837982    -0.000000    -0.000091   -56.838073
	  117 D(15,18,21,23)  =     58.925386     0.000000    -0.000051    58.925335
	  118 D(15,18,21,24)  =    180.000000    -0.000000     0.000000   180.000000
	  119 D(16,15,18,19)  =    -57.666560    -0.000000    -0.000262   -57.666823
	  120 D(16,15,18,20)  =   -173.171842    -0.000000    -0.000272  -173.172114
	  121 D(16,15,18,21)  =     64.151266    -0.000000    -0.000246    64.151019
	  122 D(17,15,18,19)  =     57.980627    -0.000000    -0.000254    57.980373
	  123 D(17,15,18,20)  =    -57.524654    -0.000000    -0.000264   -57.524918
	  124 D(17,15,18,21)  =    179.798453     0.000000    -0.000238   179.798215
	  125 D(18,21,24,25)  =   -179.798492     0.000000    -0.000225  -179.798717
	  126 D(18,21,24,26)  =    -64.151303     0.000000    -0.000219   -64.151522
	  127 D(19,18,21,22)  =     64.235926    -0.000000    -0.000072    64.235854
	  128 D(19,18,21,23)  =    180.000000     0.000000     0.000000   180.000000
	  129 D(19,18,21,24)  =    -58.926781    -0.000000    -0.000085   -58.926865
	  130 D(20,18,21,22)  =    180.000000    -0.000000     0.000000   180.000000
	  131 D(20,18,21,23)  =    -64.237342     0.000000    -0.000037   -64.237380
	  132 D(20,18,21,24)  =     56.836583    -0.000000    -0.000090    56.836493
	  133 D(22,21,24,25)  =     57.524668    -0.000000    -0.000253    57.524414
	  134 D(22,21,24,26)  =    173.171856    -0.000000    -0.000247   173.171609
	  135 D(23,21,24,25)  =    -57.980621     0.000000    -0.000253   -57.980874
	  136 D(23,21,24,26)  =     57.666568    -0.000000    -0.000247    57.666321
	  137 R(1,21)         =      3.642368    -0.000000     0.000001     3.642368
	  138 R(5,18)         =      3.642367    -0.000001    -0.000001     3.642366
	 ---------------------------------------------------------------------------

  ==> Convergence Check <==

  Measures of convergence in internal coordinates in au.
  Criteria marked as inactive (o), active & met (*), and active & unmet ( ).
  ---------------------------------------------------------------------------------------------
   Step     Total Energy     Delta E     MAX Force     RMS Force      MAX Disp      RMS Disp   
  ---------------------------------------------------------------------------------------------
    Convergence Criteria             o    2.00e-06 *    1.00e-06 *    6.00e-06 *    4.00e-06 *
  ---------------------------------------------------------------------------------------------
     17    -314.98326329   -3.32e-09 o    4.48e-07 *    9.60e-08 *    5.89e-06 *    2.60e-06 *  ~
  ---------------------------------------------------------------------------------------------


  **** Optimization is complete! (in 17 steps) ****

  ==> Optimization Summary <==

  Measures of convergence in internal coordinates in au.
  --------------------------------------------------------------------------------------------------------------- ~
   Step         Total Energy             Delta E       MAX Force       RMS Force        MAX Disp        RMS Disp  ~
  --------------------------------------------------------------------------------------------------------------- ~
      1    -314.983263287058   -314.983263287058      0.00000148      0.00000048      0.00013448      0.00004084  ~
      2    -314.983263288201     -0.000000001143      0.00000266      0.00000070      0.00010112      0.00003474  ~
      3    -314.983263286851      0.000000001350      0.00000079      0.00000027      0.00004378      0.00001917  ~
      4    -314.983263289913     -0.000000003062      0.00000083      0.00000024      0.00006535      0.00002458  ~
      5    -314.983263289557      0.000000000356      0.00000075      0.00000021      0.00006299      0.00002164  ~
      6    -314.983263294426     -0.000000004869      0.00000217      0.00000049      0.00004985      0.00002228  ~
      7    -314.983263289609      0.000000004817      0.00000111      0.00000033      0.00008558      0.00002313  ~
      8    -314.983263288440      0.000000001168      0.00000118      0.00000028      0.00005604      0.00001596  ~
      9    -314.983263290368     -0.000000001928      0.00000187      0.00000047      0.00007567      0.00002060  ~
     10    -314.983263290360      0.000000000009      0.00000045      0.00000012      0.00004485      0.00001150  ~
     11    -314.983263287346      0.000000003013      0.00000104      0.00000025      0.00004860      0.00001304  ~
     12    -314.983263286868      0.000000000478      0.00000100      0.00000021      0.00026399      0.00006942  ~
     13    -314.983263287602     -0.000000000734      0.00000289      0.00000094      0.00024173      0.00006323  ~
     14    -314.983263288392     -0.000000000790      0.00000111      0.00000023      0.00001897      0.00000589  ~
     15    -314.983263289497     -0.000000001105      0.00000308      0.00000069      0.00006285      0.00001721  ~
     16    -314.983263285120      0.000000004377      0.00000190      0.00000047      0.00007648      0.00001873  ~
     17    -314.983263288444     -0.000000003324      0.00000045      0.00000010      0.00000589      0.00000260  ~
  --------------------------------------------------------------------------------------------------------------- ~

	Writing optimization data to binary file.
	Final energy is   -314.9832632884437
	Final (previous) structure:
	Cartesian Geometry (in Angstrom)
	    C    -3.1626073682  -0.8355893913  -0.2255218911
	    H    -3.9993225096  -1.3018503084   0.2940786665
	    H    -2.3809192547  -1.5876678876  -0.3333520646
	    H    -3.4998899124  -0.5614415916  -1.2267035535
	    C     3.1626181171   0.8355780377   0.2255089950
	    H     2.3809381157   1.5876644045   0.3333383491
	    H     3.9993353165   1.3018279320  -0.2940974064
	    H     3.4999021155   0.5614321244   1.2266902139
	    C    -2.6586921232   0.3893889588   0.5291028374
	    H    -2.2887397712   0.0886083381   1.5114176057
	    H    -3.4936305933   1.0686824894   0.7146001540
	    C     2.6586871299  -0.3893994274  -0.5291064573
	    H     2.2887319246  -0.0886205375  -1.5114203985
	    H     3.4936175105  -1.0687021140  -0.7146049642
	    C    -1.5704424466   1.1524698978  -0.2258071083
	    H    -1.2440598891   2.0021772294   0.3810766733
	    H    -2.0049730195   1.5713100135  -1.1383041636
	    C    -0.3466569792   0.3162307717  -0.6003871898
	    H     0.3577871581   0.9603631935  -1.1321673019
	    H    -0.6308698267  -0.4697083742  -1.3065598831
	    C     0.3466586941  -0.3162127076   0.6003972906
	    H     0.6308825882   0.4697279376   1.3065636650
	    H    -0.3577882806  -0.9603356096   1.1321853725
	    C     1.5704343086  -1.1524652907   0.2258144322
	    H     2.0049667664  -1.5713045277   1.1383109326
	    H     1.2440395096  -2.0021728211  -0.3810627147
	Saving final (previous) structure.
			--------------------------
			 OPTKING Finished Execution 
			--------------------------

    Final optimized geometry and variables:
    Molecular point group: c1
    Full point group: C1

    Geometry (in Angstrom), charge = 0, multiplicity = 1:

    C           -3.162607368200    -0.835589391283    -0.225521891095
    H           -3.999322509570    -1.301850308374     0.294078666455
    H           -2.380919254674    -1.587667887557    -0.333352064562
    H           -3.499889912370    -0.561441591614    -1.226703553532
    C            3.162618117096     0.835578037676     0.225508994990
    H            2.380938115724     1.587664404535     0.333338349054
    H            3.999335316550     1.301827931966    -0.294097406447
    H            3.499902115466     0.561432124364     1.226690213910
    C           -2.658692123203     0.389388958754     0.529102837368
    H           -2.288739771157     0.088608338126     1.511417605736
    H           -3.493630593291     1.068682489384     0.714600153991
    C            2.658687129938    -0.389399427428    -0.529106457337
    H            2.288731924632    -0.088620537513    -1.511420398507
    H            3.493617510451    -1.068702113995    -0.714604964249
    C           -1.570442446619     1.152469897836    -0.225807108278
    H           -1.244059889062     2.002177229434     0.381076673286
    H           -2.004973019533     1.571310013536    -1.138304163596
    C           -0.346656979198     0.316230771741    -0.600387189821
    H            0.357787158127     0.960363193476    -1.132167301936
    H           -0.630869826685    -0.469708374223    -1.306559883091
    C            0.346658694070    -0.316212707597     0.600397290565
    H            0.630882588183     0.469727937638     1.306563664957
    H           -0.357788280577    -0.960335609631     1.132185372513
    C            1.570434308582    -1.152465290675     0.225814432166
    H            2.004966766410    -1.571304527687     1.138310932630
    H            1.244039509595    -2.002172821062    -0.381062714664

	Cleaning optimization helper files.

*** Psi4 exiting successfully. Buy a developer a beer!
