    -----------------------------------------------------------------------
          Psi4: An Open-Source Ab Initio Electronic Structure Package
                              Psi4 1.0.0 Driver

                          Git: Rev {master} 6a9a71b dirty

    J. M. Turney, A. C. Simmonett, R. M. Parrish, E. G. Hohenstein,
    F. A. Evangelista, J. T. Fermann, B. J. Mintz, L. A. Burns, J. J. Wilke,
    M. L. Abrams, N. J. Russ, M. L. Leininger, C. L. Janssen, E. T. Seidl,
    W. D. Allen, H. F. Schaefer, R. A. King, E. F. Valeev, C. D. Sherrill,
    and T. D. Crawford, WIREs Comput. Mol. Sci. 2, 556-565 (2012)
    (doi: 10.1002/wcms.93)

                         Additional Contributions by
    A. E. DePrince, U. Bozkaya, A. Yu. Sokolov, D. G. A. Smith, R. Di Remigio,
    R. M. Richard, J. F. Gonthier, H. R. McAlexander, M. Saitow, and
    B. P. Pritchard
    -----------------------------------------------------------------------


    Psi4 started on: Wed Sep 21 04:57:33 2016

    Process ID:  26378
    PSI4DATADIR: /usr/local/hpc5/psi4conda/share/psi4
    Memory level set to 256.000 MB

  ==> Input File <==

--------------------------------------------------------------------------
memory 60 Gb

molecule molecule_74_psi {
0 1
C           -2.225040350829     1.547445021642     0.213069630605
H           -2.634108433028     1.768990156345    -0.774280688517
H           -1.159819190021     1.777362884780     0.189304839121
H           -2.691512319110     2.223718102811     0.929046725317
C            2.114423149396     1.448434048961    -0.567701716100
H            2.153337104246     1.140366660935    -1.613697332679
H            2.709071425701     2.355831481359    -0.461975982830
H            1.081834388184     1.704453935973    -0.332739471194
C           -2.473185931629     0.090655909693     0.586990222120
H           -3.546109948084    -0.072523127149     0.710663880542
H           -2.019689890454    -0.121329729369     1.557583457298
C            2.636672391188     0.345112370908     0.345281570327
H            3.704693096792     0.205070538332     0.161972250983
H            2.542190760980     0.663884193017     1.387120921299
C           -1.948134631903    -0.894366117658    -0.457003343966
H           -2.507649351852    -0.752254145520    -1.386377384197
H           -2.156426867709    -1.914352202670    -0.120780438868
C           -0.453910671121    -0.769751245578    -0.753520630720
H           -0.243942901099     0.196818902775    -1.214447339132
H           -0.182376961583    -1.524159181385    -1.497549363097
C            0.425422376243    -0.973213002876     0.478351760095
H            0.223872072364    -0.193359762212     1.219426059122
H            0.129407580873    -1.917536119560     0.944838474145
C            1.931281581107    -1.000390150232     0.179465648702
H            2.417569048459    -1.718017073172     0.843948472191
H            2.090026821439    -1.369287641643    -0.838931718716
}

set globals {
  reference rhf
  g_convergence gau_verytight
  basis aug-cc-pvtz
  freeze_core true
  scf_type df
  mp_type df
}
optimize('mp2')
--------------------------------------------------------------------------
/usr/local/hpc5/psi4conda/lib/python2.7/site-packages/v2rdm_casscf/v2rdm_casscf.so loaded.

  Memory set to  60.000 GiB by Python script.
gradient() will perform analytic gradient computation.

*** tstart() called on wr37
*** at Wed Sep 21 04:57:34 2016


         ---------------------------------------------------------
                                   SCF
            by Justin Turney, Rob Parrish, and Andy Simmonett
                              RHF Reference
                       12 Threads,  60000 MiB Core
         ---------------------------------------------------------

  ==> Geometry <==

    Molecular point group: c1
    Full point group: C1

    Geometry (in Angstrom), charge = 0, multiplicity = 1:

       Center              X                  Y                   Z               Mass       
    ------------   -----------------  -----------------  -----------------  -----------------
           C         -2.225040350829     1.547445021642     0.213069630605    12.000000000000
           H         -2.634108433028     1.768990156345    -0.774280688517     1.007825032070
           H         -1.159819190021     1.777362884780     0.189304839121     1.007825032070
           H         -2.691512319110     2.223718102811     0.929046725317     1.007825032070
           C          2.114423149396     1.448434048961    -0.567701716100    12.000000000000
           H          2.153337104246     1.140366660935    -1.613697332679     1.007825032070
           H          2.709071425701     2.355831481359    -0.461975982830     1.007825032070
           H          1.081834388184     1.704453935973    -0.332739471194     1.007825032070
           C         -2.473185931629     0.090655909693     0.586990222120    12.000000000000
           H         -3.546109948084    -0.072523127149     0.710663880542     1.007825032070
           H         -2.019689890454    -0.121329729369     1.557583457298     1.007825032070
           C          2.636672391188     0.345112370908     0.345281570327    12.000000000000
           H          3.704693096792     0.205070538332     0.161972250983     1.007825032070
           H          2.542190760980     0.663884193017     1.387120921299     1.007825032070
           C         -1.948134631903    -0.894366117658    -0.457003343966    12.000000000000
           H         -2.507649351852    -0.752254145520    -1.386377384197     1.007825032070
           H         -2.156426867709    -1.914352202670    -0.120780438868     1.007825032070
           C         -0.453910671121    -0.769751245578    -0.753520630720    12.000000000000
           H         -0.243942901099     0.196818902775    -1.214447339132     1.007825032070
           H         -0.182376961583    -1.524159181385    -1.497549363097     1.007825032070
           C          0.425422376243    -0.973213002876     0.478351760095    12.000000000000
           H          0.223872072364    -0.193359762212     1.219426059122     1.007825032070
           H          0.129407580873    -1.917536119560     0.944838474145     1.007825032070
           C          1.931281581107    -1.000390150232     0.179465648702    12.000000000000
           H          2.417569048459    -1.718017073172     0.843948472191     1.007825032070
           H          2.090026821439    -1.369287641643    -0.838931718716     1.007825032070

  Running in c1 symmetry.

  Rotational constants: A =      0.09709  B =      0.03415  C =      0.02882 [cm^-1]
  Rotational constants: A =   2910.67610  B =   1023.72426  C =    864.02958 [MHz]
  Nuclear repulsion =  403.943465259454172

  Charge       = 0
  Multiplicity = 1
  Electrons    = 66
  Nalpha       = 33
  Nbeta        = 33

  ==> Algorithm <==

  SCF Algorithm Type is DF.
  DIIS enabled.
  MOM disabled.
  Fractional occupation disabled.
  Guess Type is SAD.
  Energy threshold   = 1.00e-10
  Density threshold  = 1.00e-10
  Integral threshold = 0.00e+00

  ==> Primary Basis <==

  Basis Set: AUG-CC-PVTZ
    Number of shells: 274
    Number of basis function: 782
    Number of Cartesian functions: 890
    Spherical Harmonics?: true
    Max angular momentum: 3

  ==> Pre-Iterations <==

   -------------------------------------------------------
    Irrep   Nso     Nmo     Nalpha   Nbeta   Ndocc  Nsocc
   -------------------------------------------------------
     A        782     782       0       0       0       0
   -------------------------------------------------------
    Total     782     782      33      33      33       0
   -------------------------------------------------------

  ==> Integral Setup <==

  ==> DFJK: Density-Fitted J/K Matrices <==

    J tasked:                  Yes
    K tasked:                  Yes
    wK tasked:                  No
    OpenMP threads:             12
    Integrals threads:          12
    Memory (MB):             42915
    Algorithm:                Core
    Integral Cache:           NONE
    Schwarz Cutoff:          1E-12
    Fitting Condition:       1E-12

   => Auxiliary Basis Set <=

  Basis Set: 
    Number of shells: 492
    Number of basis function: 1660
    Number of Cartesian functions: 2038
    Spherical Harmonics?: true
    Max angular momentum: 4

  Minimum eigenvalue in the overlap matrix is 1.5514205007E-06.
  Using Symmetric Orthogonalization.
  SCF Guess: Superposition of Atomic Densities via on-the-fly atomic UHF.

  ==> Iterations <==

                           Total Energy        Delta E     RMS |[F,P]|

   @DF-RHF iter   0:  -317.02916002502076   -3.17029e+02   7.04246e-03 
   @DF-RHF iter   1:  -313.28358411572214    3.74558e+00   7.35409e-04 
   @DF-RHF iter   2:  -313.49890741329835   -2.15323e-01   2.94162e-04 DIIS
   @DF-RHF iter   3:  -313.53045662046219   -3.15492e-02   1.08214e-04 DIIS
   @DF-RHF iter   4:  -313.53629987219898   -5.84325e-03   1.54887e-05 DIIS
   @DF-RHF iter   5:  -313.53646868900790   -1.68817e-04   4.12837e-06 DIIS
   @DF-RHF iter   6:  -313.53647894266118   -1.02537e-05   1.25416e-06 DIIS
   @DF-RHF iter   7:  -313.53647977406791   -8.31407e-07   2.57346e-07 DIIS
   @DF-RHF iter   8:  -313.53647981901355   -4.49456e-08   6.35499e-08 DIIS
   @DF-RHF iter   9:  -313.53647982192030   -2.90675e-09   1.72888e-08 DIIS
   @DF-RHF iter  10:  -313.53647982212152   -2.01226e-10   5.55723e-09 DIIS
   @DF-RHF iter  11:  -313.53647982214119   -1.96678e-11   1.26873e-09 DIIS
   @DF-RHF iter  12:  -313.53647982214130   -1.13687e-13   2.99543e-10 DIIS
   @DF-RHF iter  13:  -313.53647982214198   -6.82121e-13   9.43176e-11 DIIS

  ==> Post-Iterations <==

    Orbital Energies (a.u.)
    -----------------------

    Doubly Occupied:                                                      

       1A    -11.213341     2A    -11.211949     3A    -11.210745  
       4A    -11.210197     5A    -11.210065     6A    -11.208291  
       7A    -11.207197     8A    -11.207170     9A     -1.093983  
      10A     -1.059856    11A     -1.004381    12A     -0.948124  
      13A     -0.890758    14A     -0.835200    15A     -0.778557  
      16A     -0.755248    17A     -0.647951    18A     -0.626822  
      19A     -0.611056    20A     -0.606800    21A     -0.570556  
      22A     -0.552139    23A     -0.547415    24A     -0.532695  
      25A     -0.518817    26A     -0.499791    27A     -0.497827  
      28A     -0.472925    29A     -0.463340    30A     -0.458161  
      31A     -0.443856    32A     -0.440015    33A     -0.432029  

    Virtual:                                                              

      34A      0.029249    35A      0.032513    36A      0.034541  
      37A      0.034752    38A      0.046267    39A      0.047363  
      40A      0.050837    41A      0.053173    42A      0.055434  
      43A      0.067950    44A      0.070526    45A      0.071462  
      46A      0.074815    47A      0.075621    48A      0.087206  
      49A      0.093604    50A      0.104854    51A      0.106986  
      52A      0.114534    53A      0.117404    54A      0.119278  
      55A      0.120415    56A      0.124927    57A      0.131000  
      58A      0.134283    59A      0.137305    60A      0.139710  
      61A      0.142442    62A      0.145020    63A      0.150312  
      64A      0.154687    65A      0.155598    66A      0.162397  
      67A      0.164496    68A      0.168255    69A      0.172394  
      70A      0.176080    71A      0.177919    72A      0.183038  
      73A      0.187812    74A      0.194592    75A      0.195756  
      76A      0.200081    77A      0.216386    78A      0.223721  
      79A      0.227681    80A      0.230912    81A      0.237331  
      82A      0.245361    83A      0.246691    84A      0.255749  
      85A      0.264183    86A      0.273432    87A      0.284170  
      88A      0.286291    89A      0.289871    90A      0.297883  
      91A      0.302253    92A      0.303851    93A      0.309922  
      94A      0.311809    95A      0.319950    96A      0.322766  
      97A      0.328588    98A      0.329613    99A      0.330754  
     100A      0.336177   101A      0.343610   102A      0.345218  
     103A      0.348855   104A      0.351400   105A      0.356089  
     106A      0.361927   107A      0.363846   108A      0.368423  
     109A      0.370060   110A      0.375062   111A      0.378002  
     112A      0.380916   113A      0.384387   114A      0.390301  
     115A      0.394446   116A      0.396825   117A      0.398630  
     118A      0.404429   119A      0.409648   120A      0.415811  
     121A      0.418486   122A      0.427495   123A      0.429437  
     124A      0.431637   125A      0.436089   126A      0.440973  
     127A      0.442925   128A      0.445751   129A      0.451043  
     130A      0.455086   131A      0.462460   132A      0.466705  
     133A      0.468042   134A      0.473069   135A      0.475724  
     136A      0.480748   137A      0.484666   138A      0.485195  
     139A      0.491563   140A      0.493902   141A      0.497081  
     142A      0.500260   143A      0.505613   144A      0.513050  
     145A      0.514335   146A      0.516427   147A      0.526203  
     148A      0.528007   149A      0.529728   150A      0.532342  
     151A      0.540371   152A      0.544429   153A      0.549489  
     154A      0.555749   155A      0.557268   156A      0.562533  
     157A      0.564168   158A      0.568880   159A      0.570533  
     160A      0.576230   161A      0.578222   162A      0.580385  
     163A      0.589229   164A      0.597006   165A      0.601183  
     166A      0.606613   167A      0.609228   168A      0.617297  
     169A      0.623383   170A      0.624712   171A      0.632802  
     172A      0.633853   173A      0.641590   174A      0.642490  
     175A      0.651489   176A      0.654990   177A      0.659858  
     178A      0.662131   179A      0.667608   180A      0.675160  
     181A      0.682702   182A      0.685913   183A      0.690982  
     184A      0.696648   185A      0.697472   186A      0.704123  
     187A      0.709261   188A      0.716925   189A      0.721998  
     190A      0.732227   191A      0.739381   192A      0.742676  
     193A      0.747005   194A      0.749947   195A      0.758982  
     196A      0.761455   197A      0.770525   198A      0.778111  
     199A      0.787201   200A      0.796394   201A      0.799049  
     202A      0.811001   203A      0.817447   204A      0.826431  
     205A      0.831414   206A      0.837919   207A      0.842665  
     208A      0.854467   209A      0.859732   210A      0.866791  
     211A      0.871802   212A      0.875113   213A      0.880180  
     214A      0.888277   215A      0.892806   216A      0.894940  
     217A      0.904751   218A      0.907948   219A      0.918663  
     220A      0.925563   221A      0.926146   222A      0.929556  
     223A      0.937104   224A      0.941789   225A      0.945521  
     226A      0.947400   227A      0.950628   228A      0.955659  
     229A      0.961031   230A      0.970500   231A      0.973775  
     232A      0.977640   233A      0.986270   234A      0.989859  
     235A      0.995338   236A      1.003500   237A      1.010857  
     238A      1.014817   239A      1.018518   240A      1.019998  
     241A      1.023822   242A      1.033519   243A      1.035538  
     244A      1.039697   245A      1.044007   246A      1.053273  
     247A      1.056740   248A      1.062209   249A      1.071568  
     250A      1.072856   251A      1.079351   252A      1.087896  
     253A      1.092120   254A      1.098316   255A      1.103571  
     256A      1.109351   257A      1.116216   258A      1.119713  
     259A      1.127695   260A      1.141186   261A      1.142581  
     262A      1.146509   263A      1.149242   264A      1.155316  
     265A      1.159105   266A      1.165362   267A      1.168933  
     268A      1.176095   269A      1.177798   270A      1.180283  
     271A      1.191145   272A      1.197704   273A      1.200719  
     274A      1.202196   275A      1.207874   276A      1.213778  
     277A      1.223694   278A      1.225607   279A      1.231829  
     280A      1.237857   281A      1.241050   282A      1.253173  
     283A      1.256645   284A      1.262073   285A      1.266342  
     286A      1.269808   287A      1.271298   288A      1.282947  
     289A      1.285368   290A      1.290237   291A      1.292199  
     292A      1.295703   293A      1.300111   294A      1.307333  
     295A      1.311043   296A      1.322735   297A      1.323971  
     298A      1.330608   299A      1.337705   300A      1.343104  
     301A      1.354308   302A      1.357889   303A      1.366320  
     304A      1.378907   305A      1.385635   306A      1.388731  
     307A      1.396956   308A      1.400545   309A      1.412830  
     310A      1.417529   311A      1.427203   312A      1.439772  
     313A      1.445462   314A      1.449718   315A      1.456745  
     316A      1.461063   317A      1.469108   318A      1.479842  
     319A      1.485687   320A      1.493186   321A      1.497278  
     322A      1.504676   323A      1.512218   324A      1.516184  
     325A      1.521846   326A      1.524023   327A      1.538211  
     328A      1.546173   329A      1.555775   330A      1.559998  
     331A      1.565938   332A      1.573844   333A      1.578131  
     334A      1.588522   335A      1.591991   336A      1.596761  
     337A      1.607483   338A      1.610335   339A      1.620873  
     340A      1.627205   341A      1.633662   342A      1.648025  
     343A      1.655783   344A      1.664067   345A      1.671334  
     346A      1.674939   347A      1.682645   348A      1.686671  
     349A      1.692211   350A      1.694010   351A      1.704263  
     352A      1.707356   353A      1.710554   354A      1.715544  
     355A      1.725843   356A      1.731143   357A      1.736645  
     358A      1.740239   359A      1.751106   360A      1.762802  
     361A      1.764999   362A      1.773176   363A      1.778411  
     364A      1.785900   365A      1.791064   366A      1.792092  
     367A      1.797799   368A      1.803698   369A      1.816017  
     370A      1.825525   371A      1.828040   372A      1.835979  
     373A      1.840023   374A      1.847983   375A      1.849802  
     376A      1.854644   377A      1.863086   378A      1.866922  
     379A      1.871534   380A      1.876876   381A      1.889616  
     382A      1.890938   383A      1.904306   384A      1.906566  
     385A      1.915295   386A      1.923343   387A      1.932323  
     388A      1.939328   389A      1.942416   390A      1.945298  
     391A      1.960854   392A      1.967530   393A      1.968598  
     394A      1.983396   395A      1.987695   396A      1.992956  
     397A      2.000621   398A      2.004671   399A      2.007660  
     400A      2.011796   401A      2.019745   402A      2.028384  
     403A      2.035399   404A      2.042111   405A      2.051864  
     406A      2.056023   407A      2.065300   408A      2.069008  
     409A      2.072981   410A      2.079501   411A      2.086398  
     412A      2.091761   413A      2.101445   414A      2.107326  
     415A      2.108984   416A      2.128020   417A      2.131616  
     418A      2.141293   419A      2.145256   420A      2.152573  
     421A      2.164508   422A      2.164975   423A      2.173707  
     424A      2.192893   425A      2.194470   426A      2.207522  
     427A      2.214298   428A      2.222111   429A      2.237920  
     430A      2.252392   431A      2.256820   432A      2.264348  
     433A      2.271498   434A      2.283015   435A      2.300287  
     436A      2.301523   437A      2.309669   438A      2.319869  
     439A      2.331428   440A      2.339646   441A      2.341761  
     442A      2.353054   443A      2.372235   444A      2.377173  
     445A      2.378645   446A      2.388898   447A      2.393915  
     448A      2.397615   449A      2.411464   450A      2.419975  
     451A      2.429499   452A      2.436579   453A      2.450146  
     454A      2.458829   455A      2.468007   456A      2.480650  
     457A      2.492053   458A      2.500159   459A      2.505667  
     460A      2.512997   461A      2.518558   462A      2.529245  
     463A      2.546032   464A      2.560175   465A      2.571902  
     466A      2.593034   467A      2.595844   468A      2.606464  
     469A      2.610326   470A      2.631508   471A      2.646139  
     472A      2.652605   473A      2.664892   474A      2.675612  
     475A      2.689535   476A      2.712458   477A      2.717533  
     478A      2.730078   479A      2.736057   480A      2.749485  
     481A      2.781477   482A      2.799745   483A      2.821251  
     484A      2.870999   485A      2.953732   486A      2.988686  
     487A      3.033559   488A      3.074731   489A      3.137206  
     490A      3.156593   491A      3.209110   492A      3.264615  
     493A      3.292102   494A      3.354277   495A      3.409806  
     496A      3.434343   497A      3.446619   498A      3.469451  
     499A      3.477962   500A      3.489976   501A      3.498306  
     502A      3.512950   503A      3.530207   504A      3.549798  
     505A      3.552859   506A      3.566039   507A      3.576575  
     508A      3.582006   509A      3.590593   510A      3.606343  
     511A      3.613887   512A      3.625693   513A      3.631574  
     514A      3.655252   515A      3.668366   516A      3.676058  
     517A      3.685761   518A      3.698005   519A      3.712671  
     520A      3.723975   521A      3.736568   522A      3.740126  
     523A      3.742462   524A      3.753718   525A      3.761112  
     526A      3.777092   527A      3.780684   528A      3.785863  
     529A      3.799406   530A      3.800036   531A      3.811814  
     532A      3.816871   533A      3.835685   534A      3.836990  
     535A      3.848623   536A      3.856191   537A      3.859639  
     538A      3.870275   539A      3.876123   540A      3.889267  
     541A      3.898570   542A      3.903552   543A      3.917238  
     544A      3.919529   545A      3.923738   546A      3.932655  
     547A      3.946628   548A      3.947534   549A      3.958881  
     550A      3.961324   551A      3.963061   552A      3.977578  
     553A      3.989928   554A      3.998787   555A      4.000360  
     556A      4.012211   557A      4.020566   558A      4.035675  
     559A      4.037463   560A      4.052564   561A      4.056638  
     562A      4.060939   563A      4.073579   564A      4.075620  
     565A      4.087713   566A      4.091237   567A      4.100644  
     568A      4.108249   569A      4.112013   570A      4.116053  
     571A      4.124634   572A      4.132179   573A      4.140464  
     574A      4.146086   575A      4.150271   576A      4.163280  
     577A      4.167660   578A      4.175789   579A      4.184616  
     580A      4.195299   581A      4.212250   582A      4.222086  
     583A      4.229452   584A      4.239074   585A      4.241625  
     586A      4.247350   587A      4.263485   588A      4.270374  
     589A      4.279508   590A      4.292237   591A      4.296914  
     592A      4.304370   593A      4.308428   594A      4.325104  
     595A      4.346940   596A      4.352621   597A      4.360478  
     598A      4.362365   599A      4.376692   600A      4.386324  
     601A      4.401007   602A      4.413015   603A      4.436322  
     604A      4.441008   605A      4.446247   606A      4.451434  
     607A      4.468391   608A      4.477248   609A      4.478225  
     610A      4.500484   611A      4.513571   612A      4.520346  
     613A      4.533659   614A      4.540152   615A      4.566080  
     616A      4.580767   617A      4.597376   618A      4.605439  
     619A      4.624707   620A      4.641626   621A      4.645331  
     622A      4.654840   623A      4.663409   624A      4.681753  
     625A      4.686826   626A      4.703927   627A      4.712783  
     628A      4.722049   629A      4.728062   630A      4.741653  
     631A      4.753000   632A      4.762863   633A      4.776108  
     634A      4.787311   635A      4.802600   636A      4.807272  
     637A      4.820496   638A      4.825515   639A      4.838082  
     640A      4.848645   641A      4.856199   642A      4.866337  
     643A      4.878174   644A      4.900616   645A      4.908303  
     646A      4.915823   647A      4.918463   648A      4.948570  
     649A      4.952356   650A      4.957642   651A      4.965589  
     652A      4.983934   653A      4.987514   654A      5.008622  
     655A      5.016067   656A      5.018268   657A      5.028825  
     658A      5.038199   659A      5.048036   660A      5.084570  
     661A      5.094513   662A      5.099942   663A      5.106938  
     664A      5.122766   665A      5.135822   666A      5.148418  
     667A      5.154155   668A      5.172023   669A      5.187203  
     670A      5.193709   671A      5.210451   672A      5.220791  
     673A      5.231263   674A      5.247947   675A      5.252238  
     676A      5.261908   677A      5.291069   678A      5.294883  
     679A      5.306411   680A      5.310222   681A      5.327169  
     682A      5.338627   683A      5.349852   684A      5.368002  
     685A      5.372685   686A      5.391388   687A      5.392798  
     688A      5.404337   689A      5.411804   690A      5.415979  
     691A      5.431505   692A      5.438208   693A      5.445557  
     694A      5.454298   695A      5.467397   696A      5.476252  
     697A      5.487671   698A      5.496283   699A      5.498257  
     700A      5.518254   701A      5.519224   702A      5.543159  
     703A      5.560884   704A      5.588838   705A      5.605003  
     706A      5.610673   707A      5.615666   708A      5.624470  
     709A      5.637277   710A      5.643829   711A      5.667179  
     712A      5.683045   713A      5.687072   714A      5.696592  
     715A      5.704011   716A      5.712812   717A      5.721372  
     718A      5.727620   719A      5.746726   720A      5.752689  
     721A      5.763269   722A      5.777233   723A      5.800043  
     724A      5.822504   725A      5.841086   726A      5.852184  
     727A      5.862805   728A      5.897602   729A      5.911174  
     730A      5.917699   731A      5.952197   732A      5.969750  
     733A      5.980424   734A      6.007366   735A      6.035446  
     736A      6.042865   737A      6.083019   738A      6.096001  
     739A      6.098597   740A      6.121592   741A      6.150843  
     742A      6.159756   743A      6.169229   744A      6.193369  
     745A      6.230897   746A      6.252299   747A      6.262777  
     748A      6.299440   749A      6.314906   750A      6.336503  
     751A      6.342837   752A      6.356490   753A      6.372373  
     754A      6.376616   755A      6.403665   756A      6.427146  
     757A      6.450456   758A      6.490594   759A      6.611680  
     760A      6.641972   761A      6.669240   762A      6.693846  
     763A      6.721224   764A      6.811513   765A      6.826554  
     766A      6.860772   767A      6.943698   768A      6.951820  
     769A      6.978645   770A      7.008633   771A      7.052086  
     772A      7.063457   773A      7.087532   774A      7.172475  
     775A     18.049442   776A     18.092006   777A     18.465276  
     778A     18.616527   779A     18.828818   780A     19.552008  
     781A     19.786703   782A     19.888192  

    Final Occupation by Irrep:
              A 
    DOCC [    33 ]

  Energy converged.

  @DF-RHF Final Energy:  -313.53647982214198

   => Energetics <=

    Nuclear Repulsion Energy =            403.9434652594541717
    One-Electron Energy =               -1223.0253774023710776
    Two-Electron Energy =                 505.5454323207749212
    DFT Exchange-Correlation Energy =       0.0000000000000000
    Empirical Dispersion Energy =           0.0000000000000000
    PCM Polarization Energy =               0.0000000000000000
    EFP Energy =                            0.0000000000000000
    Total Energy =                       -313.5364798221420415


  Saving occupied orbitals to File 180.

*** tstop() called on wr37 at Wed Sep 21 04:58:59 2016
Module time:
	user time   =     930.03 seconds =      15.50 minutes
	system time =      12.56 seconds =       0.21 minutes
	total time  =         85 seconds =       1.42 minutes
Total time:
	user time   =     930.03 seconds =      15.50 minutes
	system time =      12.56 seconds =       0.21 minutes
	total time  =         85 seconds =       1.42 minutes


Properties will be evaluated at   0.000000,   0.000000,   0.000000 Bohr

Properties computed using the SCF density matrix

  Nuclear Dipole Moment: (a.u.)
     X:    -0.0840      Y:     2.3002      Z:    -0.2783

  Electronic Dipole Moment: (a.u.)
     X:     0.0957      Y:    -2.3368      Z:     0.3005

  Dipole Moment: (a.u.)
     X:     0.0117      Y:    -0.0366      Z:     0.0222     Total:     0.0444

  Dipole Moment: (Debye)
     X:     0.0297      Y:    -0.0930      Z:     0.0564     Total:     0.1128


  //>>>>>>>>>>>>>>>>>>>>>>>>>>>>>>>>>>>//
  //               DFMP2               //
  //<<<<<<<<<<<<<<<<<<<<<<<<<<<<<<<<<<<//


*** tstart() called on wr37
*** at Wed Sep 21 04:59:00 2016


*** tstop() called on wr37 at Wed Sep 21 04:59:00 2016
Module time:
	user time   =       4.79 seconds =       0.08 minutes
	system time =       0.29 seconds =       0.00 minutes
	total time  =          0 seconds =       0.00 minutes
Total time:
	user time   =     935.66 seconds =      15.59 minutes
	system time =      12.89 seconds =       0.21 minutes
	total time  =         86 seconds =       1.43 minutes
	 --------------------------------------------------------
	                          DF-MP2                         
	      2nd-Order Density-Fitted Moller-Plesset Theory     
	              RMP2 Wavefunction,  12 Threads             
	                                                         
	        Rob Parrish, Justin Turney, Andy Simmonett,      
	           Ed Hohenstein, and C. David Sherrill          
	 --------------------------------------------------------

   => Auxiliary Basis Set <=

  Basis Set: 
    Number of shells: 476
    Number of basis function: 1676
    Number of Cartesian functions: 2078
    Spherical Harmonics?: true
    Max angular momentum: 4

	 --------------------------------------------------------
	                 NBF =   782, NAUX =  1676
	 --------------------------------------------------------
	   CLASS    FOCC     OCC    AOCC    AVIR     VIR    FVIR
	   PAIRS       8      33      25     749     749       0
	 --------------------------------------------------------

DGAS Warning! /src/lib/libfock/apps.cc:80 is not currently checking restricted

         ------------------------------------------------------------
                                     CPHF                           
                                  Rob Parrish                       
         ------------------------------------------------------------

  ==> Geometry <==

    Molecular point group: c1
    Full point group: C1

    Geometry (in Angstrom), charge = 0, multiplicity = 1:

       Center              X                  Y                   Z               Mass       
    ------------   -----------------  -----------------  -----------------  -----------------
           C         -2.225040350829     1.547445021642     0.213069630605    12.000000000000
           H         -2.634108433028     1.768990156345    -0.774280688517     1.007825032070
           H         -1.159819190021     1.777362884780     0.189304839121     1.007825032070
           H         -2.691512319110     2.223718102811     0.929046725317     1.007825032070
           C          2.114423149396     1.448434048961    -0.567701716100    12.000000000000
           H          2.153337104246     1.140366660935    -1.613697332679     1.007825032070
           H          2.709071425701     2.355831481359    -0.461975982830     1.007825032070
           H          1.081834388184     1.704453935973    -0.332739471194     1.007825032070
           C         -2.473185931629     0.090655909693     0.586990222120    12.000000000000
           H         -3.546109948084    -0.072523127149     0.710663880542     1.007825032070
           H         -2.019689890454    -0.121329729369     1.557583457298     1.007825032070
           C          2.636672391188     0.345112370908     0.345281570327    12.000000000000
           H          3.704693096792     0.205070538332     0.161972250983     1.007825032070
           H          2.542190760980     0.663884193017     1.387120921299     1.007825032070
           C         -1.948134631903    -0.894366117658    -0.457003343966    12.000000000000
           H         -2.507649351852    -0.752254145520    -1.386377384197     1.007825032070
           H         -2.156426867709    -1.914352202670    -0.120780438868     1.007825032070
           C         -0.453910671121    -0.769751245578    -0.753520630720    12.000000000000
           H         -0.243942901099     0.196818902775    -1.214447339132     1.007825032070
           H         -0.182376961583    -1.524159181385    -1.497549363097     1.007825032070
           C          0.425422376243    -0.973213002876     0.478351760095    12.000000000000
           H          0.223872072364    -0.193359762212     1.219426059122     1.007825032070
           H          0.129407580873    -1.917536119560     0.944838474145     1.007825032070
           C          1.931281581107    -1.000390150232     0.179465648702    12.000000000000
           H          2.417569048459    -1.718017073172     0.843948472191     1.007825032070
           H          2.090026821439    -1.369287641643    -0.838931718716     1.007825032070

  Nuclear repulsion =  403.943465259454172
  Reference energy  = -313.536479822141985

  ==> Basis Set <==

  Basis Set: AUG-CC-PVTZ
    Number of shells: 274
    Number of basis function: 782
    Number of Cartesian functions: 890
    Spherical Harmonics?: true
    Max angular momentum: 3

  ==> CGRSolver (by Rob Parrish) <==

   Number of roots    =         1
   Preconditioning    =    JACOBI
   Convergence cutoff =     1E-06
   Maximum iterations =       100

  ==> CPHFRHamiltonian (by Rob Parrish) <== 

  ==> DFJK: Density-Fitted J/K Matrices <==

    J tasked:                  Yes
    K tasked:                  Yes
    wK tasked:                  No
    OpenMP threads:             12
    Integrals threads:          12
    Memory (MB):             42915
    Algorithm:                Core
    Integral Cache:           NONE
    Schwarz Cutoff:          1E-12
    Fitting Condition:       1E-12

   => Auxiliary Basis Set <=

  Basis Set: 
    Number of shells: 492
    Number of basis function: 1660
    Number of Cartesian functions: 2038
    Spherical Harmonics?: true
    Max angular momentum: 4

  ==> CPHF Iterations <==

  => Iterations <=

             Iter  Converged  Remaining    Residual
  CGR           1          0          1   9.379E-02
  CGR           2          0          1   1.351E-02
  CGR           3          0          1   3.819E-03
  CGR           4          0          1   8.174E-04
  CGR           5          0          1   2.024E-04
  CGR           6          0          1   4.642E-05
  CGR           7          0          1   1.214E-05
  CGR           8          0          1   3.315E-06
  CGR           9          1          0   8.444E-07

    CGRSolver converged.

  ==> DFCorrGrad: Density-Fitted Correlated Gradients <==

    OpenMP threads:             12
    Integrals threads:          12
    Memory (MB):             42915
    Schwarz Cutoff:          0E+00
    Fitting Condition:       1E-12

   => Auxiliary Basis Set <=

  Basis Set: 
    Number of shells: 492
    Number of basis function: 1660
    Number of Cartesian functions: 2038
    Spherical Harmonics?: true
    Max angular momentum: 4

	-----------------------------------------------------------
	 ==================> DF-MP2 Energies <==================== 
	-----------------------------------------------------------
	 Reference Energy          =    -313.5364798221419846 [Eh]
	 Singles Energy            =      -0.0000000000000005 [Eh]
	 Same-Spin Energy          =      -0.3173398266100065 [Eh]
	 Opposite-Spin Energy      =      -1.1269876819445721 [Eh]
	 Correlation Energy        =      -1.4443275085545790 [Eh]
	 Total Energy              =    -314.9808073306965639 [Eh]
	-----------------------------------------------------------
	 ================> DF-SCS-MP2 Energies <================== 
	-----------------------------------------------------------
	 SCS Same-Spin Scale       =       0.3333333333333333 [-]
	 SCS Opposite-Spin Scale   =       1.2000000000000000 [-]
	 SCS Same-Spin Energy      =      -0.1057799422033355 [Eh]
	 SCS Opposite-Spin Energy  =      -1.3523852183334866 [Eh]
	 SCS Correlation Energy    =      -1.4581651605368224 [Eh]
	 SCS Total Energy          =    -314.9946449826788353 [Eh]
	-----------------------------------------------------------


  -Total Gradient:
     Atom            X                  Y                   Z
    ------   -----------------  -----------------  -----------------
       1        0.000000001238     0.000000351007    -0.000000099620
       2        0.000000059078    -0.000000072933     0.000000229401
       3       -0.000000177389    -0.000000084275     0.000000015564
       4        0.000000157631    -0.000000175442    -0.000000221640
       5       -0.000000223105     0.000000228109    -0.000000273214
       6        0.000000010742     0.000000128332     0.000000300353
       7       -0.000000191025    -0.000000219572    -0.000000071981
       8        0.000000406807    -0.000000181702     0.000000070956
       9       -0.000000270848    -0.000000178009     0.000000145901
      10        0.000000123930    -0.000000007899    -0.000000043079
      11       -0.000000112187    -0.000000002122    -0.000000209803
      12       -0.000000182057    -0.000000161981     0.000000652079
      13       -0.000000307620     0.000000046165     0.000000089387
      14        0.000000106080    -0.000000048837    -0.000000508052
      15       -0.000000346662    -0.000000216310     0.000000004144
      16        0.000000060819    -0.000000011330     0.000000067908
      17       -0.000000020845     0.000000118112     0.000000002403
      18        0.000000813428     0.000000663227    -0.000000670240
      19        0.000000052856    -0.000000423690     0.000000310352
      20       -0.000000171877     0.000000242153     0.000000076927
      21        0.000000099993     0.000000147661     0.000001193150
      22        0.000000224436    -0.000000625232    -0.000000701976
      23        0.000000300527     0.000000743931    -0.000000102365
      24        0.000000121287    -0.000000801798    -0.000000519803
      25       -0.000000305520     0.000000286418    -0.000000513238
      26       -0.000000229715     0.000000256014     0.000000776485


			-----------------------------------------
			 OPTKING 2.0: for geometry optimizations 
			  - R.A. King,  Bethel University        
			-----------------------------------------

	Internal coordinates to be generated automatically.
	Detected frag 1 with atoms:  1 2 3 4 5 6 7 8 9 10 11 12 13 14 15 16 17 18 19 20
	 21 22 23 24 25 26
	---Fragment 1 Bond Connectivity---
	 1 : 2 3 4 9
	 2 : 1
	 3 : 1
	 4 : 1
	 5 : 6 7 8 12
	 6 : 5
	 7 : 5
	 8 : 5
	 9 : 1 10 11 15
	 10 : 9
	 11 : 9
	 12 : 5 13 14 24
	 13 : 12
	 14 : 12
	 15 : 9 16 17 18
	 16 : 15
	 17 : 15
	 18 : 15 19 20 21
	 19 : 18
	 20 : 18
	 21 : 18 22 23 24
	 22 : 21
	 23 : 21
	 24 : 12 21 25 26
	 25 : 24
	 26 : 24

	---Fragment 1 Geometry and Gradient---
	 C          -4.2047168977        2.9242472966        0.4026432491
	 H          -4.9777435427        3.3429069273       -1.4631784513
	 H          -2.1917406328        3.3587290910        0.3577343016
	 H          -5.0862211664        4.2022182111        1.7556438755
	 C           3.9956806814        2.7371436741       -1.0728007686
	 H           4.0692173988        2.1549806802       -3.0494460201
	 H           5.1194030690        4.4518763150       -0.8730080875
	 H           2.0443707148        3.2209511451       -0.6287864742
	 C          -4.6736440865        0.1713148416        1.1092507625
	 H          -6.7011766390       -0.1370488486        1.3429601068
	 H          -3.8166607663       -0.2292799603        2.9434061634
	 C           4.9825887215        0.6521678661        0.6524876067
	 H           7.0008553593        0.3875271554        0.3060831955
	 H           4.8040443158        1.2545593088        2.6212786545
	 C          -3.6814409243       -1.6901070249       -0.8636111619
	 H          -4.7387705123       -1.4215543174       -2.6198735730
	 H          -4.0750562056       -3.6176013849       -0.2282419517
	 C          -0.8577668572       -1.4546190446       -1.4239476275
	 H          -0.4609852751        0.3719338240       -2.2949728738
	 H          -0.3446425103       -2.8802434357       -2.8299581667
	 C           0.8039317819       -1.8391060444        0.9039538218
	 H           0.4230569056       -0.3653969957        2.3043812910
	 H           0.2445448874       -3.6236181159        1.7854859559
	 C           3.6495932738       -1.8904634100        0.3391409263
	 H           4.5685434089       -3.2465817599        1.5948314827
	 H           3.9495783029       -2.5875786399       -1.5853511926
	             0.0000000012        0.0000003510       -0.0000000996
	             0.0000000591       -0.0000000729        0.0000002294
	            -0.0000001774       -0.0000000843        0.0000000156
	             0.0000001576       -0.0000001754       -0.0000002216
	            -0.0000002231        0.0000002281       -0.0000002732
	             0.0000000107        0.0000001283        0.0000003004
	            -0.0000001910       -0.0000002196       -0.0000000720
	             0.0000004068       -0.0000001817        0.0000000710
	            -0.0000002708       -0.0000001780        0.0000001459
	             0.0000001239       -0.0000000079       -0.0000000431
	            -0.0000001122       -0.0000000021       -0.0000002098
	            -0.0000001821       -0.0000001620        0.0000006521
	            -0.0000003076        0.0000000462        0.0000000894
	             0.0000001061       -0.0000000488       -0.0000005081
	            -0.0000003467       -0.0000002163        0.0000000041
	             0.0000000608       -0.0000000113        0.0000000679
	            -0.0000000208        0.0000001181        0.0000000024
	             0.0000008134        0.0000006632       -0.0000006702
	             0.0000000529       -0.0000004237        0.0000003104
	            -0.0000001719        0.0000002422        0.0000000769
	             0.0000001000        0.0000001477        0.0000011932
	             0.0000002244       -0.0000006252       -0.0000007020
	             0.0000003005        0.0000007439       -0.0000001024
	             0.0000001213       -0.0000008018       -0.0000005198
	            -0.0000003055        0.0000002864       -0.0000005132
	            -0.0000002297        0.0000002560        0.0000007765

	Previous optimization step data not found.  Starting new optimization.

	---Fragment 1 Intrafragment Coordinates---
	 - Coordinate -           - BOHR/RAD -       - ANG/DEG -
	 R(1,2)           =         2.062556	       1.091458
	 R(1,3)           =         2.059822	       1.090011
	 R(1,4)           =         2.059337	       1.089754
	 R(1,9)           =         2.880594	       1.524345
	 R(5,6)           =         2.061904	       1.091113
	 R(5,7)           =         2.059849	       1.090025
	 R(5,8)           =         2.058842	       1.089492
	 R(5,12)          =         2.880578	       1.524336
	 R(9,10)          =         2.064121	       1.092286
	 R(9,11)          =         2.063740	       1.092084
	 R(9,15)          =         2.888173	       1.528355
	 R(12,13)         =         2.064808	       1.092649
	 R(12,14)         =         2.066614	       1.093605
	 R(12,24)         =         2.887912	       1.528217
	 R(15,16)         =         2.067492	       1.094070
	 R(15,17)         =         2.067332	       1.093985
	 R(15,18)         =         2.888350	       1.528449
	 R(18,19)         =         2.062139	       1.091237
	 R(18,20)         =         2.067019	       1.093819
	 R(18,21)         =         2.885862	       1.527132
	 R(21,22)         =         2.068352	       1.094525
	 R(21,23)         =         2.067485	       1.094066
	 R(21,24)         =         2.901627	       1.535475
	 R(24,25)         =         2.064046	       1.092246
	 R(24,26)         =         2.068727	       1.094723
	 B(1,9,10)        =         1.907575	     109.295978
	 B(1,9,11)        =         1.913378	     109.628484
	 B(1,9,15)        =         1.974091	     113.107107
	 B(2,1,3)         =         1.879401	     107.681721
	 B(2,1,4)         =         1.883829	     107.935444
	 B(2,1,9)         =         1.933577	     110.785809
	 B(3,1,4)         =         1.877317	     107.562324
	 B(3,1,9)         =         1.945523	     111.470243
	 B(4,1,9)         =         1.941451	     111.236959
	 B(5,12,13)       =         1.904105	     109.097204
	 B(5,12,14)       =         1.907109	     109.269284
	 B(5,12,24)       =         1.997794	     114.465138
	 B(6,5,7)         =         1.884480	     107.972741
	 B(6,5,8)         =         1.882724	     107.872154
	 B(6,5,12)        =         1.936485	     110.952430
	 B(7,5,8)         =         1.876020	     107.488036
	 B(7,5,12)        =         1.936425	     110.949008
	 B(8,5,12)        =         1.945108	     111.446488
	 B(9,15,16)       =         1.897424	     108.714378
	 B(9,15,17)       =         1.902397	     108.999308
	 B(9,15,18)       =         1.999639	     114.570885
	 B(10,9,11)       =         1.852788	     106.156927
	 B(10,9,15)       =         1.894953	     108.572797
	 B(11,9,15)       =         1.917001	     109.836085
	 B(12,24,21)      =         1.999807	     114.580477
	 B(12,24,25)      =         1.882787	     107.875759
	 B(12,24,26)      =         1.907834	     109.310862
	 B(13,12,14)      =         1.856290	     106.357586
	 B(13,12,24)      =         1.896660	     108.670604
	 B(14,12,24)      =         1.896659	     108.670535
	 B(15,18,19)      =         1.920121	     110.014816
	 B(15,18,20)      =         1.894852	     108.567022
	 B(15,18,21)      =         1.977474	     113.300924
	 B(16,15,17)      =         1.859603	     106.547421
	 B(16,15,18)      =         1.901353	     108.939522
	 B(17,15,18)      =         1.898398	     108.770177
	 B(18,21,22)      =         1.923256	     110.194460
	 B(18,21,23)      =         1.878788	     107.646613
	 B(18,21,24)      =         1.993294	     114.207344
	 B(19,18,20)      =         1.850247	     106.011337
	 B(19,18,21)      =         1.926171	     110.361450
	 B(20,18,21)      =         1.890060	     108.292472
	 B(21,24,25)      =         1.906930	     109.259019
	 B(21,24,26)      =         1.906315	     109.223820
	 B(22,21,23)      =         1.850917	     106.049747
	 B(22,21,24)      =         1.901806	     108.965478
	 B(23,21,24)      =         1.910348	     109.454891
	 B(25,24,26)      =         1.854576	     106.259358
	 D(1,9,15,16)     =        -1.125560	     -64.489842
	 D(1,9,15,17)     =         3.137154	     179.745663
	 D(1,9,15,18)     =         1.005840	      57.630387
	 D(2,1,9,10)      =        -1.159640	     -66.442452
	 D(2,1,9,11)      =         3.099501	     177.588347
	 D(2,1,9,15)      =         0.953671	      54.641326
	 D(3,1,9,10)      =         3.031006	     173.663878
	 D(3,1,9,11)      =         1.006962	      57.694677
	 D(3,1,9,15)      =        -1.138868	     -65.252344
	 D(4,1,9,10)      =         0.935787	      53.616657
	 D(4,1,9,11)      =        -1.088257	     -62.352544
	 D(4,1,9,15)      =         3.049098	     174.700435
	 D(5,12,24,21)    =        -1.060219	     -60.746082
	 D(5,12,24,25)    =         3.095176	     177.340511
	 D(5,12,24,26)    =         1.085704	      62.206232
	 D(6,5,12,13)     =         1.164370	      66.713489
	 D(6,5,12,14)     =        -3.096026	    -177.389219
	 D(6,5,12,24)     =        -0.964695	     -55.272980
	 D(7,5,12,13)     =        -0.930480	     -53.312564
	 D(7,5,12,14)     =         1.092310	      62.584728
	 D(7,5,12,24)     =        -3.059545	    -175.299033
	 D(8,5,12,13)     =        -3.020385	    -173.055331
	 D(8,5,12,14)     =        -0.997596	     -57.158039
	 D(8,5,12,24)     =         1.133734	      64.958201
	 D(9,15,18,19)    =        -1.137788	     -65.190477
	 D(9,15,18,20)    =         3.127858	     179.213068
	 D(9,15,18,21)    =         1.027483	      58.870437
	 D(10,9,15,16)    =         0.994875	      57.002163
	 D(10,9,15,17)    =        -1.025596	     -58.762332
	 D(10,9,15,18)    =         3.126275	     179.122392
	 D(11,9,15,16)    =         3.013805	     172.678288
	 D(11,9,15,17)    =         0.993333	      56.913792
	 D(11,9,15,18)    =        -1.137981	     -65.201484
	 D(12,24,21,18)   =         1.649774	      94.525103
	 D(12,24,21,22)   =        -0.509039	     -29.165765
	 D(12,24,21,23)   =        -2.525916	    -144.724354
	 D(13,12,24,21)   =         3.089841	     177.034851
	 D(13,12,24,25)   =         0.962051	      55.121444
	 D(13,12,24,26)   =        -1.047422	     -60.012835
	 D(14,12,24,21)   =         1.076798	      61.695987
	 D(14,12,24,25)   =        -1.050992	     -60.217420
	 D(14,12,24,26)   =        -3.060464	    -175.351699
	 D(15,18,21,22)   =        -1.101508	     -63.111758
	 D(15,18,21,23)   =         0.909505	      52.110790
	 D(15,18,21,24)   =         3.034454	     173.861382
	 D(16,15,18,19)   =         0.991472	      56.807185
	 D(16,15,18,20)   =        -1.026066	     -58.789270
	 D(16,15,18,21)   =        -3.126441	    -179.131901
	 D(17,15,18,19)   =         3.011909	     172.569672
	 D(17,15,18,20)   =         0.994370	      56.973218
	 D(17,15,18,21)   =        -1.106005	     -63.369414
	 D(18,21,24,25)   =        -2.518837	    -144.318710
	 D(18,21,24,26)   =        -0.496967	     -28.474107
	 D(19,18,21,22)   =         1.060461	      60.759956
	 D(19,18,21,23)   =         3.071474	     175.982503
	 D(19,18,21,24)   =        -1.086763	     -62.266905
	 D(20,18,21,22)   =         3.078583	     176.389799
	 D(20,18,21,23)   =        -1.193590	     -68.387653
	 D(20,18,21,24)   =         0.931359	      53.362939
	 D(22,21,24,25)   =         1.605536	      91.990422
	 D(22,21,24,26)   =        -2.655780	    -152.164974
	 D(23,21,24,25)   =        -0.411342	     -23.568167
	 D(23,21,24,26)   =         1.610528	      92.276436
	 R(1,21)          =         6.930181	       3.667294
	 R(5,18)          =         6.422627	       3.398708

	Current energy   :      -314.9808073307

	Generating empirical Hessian (Schlegel '84) for each fragment.
	Taking RFO optimization step.
	Going to follow RFO solution 1.
	Using RFO vector 1.
	Norm of target step-size    0.00025
	Projected energy change by RFO approximation:        -0.0000000003

	Back-transformation to cartesian coordinates...
	Successfully converged to displaced geometry.

	--- Internal Coordinate Step in ANG or DEG, aJ/ANG or AJ/DEG ---
	 ---------------------------------------------------------------------------
	   Coordinate                Previous        Force       Change         New 
	   ----------                --------       ------       ------       ------
	    1 R(1,2)          =      1.091458     0.000002     0.000000     1.091458
	    2 R(1,3)          =      1.090011     0.000002     0.000000     1.090011
	    3 R(1,4)          =      1.089754     0.000003     0.000000     1.089755
	    4 R(1,9)          =      1.524345     0.000000     0.000000     1.524345
	    5 R(5,6)          =      1.091113     0.000003     0.000000     1.091113
	    6 R(5,7)          =      1.090025     0.000002     0.000000     1.090026
	    7 R(5,8)          =      1.089492     0.000003     0.000001     1.089493
	    8 R(5,12)         =      1.524336    -0.000001     0.000000     1.524336
	    9 R(9,10)         =      1.092286     0.000001     0.000000     1.092286
	   10 R(9,11)         =      1.092084     0.000002     0.000000     1.092084
	   11 R(9,15)         =      1.528355     0.000002     0.000000     1.528356
	   12 R(12,13)        =      1.092649     0.000003     0.000000     1.092650
	   13 R(12,14)        =      1.093605     0.000004     0.000001     1.093606
	   14 R(12,24)        =      1.528217     0.000000     0.000001     1.528218
	   15 R(15,16)        =      1.094070     0.000001     0.000000     1.094070
	   16 R(15,17)        =      1.093985     0.000001     0.000000     1.093985
	   17 R(15,18)        =      1.528449    -0.000004    -0.000001     1.528448
	   18 R(18,19)        =      1.091237     0.000004     0.000001     1.091238
	   19 R(18,20)        =      1.093819     0.000002     0.000000     1.093820
	   20 R(18,21)        =      1.527132    -0.000002    -0.000000     1.527132
	   21 R(21,22)        =      1.094525     0.000008     0.000001     1.094526
	   22 R(21,23)        =      1.094066     0.000006     0.000001     1.094067
	   23 R(21,24)        =      1.535475     0.000004     0.000001     1.535476
	   24 R(24,25)        =      1.092246     0.000005     0.000001     1.092247
	   25 R(24,26)        =      1.094723     0.000007     0.000001     1.094724
	   26 B(1,9,10)       =    109.295978    -0.000000    -0.000055   109.295924
	   27 B(1,9,11)       =    109.628484    -0.000000    -0.000011   109.628473
	   28 B(1,9,15)       =    113.107107     0.000000     0.000079   113.107187
	   29 B(2,1,3)        =    107.681721    -0.000000    -0.000015   107.681705
	   30 B(2,1,4)        =    107.935444     0.000000    -0.000002   107.935442
	   31 B(2,1,9)        =    110.785809     0.000000     0.000022   110.785831
	   32 B(3,1,4)        =    107.562324    -0.000000    -0.000004   107.562320
	   33 B(3,1,9)        =    111.470243     0.000000     0.000024   111.470267
	   34 B(4,1,9)        =    111.236959    -0.000000    -0.000026   111.236934
	   35 B(5,12,13)      =    109.097204     0.000000    -0.000045   109.097159
	   36 B(5,12,14)      =    109.269284     0.000000     0.000038   109.269321
	   37 B(5,12,24)      =    114.465138    -0.000000     0.000112   114.465250
	   38 B(6,5,7)        =    107.972741     0.000000     0.000008   107.972749
	   39 B(6,5,8)        =    107.872154    -0.000000    -0.000025   107.872128
	   40 B(6,5,12)       =    110.952430    -0.000000    -0.000033   110.952398
	   41 B(7,5,8)        =    107.488036    -0.000000    -0.000001   107.488035
	   42 B(7,5,12)       =    110.949008    -0.000000    -0.000057   110.948951
	   43 B(8,5,12)       =    111.446488     0.000000     0.000107   111.446595
	   44 B(9,15,16)      =    108.714378     0.000000     0.000041   108.714419
	   45 B(9,15,17)      =    108.999308     0.000000     0.000017   108.999325
	   46 B(9,15,18)      =    114.570885    -0.000000    -0.000070   114.570814
	   47 B(10,9,11)      =    106.156927     0.000000    -0.000011   106.156917
	   48 B(10,9,15)      =    108.572797    -0.000000    -0.000025   108.572772
	   49 B(11,9,15)      =    109.836085    -0.000000     0.000016   109.836101
	   50 B(12,24,21)     =    114.580477     0.000000     0.000191   114.580667
	   51 B(12,24,25)     =    107.875759     0.000000    -0.000172   107.875587
	   52 B(12,24,26)     =    109.310862    -0.000000    -0.000005   109.310857
	   53 B(13,12,14)     =    106.357586    -0.000000     0.000002   106.357587
	   54 B(13,12,24)     =    108.670604     0.000000    -0.000030   108.670574
	   55 B(14,12,24)     =    108.670535    -0.000000    -0.000085   108.670451
	   56 B(15,18,19)     =    110.014816    -0.000000    -0.000149   110.014667
	   57 B(15,18,20)     =    108.567022     0.000000     0.000181   108.567204
	   58 B(15,18,21)     =    113.300924    -0.000000    -0.000099   113.300825
	   59 B(16,15,17)     =    106.547421    -0.000000     0.000008   106.547430
	   60 B(16,15,18)     =    108.939522     0.000000     0.000045   108.939567
	   61 B(17,15,18)     =    108.770177    -0.000000    -0.000036   108.770141
	   62 B(18,21,22)     =    110.194460    -0.000000    -0.000044   110.194416
	   63 B(18,21,23)     =    107.646613    -0.000000    -0.000174   107.646439
	   64 B(18,21,24)     =    114.207344     0.000000     0.000270   114.207614
	   65 B(19,18,20)     =    106.011337    -0.000000     0.000029   106.011367
	   66 B(19,18,21)     =    110.361450     0.000000     0.000035   110.361485
	   67 B(20,18,21)     =    108.292472    -0.000000     0.000018   108.292490
	   68 B(21,24,25)     =    109.259019    -0.000000    -0.000136   109.258883
	   69 B(21,24,26)     =    109.223820     0.000000     0.000105   109.223924
	   70 B(22,21,23)     =    106.049747     0.000000    -0.000018   106.049729
	   71 B(22,21,24)     =    108.965478    -0.000000    -0.000075   108.965403
	   72 B(23,21,24)     =    109.454891     0.000000     0.000020   109.454912
	   73 B(25,24,26)     =    106.259358     0.000000     0.000001   106.259358
	   74 D(1,9,15,16)    =    -64.489842     0.000000     0.000856   -64.488986
	   75 D(1,9,15,17)    =    179.745663     0.000000     0.000814   179.746477
	   76 D(1,9,15,18)    =     57.630387     0.000000     0.000897    57.631284
	   77 D(2,1,9,10)     =    -66.442452    -0.000000    -0.000352   -66.442804
	   78 D(2,1,9,11)     =    177.588347     0.000000    -0.000302   177.588045
	   79 D(2,1,9,15)     =     54.641326    -0.000000    -0.000370    54.640956
	   80 D(3,1,9,10)     =    173.663878    -0.000000    -0.000363   173.663515
	   81 D(3,1,9,11)     =     57.694677     0.000000    -0.000313    57.694363
	   82 D(3,1,9,15)     =    -65.252344    -0.000000    -0.000381   -65.252726
	   83 D(4,1,9,10)     =     53.616657    -0.000000    -0.000357    53.616300
	   84 D(4,1,9,11)     =    -62.352544     0.000000    -0.000307   -62.352851
	   85 D(4,1,9,15)     =    174.700435    -0.000000    -0.000375   174.700060
	   86 D(5,12,24,21)   =    -60.746082    -0.000000    -0.001524   -60.747606
	   87 D(5,12,24,25)   =    177.340511    -0.000000    -0.001349   177.339162
	   88 D(5,12,24,26)   =     62.206232     0.000000    -0.001255    62.204977
	   89 D(6,5,12,13)    =     66.713489    -0.000000    -0.000266    66.713223
	   90 D(6,5,12,14)    =   -177.389219     0.000000    -0.000267  -177.389487
	   91 D(6,5,12,24)    =    -55.272980    -0.000000    -0.000271   -55.273251
	   92 D(7,5,12,13)    =    -53.312564    -0.000000    -0.000216   -53.312781
	   93 D(7,5,12,14)    =     62.584728     0.000000    -0.000218    62.584510
	   94 D(7,5,12,24)    =   -175.299033    -0.000000    -0.000222  -175.299255
	   95 D(8,5,12,13)    =   -173.055331    -0.000000    -0.000248  -173.055579
	   96 D(8,5,12,14)    =    -57.158039     0.000000    -0.000250   -57.158288
	   97 D(8,5,12,24)    =     64.958201    -0.000000    -0.000254    64.957947
	   98 D(9,15,18,19)   =    -65.190477     0.000000    -0.000910   -65.191387
	   99 D(9,15,18,20)   =    179.213068    -0.000000    -0.000966   179.212102
	  100 D(9,15,18,21)   =     58.870437     0.000000    -0.001051    58.869385
	  101 D(10,9,15,16)   =     57.002163     0.000000     0.000821    57.002984
	  102 D(10,9,15,17)   =    -58.762332    -0.000000     0.000779   -58.761553
	  103 D(10,9,15,18)   =    179.122392     0.000000     0.000862   179.123253
	  104 D(11,9,15,16)   =    172.678288     0.000000     0.000802   172.679090
	  105 D(11,9,15,17)   =     56.913792    -0.000000     0.000761    56.914553
	  106 D(11,9,15,18)   =    -65.201484     0.000000     0.000843   -65.200640
	  107 D(12,24,21,18)  =     94.525103    -0.000000    -0.001535    94.523568
	  108 D(12,24,21,22)  =    -29.165765    -0.000000    -0.001613   -29.167378
	  109 D(12,24,21,23)  =   -144.724354    -0.000000    -0.001561  -144.725915
	  110 D(13,12,24,21)  =    177.034851    -0.000000    -0.001521   177.033330
	  111 D(13,12,24,25)  =     55.121444     0.000000    -0.001346    55.120098
	  112 D(13,12,24,26)  =    -60.012835     0.000000    -0.001251   -60.014086
	  113 D(14,12,24,21)  =     61.695987    -0.000000    -0.001462    61.694525
	  114 D(14,12,24,25)  =    -60.217420    -0.000000    -0.001287   -60.218706
	  115 D(14,12,24,26)  =   -175.351699     0.000000    -0.001192  -175.352891
	  116 D(15,18,21,22)  =    -63.111758     0.000000     0.004261   -63.107497
	  117 D(15,18,21,23)  =     52.110790     0.000000     0.004119    52.114909
	  118 D(15,18,21,24)  =    173.861382     0.000000     0.004196   173.865577
	  119 D(16,15,18,19)  =     56.807185     0.000000    -0.000871    56.806314
	  120 D(16,15,18,20)  =    -58.789270    -0.000000    -0.000927   -58.790197
	  121 D(16,15,18,21)  =   -179.131901     0.000000    -0.001012  -179.132914
	  122 D(17,15,18,19)  =    172.569672     0.000000    -0.000857   172.568816
	  123 D(17,15,18,20)  =     56.973218    -0.000000    -0.000912    56.972305
	  124 D(17,15,18,21)  =    -63.369414     0.000000    -0.000998   -63.370412
	  125 D(18,21,24,25)  =   -144.318710    -0.000000    -0.001729  -144.320439
	  126 D(18,21,24,26)  =    -28.474107    -0.000000    -0.001745   -28.475852
	  127 D(19,18,21,22)  =     60.759956     0.000000     0.004018    60.763974
	  128 D(19,18,21,23)  =    175.982503    -0.000000     0.003877   175.986380
	  129 D(19,18,21,24)  =    -62.266905     0.000000     0.003953   -62.262951
	  130 D(20,18,21,22)  =    176.389799     0.000000     0.004083   176.393882
	  131 D(20,18,21,23)  =    -68.387653    -0.000000     0.003941   -68.383712
	  132 D(20,18,21,24)  =     53.362939     0.000000     0.004018    53.366956
	  133 D(22,21,24,25)  =     91.990422    -0.000000    -0.001807    91.988615
	  134 D(22,21,24,26)  =   -152.164974     0.000000    -0.001823  -152.166798
	  135 D(23,21,24,25)  =    -23.568167    -0.000000    -0.001755   -23.569922
	  136 D(23,21,24,26)  =     92.276436    -0.000000    -0.001771    92.274665
	  137 R(1,21)         =      3.667294    -0.000001    -0.000005     3.667289
	  138 R(5,18)         =      3.398708     0.000003    -0.000001     3.398706
	 ---------------------------------------------------------------------------

  ==> Convergence Check <==

  Measures of convergence in internal coordinates in au.
  Criteria marked as inactive (o), active & met (*), and active & unmet ( ).
  --------------------------------------------------------------------------------------------- ~
   Step     Total Energy     Delta E     MAX Force     RMS Force      MAX Disp      RMS Disp    ~
  --------------------------------------------------------------------------------------------- ~
    Convergence Criteria             o    2.00e-06 *    1.00e-06 *    6.00e-06 *    4.00e-06 *  ~
  --------------------------------------------------------------------------------------------- ~
      1    -314.98080733   -3.15e+02 o    9.58e-07 *    2.11e-07 *    7.44e-05      2.14e-05    ~
  ---------------------------------------------------------------------------------------------

	Writing optimization data to binary file.
	Structure for next step:
	Cartesian Geometry (in Angstrom)
	    C    -2.2249813329   1.5474582150   0.2130747842
	    H    -2.6340559524   1.7690123614  -0.7742712230
	    H    -1.1597558093   1.7773560748   0.1892985577
	    H    -2.6914328604   2.2237397463   0.9290579553
	    C     2.1143791009   1.4484412712  -0.5677119261
	    H     2.1533420979   1.1403680806  -1.6137044955
	    H     2.7089967322   2.3558573540  -0.4619692340
	    H     1.0817731160   1.7044323810  -0.3327911260
	    C    -2.4731509419   0.0906736187   0.5869971373
	    H    -3.5460766431  -0.0724823297   0.7106883570
	    H    -2.0196435477  -0.1213227005   1.5575831133
	    C     2.6366282195   0.3451412764   0.3452976377
	    H     3.7046595891   0.2051286749   0.1620252146
	    H     2.5421022495   0.6639180146   1.3871323027
	    C    -1.9481386536  -0.8943594136  -0.4570061449
	    H    -2.5076555204  -0.7522250053  -1.3863756500
	    H    -2.1564599593  -1.9143410493  -0.1207872754
	    C    -0.4539134908  -0.7697896305  -0.7535318551
	    H    -0.2439233045   0.1967715940  -1.2144688857
	    H    -0.1824012108  -1.5242120860  -1.4975542832
	    C     0.4254175207  -0.9732616153   0.4783401078
	    H     0.2238364516  -0.1934364308   1.2194377459
	    H     0.1294252887  -1.9176088779   0.9447950394
	    C     1.9312823353  -1.0003840872   0.1794700185
	    H     2.4175867333  -1.7179950044   0.8439593498
	    H     2.0900541413  -1.3692757240  -0.8389267207
			--------------------------
			 OPTKING Finished Execution 
			--------------------------

    Structure for next step:
    Molecular point group: c1
    Full point group: C1

    Geometry (in Angstrom), charge = 0, multiplicity = 1:

    C           -2.224980836453     1.547458908385     0.213075109870
    H           -2.634055455927     1.769013054765    -0.774270897352
    H           -1.159755312815     1.777356768235     0.189298883310
    H           -2.691432363962     2.223740439713     0.929058281002
    C            2.114379597413     1.448441964589    -0.567711600460
    H            2.153342594337     1.140368773957    -1.613704169841
    H            2.708997228705     2.355858047440    -0.461968908349
    H            1.081773612432     1.704433074407    -0.332790800323
    C           -2.473150445441     0.090674312077     0.586997462976
    H           -3.546076146640    -0.072481636304     0.710688682654
    H           -2.019643051252    -0.121322007124     1.557583438965
    C            2.636628715958     0.345141969779     0.345297963342
    H            3.704660085542     0.205129368321     0.162025540209
    H            2.542102745942     0.663918708039     1.387132628304
    C           -1.948138157100    -0.894358720153    -0.457005819216
    H           -2.507655023981    -0.752224311944    -1.386375324321
    H           -2.156459462868    -1.914340355880    -0.120786949731
    C           -0.453912994348    -0.769788937054    -0.753531529415
    H           -0.243922808059     0.196772287401    -1.214468560086
    H           -0.182400714345    -1.524211392570    -1.497553957508
    C            0.425418017121    -0.973260921912     0.478340433473
    H            0.223836948042    -0.193435737396     1.219438071581
    H            0.129425785162    -1.917608184449     0.944795365103
    C            1.931282831804    -1.000383393806     0.179470344194
    H            2.417587229731    -1.717994310971     0.843959675491
    H            2.090054637750    -1.369275030556    -0.838926395021

gradient() will perform analytic gradient computation.

*** tstart() called on wr37
*** at Wed Sep 21 05:04:51 2016


         ---------------------------------------------------------
                                   SCF
            by Justin Turney, Rob Parrish, and Andy Simmonett
                              RHF Reference
                       12 Threads,  60000 MiB Core
         ---------------------------------------------------------

  ==> Geometry <==

    Molecular point group: c1
    Full point group: C1

    Geometry (in Angstrom), charge = 0, multiplicity = 1:

       Center              X                  Y                   Z               Mass       
    ------------   -----------------  -----------------  -----------------  -----------------
           C         -2.224980836453     1.547458908385     0.213075109870    12.000000000000
           H         -2.634055455927     1.769013054765    -0.774270897352     1.007825032070
           H         -1.159755312815     1.777356768235     0.189298883310     1.007825032070
           H         -2.691432363962     2.223740439713     0.929058281002     1.007825032070
           C          2.114379597413     1.448441964589    -0.567711600460    12.000000000000
           H          2.153342594337     1.140368773957    -1.613704169841     1.007825032070
           H          2.708997228705     2.355858047440    -0.461968908349     1.007825032070
           H          1.081773612432     1.704433074407    -0.332790800323     1.007825032070
           C         -2.473150445441     0.090674312077     0.586997462976    12.000000000000
           H         -3.546076146640    -0.072481636304     0.710688682654     1.007825032070
           H         -2.019643051252    -0.121322007124     1.557583438965     1.007825032070
           C          2.636628715958     0.345141969779     0.345297963342    12.000000000000
           H          3.704660085542     0.205129368321     0.162025540209     1.007825032070
           H          2.542102745942     0.663918708039     1.387132628304     1.007825032070
           C         -1.948138157100    -0.894358720153    -0.457005819216    12.000000000000
           H         -2.507655023981    -0.752224311944    -1.386375324321     1.007825032070
           H         -2.156459462868    -1.914340355880    -0.120786949731     1.007825032070
           C         -0.453912994348    -0.769788937054    -0.753531529415    12.000000000000
           H         -0.243922808059     0.196772287401    -1.214468560086     1.007825032070
           H         -0.182400714345    -1.524211392570    -1.497553957508     1.007825032070
           C          0.425418017121    -0.973260921912     0.478340433473    12.000000000000
           H          0.223836948042    -0.193435737396     1.219438071581     1.007825032070
           H          0.129425785162    -1.917608184449     0.944795365103     1.007825032070
           C          1.931282831804    -1.000383393806     0.179470344194    12.000000000000
           H          2.417587229731    -1.717994310971     0.843959675491     1.007825032070
           H          2.090054637750    -1.369275030556    -0.838926395021     1.007825032070

  Running in c1 symmetry.

  Rotational constants: A =      0.09709  B =      0.03415  C =      0.02882 [cm^-1]
  Rotational constants: A =   2910.61251  B =   1023.74815  C =    864.04306 [MHz]
  Nuclear repulsion =  403.944108341292861

  Charge       = 0
  Multiplicity = 1
  Electrons    = 66
  Nalpha       = 33
  Nbeta        = 33

  ==> Algorithm <==

  SCF Algorithm Type is DF.
  DIIS enabled.
  MOM disabled.
  Fractional occupation disabled.
  Guess Type is READ.
  Energy threshold   = 1.00e-10
  Density threshold  = 1.00e-10
  Integral threshold = 0.00e+00

  ==> Primary Basis <==

  Basis Set: AUG-CC-PVTZ
    Number of shells: 274
    Number of basis function: 782
    Number of Cartesian functions: 890
    Spherical Harmonics?: true
    Max angular momentum: 3

  ==> Pre-Iterations <==

   -------------------------------------------------------
    Irrep   Nso     Nmo     Nalpha   Nbeta   Ndocc  Nsocc
   -------------------------------------------------------
     A        782     782       0       0       0       0
   -------------------------------------------------------
    Total     782     782      33      33      33       0
   -------------------------------------------------------

  ==> Integral Setup <==

  ==> DFJK: Density-Fitted J/K Matrices <==

    J tasked:                  Yes
    K tasked:                  Yes
    wK tasked:                  No
    OpenMP threads:             12
    Integrals threads:          12
    Memory (MB):             42915
    Algorithm:                Core
    Integral Cache:           NONE
    Schwarz Cutoff:          1E-12
    Fitting Condition:       1E-12

   => Auxiliary Basis Set <=

  Basis Set: 
    Number of shells: 492
    Number of basis function: 1660
    Number of Cartesian functions: 2038
    Spherical Harmonics?: true
    Max angular momentum: 4

  Minimum eigenvalue in the overlap matrix is 1.5514570403E-06.
  Using Symmetric Orthogonalization.
  SCF Guess: Reading in previously saved MOs, projecting if necessary.

  Using orbitals from previous SCF, no projection.
  Recomputing DOCC and SOCC from number of alpha and beta electrons from previous calculation.
              A 
    DOCC [    33 ]

  ==> Iterations <==

                           Total Energy        Delta E     RMS |[F,P]|

   @DF-RHF iter   0:  -313.53644471227091   -3.13536e+02   1.44973e-07 
   @DF-RHF iter   1:  -313.53647947693474   -3.47647e-05   3.39434e-08 
   @DF-RHF iter   2:  -313.53647947748942   -5.54678e-10   1.53822e-08 DIIS
   @DF-RHF iter   3:  -313.53647947758151   -9.20863e-11   5.15962e-09 DIIS
   @DF-RHF iter   4:  -313.53647947759993   -1.84173e-11   6.28861e-10 DIIS
   @DF-RHF iter   5:  -313.53647947760072   -7.95808e-13   1.97913e-10 DIIS
   @DF-RHF iter   6:  -313.53647947760049    2.27374e-13   5.15183e-11 DIIS

  ==> Post-Iterations <==

    Orbital Energies (a.u.)
    -----------------------

    Doubly Occupied:                                                      

       1A    -11.213341     2A    -11.211949     3A    -11.210745  
       4A    -11.210198     5A    -11.210065     6A    -11.208292  
       7A    -11.207197     8A    -11.207170     9A     -1.093983  
      10A     -1.059856    11A     -1.004381    12A     -0.948124  
      13A     -0.890758    14A     -0.835199    15A     -0.778557  
      16A     -0.755248    17A     -0.647951    18A     -0.626822  
      19A     -0.611055    20A     -0.606799    21A     -0.570556  
      22A     -0.552139    23A     -0.547415    24A     -0.532695  
      25A     -0.518818    26A     -0.499791    27A     -0.497827  
      28A     -0.472925    29A     -0.463340    30A     -0.458160  
      31A     -0.443855    32A     -0.440015    33A     -0.432029  

    Virtual:                                                              

      34A      0.029249    35A      0.032513    36A      0.034541  
      37A      0.034752    38A      0.046267    39A      0.047363  
      40A      0.050837    41A      0.053172    42A      0.055434  
      43A      0.067950    44A      0.070526    45A      0.071462  
      46A      0.074815    47A      0.075621    48A      0.087205  
      49A      0.093605    50A      0.104854    51A      0.106986  
      52A      0.114534    53A      0.117404    54A      0.119278  
      55A      0.120416    56A      0.124929    57A      0.131000  
      58A      0.134283    59A      0.137305    60A      0.139710  
      61A      0.142442    62A      0.145020    63A      0.150312  
      64A      0.154687    65A      0.155598    66A      0.162398  
      67A      0.164496    68A      0.168256    69A      0.172394  
      70A      0.176081    71A      0.177919    72A      0.183039  
      73A      0.187812    74A      0.194592    75A      0.195755  
      76A      0.200080    77A      0.216386    78A      0.223722  
      79A      0.227682    80A      0.230911    81A      0.237332  
      82A      0.245363    83A      0.246691    84A      0.255750  
      85A      0.264182    86A      0.273432    87A      0.284169  
      88A      0.286292    89A      0.289872    90A      0.297883  
      91A      0.302253    92A      0.303852    93A      0.309922  
      94A      0.311809    95A      0.319950    96A      0.322767  
      97A      0.328588    98A      0.329612    99A      0.330755  
     100A      0.336176   101A      0.343612   102A      0.345219  
     103A      0.348854   104A      0.351400   105A      0.356088  
     106A      0.361927   107A      0.363846   108A      0.368422  
     109A      0.370062   110A      0.375062   111A      0.378002  
     112A      0.380917   113A      0.384388   114A      0.390302  
     115A      0.394446   116A      0.396824   117A      0.398629  
     118A      0.404429   119A      0.409648   120A      0.415812  
     121A      0.418486   122A      0.427495   123A      0.429436  
     124A      0.431637   125A      0.436090   126A      0.440973  
     127A      0.442925   128A      0.445751   129A      0.451044  
     130A      0.455086   131A      0.462459   132A      0.466706  
     133A      0.468041   134A      0.473072   135A      0.475724  
     136A      0.480750   137A      0.484664   138A      0.485197  
     139A      0.491566   140A      0.493900   141A      0.497083  
     142A      0.500261   143A      0.505615   144A      0.513052  
     145A      0.514335   146A      0.516428   147A      0.526205  
     148A      0.528006   149A      0.529728   150A      0.532342  
     151A      0.540371   152A      0.544429   153A      0.549489  
     154A      0.555749   155A      0.557269   156A      0.562534  
     157A      0.564170   158A      0.568880   159A      0.570534  
     160A      0.576230   161A      0.578223   162A      0.580388  
     163A      0.589230   164A      0.597007   165A      0.601184  
     166A      0.606613   167A      0.609228   168A      0.617299  
     169A      0.623384   170A      0.624714   171A      0.632803  
     172A      0.633854   173A      0.641591   174A      0.642493  
     175A      0.651491   176A      0.654992   177A      0.659855  
     178A      0.662132   179A      0.667611   180A      0.675160  
     181A      0.682704   182A      0.685912   183A      0.690981  
     184A      0.696648   185A      0.697475   186A      0.704122  
     187A      0.709261   188A      0.716925   189A      0.722001  
     190A      0.732226   191A      0.739380   192A      0.742677  
     193A      0.747009   194A      0.749948   195A      0.758981  
     196A      0.761454   197A      0.770524   198A      0.778117  
     199A      0.787205   200A      0.796394   201A      0.799049  
     202A      0.811003   203A      0.817447   204A      0.826433  
     205A      0.831414   206A      0.837916   207A      0.842668  
     208A      0.854470   209A      0.859731   210A      0.866794  
     211A      0.871806   212A      0.875116   213A      0.880178  
     214A      0.888278   215A      0.892806   216A      0.894940  
     217A      0.904750   218A      0.907951   219A      0.918666  
     220A      0.925563   221A      0.926149   222A      0.929558  
     223A      0.937105   224A      0.941791   225A      0.945517  
     226A      0.947399   227A      0.950628   228A      0.955660  
     229A      0.961032   230A      0.970501   231A      0.973777  
     232A      0.977639   233A      0.986271   234A      0.989859  
     235A      0.995339   236A      1.003501   237A      1.010857  
     238A      1.014819   239A      1.018518   240A      1.020000  
     241A      1.023820   242A      1.033520   243A      1.035537  
     244A      1.039703   245A      1.044008   246A      1.053277  
     247A      1.056742   248A      1.062212   249A      1.071571  
     250A      1.072857   251A      1.079355   252A      1.087895  
     253A      1.092122   254A      1.098318   255A      1.103573  
     256A      1.109352   257A      1.116217   258A      1.119715  
     259A      1.127696   260A      1.141190   261A      1.142580  
     262A      1.146513   263A      1.149243   264A      1.155322  
     265A      1.159107   266A      1.165366   267A      1.168936  
     268A      1.176096   269A      1.177798   270A      1.180283  
     271A      1.191147   272A      1.197707   273A      1.200719  
     274A      1.202199   275A      1.207879   276A      1.213776  
     277A      1.223693   278A      1.225608   279A      1.231832  
     280A      1.237857   281A      1.241050   282A      1.253177  
     283A      1.256650   284A      1.262078   285A      1.266344  
     286A      1.269806   287A      1.271300   288A      1.282949  
     289A      1.285369   290A      1.290239   291A      1.292203  
[...]
	 D(23,21,24,26)   =         1.610522	      92.276109
	 R(1,21)          =         6.930187	       3.667297
	 R(5,18)          =         6.422637	       3.398713

	Current energy   :      -314.9808073352

	Energy change for the previous step:
		Projected    :        -0.0000000000
		Actual       :        -0.0000000041

	Performing BFGS update.
	Previous computed or guess Hessian on step 1.
	Denominators (dg)(dq) or (dq)(dq) are very small.
	 Skipping Hessian update for step 14.
	Denominators (dg)(dq) or (dq)(dq) are very small.
	 Skipping Hessian update for step 13.
	Denominators (dg)(dq) or (dq)(dq) are very small.
	 Skipping Hessian update for step 12.
	Denominators (dg)(dq) or (dq)(dq) are very small.
	 Skipping Hessian update for step 11.
	Denominators (dg)(dq) or (dq)(dq) are very small.
	 Skipping Hessian update for step 10.
	Denominators (dg)(dq) or (dq)(dq) are very small.
	 Skipping Hessian update for step 9.
	Denominators (dg)(dq) or (dq)(dq) are very small.
	 Skipping Hessian update for step 8.
	Denominators (dg)(dq) or (dq)(dq) are very small.
	 Skipping Hessian update for step 7.
	Denominators (dg)(dq) or (dq)(dq) are very small.
	 Skipping Hessian update for step 6.
	Denominators (dg)(dq) or (dq)(dq) are very small.
	 Skipping Hessian update for step 5.
	Denominators (dg)(dq) or (dq)(dq) are very small.
	 Skipping Hessian update for step 4.
	Denominators (dg)(dq) or (dq)(dq) are very small.
	 Skipping Hessian update for step 3.
	Denominators (dg)(dq) or (dq)(dq) are very small.
	 Skipping Hessian update for step 2.
	Steps to be used in Hessian update: 1
	Taking RFO optimization step.
	Going to follow RFO solution 1.
	Using RFO vector 1.
	Norm of target step-size    0.00002
	Projected energy change by RFO approximation:        -0.0000000000

	Back-transformation to cartesian coordinates...
	Successfully converged to displaced geometry.

	--- Internal Coordinate Step in ANG or DEG, aJ/ANG or AJ/DEG ---
	 ---------------------------------------------------------------------------
	   Coordinate                Previous        Force       Change         New 
	   ----------                --------       ------       ------       ------
	    1 R(1,2)          =      1.091458    -0.000001    -0.000000     1.091458
	    2 R(1,3)          =      1.090011    -0.000001    -0.000000     1.090011
	    3 R(1,4)          =      1.089755    -0.000002    -0.000000     1.089755
	    4 R(1,9)          =      1.524345    -0.000001    -0.000000     1.524345
	    5 R(5,6)          =      1.091113    -0.000002    -0.000000     1.091113
	    6 R(5,7)          =      1.090025    -0.000001    -0.000000     1.090025
	    7 R(5,8)          =      1.089492    -0.000002    -0.000000     1.089492
	    8 R(5,12)         =      1.524336    -0.000000    -0.000000     1.524336
	    9 R(9,10)         =      1.092286     0.000000    -0.000000     1.092286
	   10 R(9,11)         =      1.092084     0.000000    -0.000000     1.092084
	   11 R(9,15)         =      1.528356    -0.000002    -0.000000     1.528355
	   12 R(12,13)        =      1.092649    -0.000002    -0.000000     1.092649
	   13 R(12,14)        =      1.093605    -0.000003    -0.000000     1.093605
	   14 R(12,24)        =      1.528217    -0.000000    -0.000000     1.528217
	   15 R(15,16)        =      1.094070     0.000001     0.000000     1.094070
	   16 R(15,17)        =      1.093985     0.000001     0.000000     1.093985
	   17 R(15,18)        =      1.528449     0.000002     0.000000     1.528449
	   18 R(18,19)        =      1.091237    -0.000000     0.000000     1.091237
	   19 R(18,20)        =      1.093819    -0.000000     0.000000     1.093819
	   20 R(18,21)        =      1.527132     0.000001     0.000000     1.527132
	   21 R(21,22)        =      1.094525    -0.000003    -0.000000     1.094525
	   22 R(21,23)        =      1.094067    -0.000002    -0.000000     1.094067
	   23 R(21,24)        =      1.535475    -0.000001     0.000000     1.535475
	   24 R(24,25)        =      1.092246    -0.000003    -0.000000     1.092246
	   25 R(24,26)        =      1.094723    -0.000004    -0.000000     1.094723
	   26 B(1,9,10)       =    109.295923     0.000000     0.000037   109.295960
	   27 B(1,9,11)       =    109.628476     0.000000    -0.000006   109.628471
	   28 B(1,9,15)       =    113.107213    -0.000000    -0.000064   113.107149
	   29 B(2,1,3)        =    107.681707     0.000000     0.000005   107.681712
	   30 B(2,1,4)        =    107.935434     0.000000     0.000008   107.935441
	   31 B(2,1,9)        =    110.785825    -0.000000    -0.000009   110.785816
	   32 B(3,1,4)        =    107.562318     0.000000     0.000009   107.562327
	   33 B(3,1,9)        =    111.470284    -0.000000    -0.000020   111.470263
	   34 B(4,1,9)        =    111.236931     0.000000     0.000009   111.236941
	   35 B(5,12,13)      =    109.097181    -0.000000     0.000009   109.097190
	   36 B(5,12,14)      =    109.269307    -0.000000    -0.000003   109.269304
	   37 B(5,12,24)      =    114.465220     0.000000    -0.000037   114.465183
	   38 B(6,5,7)        =    107.972748    -0.000000     0.000001   107.972749
	   39 B(6,5,8)        =    107.872127     0.000000     0.000010   107.872138
	   40 B(6,5,12)       =    110.952398     0.000000     0.000003   110.952401
	   41 B(7,5,8)        =    107.488037     0.000000     0.000001   107.488039
	   42 B(7,5,12)       =    110.949002     0.000000     0.000011   110.949013
	   43 B(8,5,12)       =    111.446543    -0.000000    -0.000026   111.446517
	   44 B(9,15,16)      =    108.714381    -0.000000    -0.000002   108.714378
	   45 B(9,15,17)      =    108.999281    -0.000000     0.000012   108.999293
	   46 B(9,15,18)      =    114.570984     0.000000    -0.000050   114.570934
	   47 B(10,9,11)      =    106.156907    -0.000000     0.000019   106.156926
	   48 B(10,9,15)      =    108.572759     0.000000     0.000016   108.572775
	   49 B(11,9,15)      =    109.836092     0.000000     0.000003   109.836095
	   50 B(12,24,21)     =    114.580592    -0.000000    -0.000026   114.580567
	   51 B(12,24,25)     =    107.875694     0.000000     0.000021   107.875714
	   52 B(12,24,26)     =    109.310832     0.000000    -0.000003   109.310829
	   53 B(13,12,14)     =    106.357586    -0.000000     0.000001   106.357587
	   54 B(13,12,24)     =    108.670595     0.000000     0.000021   108.670616
	   55 B(14,12,24)     =    108.670454     0.000000     0.000013   108.670467
	   56 B(15,18,19)     =    110.014808     0.000000     0.000003   110.014810
	   57 B(15,18,20)     =    108.567090    -0.000000    -0.000019   108.567071
	   58 B(15,18,21)     =    113.300868     0.000000     0.000007   113.300875
	   59 B(16,15,17)     =    106.547398     0.000000     0.000021   106.547418
	   60 B(16,15,18)     =    108.939524    -0.000000     0.000003   108.939527
	   61 B(17,15,18)     =    108.770114     0.000000     0.000021   108.770136
	   62 B(18,21,22)     =    110.194440     0.000000     0.000006   110.194446
	   63 B(18,21,23)     =    107.646480     0.000000     0.000003   107.646483
	   64 B(18,21,24)     =    114.207533    -0.000000    -0.000032   114.207501
	   65 B(19,18,20)     =    106.011317     0.000000     0.000024   106.011341
	   66 B(19,18,21)     =    110.361499    -0.000000    -0.000048   110.361451
	   67 B(20,18,21)     =    108.292443     0.000000     0.000035   108.292478
	   68 B(21,24,25)     =    109.258958    -0.000000     0.000010   109.258968
	   69 B(21,24,26)     =    109.223835    -0.000000     0.000006   109.223841
	   70 B(22,21,23)     =    106.049739    -0.000000     0.000000   106.049739
	   71 B(22,21,24)     =    108.965447     0.000000     0.000025   108.965472
	   72 B(23,21,24)     =    109.454880    -0.000000    -0.000000   109.454879
	   73 B(25,24,26)     =    106.259376    -0.000000    -0.000006   106.259370
	   74 D(1,9,15,16)    =    -64.489388     0.000000     0.000075   -64.489313
	   75 D(1,9,15,17)    =    179.746158     0.000000     0.000045   179.746203
	   76 D(1,9,15,18)    =     57.630915    -0.000000     0.000043    57.630957
	   77 D(2,1,9,10)     =    -66.442561     0.000000     0.000041   -66.442521
	   78 D(2,1,9,11)     =    177.588297    -0.000000     0.000000   177.588298
	   79 D(2,1,9,15)     =     54.641199    -0.000000     0.000045    54.641244
	   80 D(3,1,9,10)     =    173.663748     0.000000     0.000054   173.663802
	   81 D(3,1,9,11)     =     57.694607    -0.000000     0.000014    57.694620
	   82 D(3,1,9,15)     =    -65.252492     0.000000     0.000059   -65.252433
	   83 D(4,1,9,10)     =     53.616527     0.000000     0.000050    53.616577
	   84 D(4,1,9,11)     =    -62.352614    -0.000000     0.000010   -62.352605
	   85 D(4,1,9,15)     =    174.700287     0.000000     0.000055   174.700342
	   86 D(5,12,24,21)   =    -60.746217     0.000000     0.000059   -60.746159
	   87 D(5,12,24,25)   =    177.340425     0.000000     0.000047   177.340473
	   88 D(5,12,24,26)   =     62.206176     0.000000     0.000045    62.206221
	   89 D(6,5,12,13)    =     66.713190     0.000000     0.000147    66.713337
	   90 D(6,5,12,14)    =   -177.389517     0.000000     0.000151  -177.389366
	   91 D(6,5,12,24)    =    -55.273307     0.000000     0.000140   -55.273168
	   92 D(7,5,12,13)    =    -53.312847     0.000000     0.000137   -53.312710
	   93 D(7,5,12,14)    =     62.584446    -0.000000     0.000141    62.584587
	   94 D(7,5,12,24)    =   -175.299344    -0.000000     0.000129  -175.299215
	   95 D(8,5,12,13)    =   -173.055647     0.000000     0.000145  -173.055502
	   96 D(8,5,12,14)    =    -57.158354    -0.000000     0.000149   -57.158205
	   97 D(8,5,12,24)    =     64.957856     0.000000     0.000137    64.957993
	   98 D(9,15,18,19)   =    -65.190975     0.000000     0.000221   -65.190754
	   99 D(9,15,18,20)   =    179.212561     0.000000     0.000202   179.212763
	  100 D(9,15,18,21)   =     58.869955     0.000000     0.000166    58.870121
	  101 D(10,9,15,16)   =     57.002589     0.000000     0.000091    57.002680
	  102 D(10,9,15,17)   =    -58.761866     0.000000     0.000061   -58.761804
	  103 D(10,9,15,18)   =    179.122891    -0.000000     0.000059   179.122950
	  104 D(11,9,15,16)   =    172.678672     0.000000     0.000125   172.678797
	  105 D(11,9,15,17)   =     56.914217     0.000000     0.000095    56.914312
	  106 D(11,9,15,18)   =    -65.201026     0.000000     0.000093   -65.200933
	  107 D(12,24,21,18)  =     94.524881     0.000000     0.000131    94.525012
	  108 D(12,24,21,22)  =    -29.166071     0.000000     0.000127   -29.165945
	  109 D(12,24,21,23)  =   -144.724627     0.000000     0.000113  -144.724514
	  110 D(13,12,24,21)  =    177.034695     0.000000     0.000057   177.034752
	  111 D(13,12,24,25)  =     55.121338     0.000000     0.000046    55.121384
	  112 D(13,12,24,26)  =    -60.012912     0.000000     0.000044   -60.012868
	  113 D(14,12,24,21)  =     61.695878    -0.000000     0.000039    61.695917
	  114 D(14,12,24,25)  =    -60.217479     0.000000     0.000027   -60.217452
	  115 D(14,12,24,26)  =   -175.351729    -0.000000     0.000025  -175.351703
	  116 D(15,18,21,22)  =    -63.111107    -0.000000    -0.000129   -63.111236
	  117 D(15,18,21,23)  =     52.111347    -0.000000    -0.000124    52.111223
	  118 D(15,18,21,24)  =    173.861951    -0.000000    -0.000143   173.861807
	  119 D(16,15,18,19)  =     56.806761     0.000000     0.000186    56.806948
	  120 D(16,15,18,20)  =    -58.789703     0.000000     0.000166   -58.789536
	  121 D(16,15,18,21)  =   -179.132308    -0.000000     0.000131  -179.132178
	  122 D(17,15,18,19)  =    172.569188     0.000000     0.000224   172.569411
	  123 D(17,15,18,20)  =     56.972724     0.000000     0.000204    56.972928
	  124 D(17,15,18,21)  =    -63.369882    -0.000000     0.000168   -63.369714
	  125 D(18,21,24,25)  =   -144.318983     0.000000     0.000148  -144.318835
	  126 D(18,21,24,26)  =    -28.474382     0.000000     0.000149   -28.474233
	  127 D(19,18,21,22)  =     60.760592     0.000000    -0.000157    60.760435
	  128 D(19,18,21,23)  =    175.983046     0.000000    -0.000152   175.982893
	  129 D(19,18,21,24)  =    -62.266351    -0.000000    -0.000172   -62.266522
	  130 D(20,18,21,22)  =    176.390421     0.000000    -0.000134   176.390287
	  131 D(20,18,21,23)  =    -68.387126     0.000000    -0.000129   -68.387255
	  132 D(20,18,21,24)  =     53.363478    -0.000000    -0.000149    53.363330
	  133 D(22,21,24,25)  =     91.990064     0.000000     0.000144    91.990208
	  134 D(22,21,24,26)  =   -152.165335     0.000000     0.000145  -152.165190
	  135 D(23,21,24,25)  =    -23.568492     0.000000     0.000130   -23.568362
	  136 D(23,21,24,26)  =     92.276109     0.000000     0.000131    92.276240
	  137 R(1,21)         =      3.667297     0.000001     0.000001     3.667299
	  138 R(5,18)         =      3.398713    -0.000001    -0.000000     3.398713
	 ---------------------------------------------------------------------------

  ==> Convergence Check <==

  Measures of convergence in internal coordinates in au.
  Criteria marked as inactive (o), active & met (*), and active & unmet ( ).
  ---------------------------------------------------------------------------------------------
   Step     Total Energy     Delta E     MAX Force     RMS Force      MAX Disp      RMS Disp   
  ---------------------------------------------------------------------------------------------
    Convergence Criteria             o    2.00e-06 *    1.00e-06 *    6.00e-06 *    4.00e-06 *
  ---------------------------------------------------------------------------------------------
     15    -314.98080734   -4.10e-09 o    4.95e-07 *    1.07e-07 *    3.91e-06 *    1.48e-06 *  ~
  ---------------------------------------------------------------------------------------------


  **** Optimization is complete! (in 15 steps) ****

  ==> Optimization Summary <==

  Measures of convergence in internal coordinates in au.
  --------------------------------------------------------------------------------------------------------------- ~
   Step         Total Energy             Delta E       MAX Force       RMS Force        MAX Disp        RMS Disp  ~
  --------------------------------------------------------------------------------------------------------------- ~
      1    -314.980807330697   -314.980807330697      0.00000096      0.00000021      0.00007436      0.00002140  ~
      2    -314.980807333086     -0.000000002389      0.00000151      0.00000038      0.00004086      0.00001717  ~
      3    -314.980807334523     -0.000000001437      0.00000163      0.00000046      0.00008318      0.00002522  ~
      4    -314.980807330720      0.000000003802      0.00000071      0.00000017      0.00003949      0.00001294  ~
      5    -314.980807327770      0.000000002950      0.00000111      0.00000027      0.00003349      0.00001169  ~
      6    -314.980807332696     -0.000000004926      0.00000091      0.00000019      0.00002385      0.00000969  ~
      7    -314.980807331310      0.000000001386      0.00000121      0.00000025      0.00007767      0.00002119  ~
      8    -314.980807331551     -0.000000000240      0.00000414      0.00000109      0.00008395      0.00002296  ~
      9    -314.980807330056      0.000000001495      0.00000056      0.00000012      0.00000687      0.00000219  ~
     10    -314.980807330830     -0.000000000774      0.00000050      0.00000011      0.00000896      0.00000340  ~
     11    -314.980807332376     -0.000000001546      0.00000143      0.00000031      0.00001479      0.00000468  ~
     12    -314.980807331643      0.000000000733      0.00000040      0.00000011      0.00001013      0.00000363  ~
     13    -314.980807328096      0.000000003547      0.00000073      0.00000019      0.00000607      0.00000249  ~
     14    -314.980807331069     -0.000000002973      0.00000035      0.00000008      0.00000684      0.00000270  ~
     15    -314.980807335165     -0.000000004096      0.00000050      0.00000011      0.00000391      0.00000148  ~
  --------------------------------------------------------------------------------------------------------------- ~

	Writing optimization data to binary file.
	Final energy is   -314.9808073351650
	Final (previous) structure:
	Cartesian Geometry (in Angstrom)
	    C    -2.2250417443   1.5474472944   0.2130747261
	    H    -2.6341147513   1.7689938866  -0.7742736196
	    H    -1.1598212653   1.7773692531   0.1893060546
	    H    -2.6915133576   2.2237172092   0.9290558027
	    C     2.1144255683   1.4484338916  -0.5677061585
	    H     2.1533521437   1.1403650066  -1.6137009326
	    H     2.7090694331   2.3558338456  -0.4619751470
	    H     1.0818330525   1.7044504224  -0.3327561331
	    C    -2.4731813780   0.0906566820   0.5869929482
	    H    -3.5461046260  -0.0725243863   0.7106725248
	    H    -2.0196796348  -0.1213300279   1.5575835865
	    C     2.6366694734   0.3451153332   0.3452837997
	    H     3.7046917414   0.2050742179   0.1619818993
	    H     2.5421805128   0.6638897322   1.3871220818
	    C    -1.9481351834  -0.8943635860  -0.4570052677
	    H    -2.5076506344  -0.7522459557  -1.3863781166
	    H    -2.1564317927  -1.9143500673  -0.1207858368
	    C    -0.4539110961  -0.7697565110  -0.7535245420
	    H    -0.2439397749   0.1968106291  -1.2144558815
	    H    -0.1823801040  -1.5241687022  -1.4975498755
	    C     0.4254206971  -0.9732169120   0.4783481940
	    H     0.2238653268  -0.1933657366   1.2194240968
	    H     0.1294065652  -1.9175422936   0.9448316412
	    C     1.9312817431  -1.0003891189   0.1794688559
	    H     2.4175682470  -1.7180124283   0.8439570430
	    H     2.0900333598  -1.3692895718  -0.8389268577
	Saving final (previous) structure.
			--------------------------
			 OPTKING Finished Execution 
			--------------------------

    Final optimized geometry and variables:
    Molecular point group: c1
    Full point group: C1

    Geometry (in Angstrom), charge = 0, multiplicity = 1:

    C           -2.225041744288     1.547447294445     0.213074726107
    H           -2.634114751251     1.768993886649    -0.774273619614
    H           -1.159821265345     1.777369253127     0.189306054562
    H           -2.691513357615     2.223717209156     0.929055802709
    C            2.114425568291     1.448433891599    -0.567706158528
    H            2.153352143732     1.140365006564    -1.613700932577
    H            2.709069433082     2.355833845617    -0.461975146998
    H            1.081833052456     1.704450422411    -0.332756133065
    C           -2.473181378035     0.090656681987     0.586992948203
    H           -3.546104625953    -0.072524386303     0.710672524820
    H           -2.019679634773    -0.121330027932     1.557583586540
    C            2.636669473358     0.345115333211     0.345283799684
    H            3.704691741446     0.205074217933     0.161981899330
    H            2.542180512770     0.663889732229     1.387122081844
    C           -1.948135183413    -0.894363585978    -0.457005267709
    H           -2.507650634438    -0.752245955674    -1.386378116595
    H           -2.156431792656    -1.914350067303    -0.120785836759
    C           -0.453911096124    -0.769756510972    -0.753524541976
    H           -0.243939774913     0.196810629113    -1.214455881480
    H           -0.182380104005    -1.524168702151    -1.497549875466
    C            0.425420697123    -0.973216911990     0.478348194015
    H            0.223865326783    -0.193365736590     1.219424096789
    H            0.129406565181    -1.917542293581     0.944831641178
    C            1.931281743072    -1.000389118885     0.179468855911
    H            2.417568247047    -1.718012428274     0.843957043013
    H            2.090033359769    -1.369289571804    -0.838926857677

	Cleaning optimization helper files.

*** Psi4 exiting successfully. Buy a developer a beer!
