    -----------------------------------------------------------------------
          Psi4: An Open-Source Ab Initio Electronic Structure Package
                              Psi4 1.0.0 Driver

                          Git: Rev {master} 6a9a71b dirty

    J. M. Turney, A. C. Simmonett, R. M. Parrish, E. G. Hohenstein,
    F. A. Evangelista, J. T. Fermann, B. J. Mintz, L. A. Burns, J. J. Wilke,
    M. L. Abrams, N. J. Russ, M. L. Leininger, C. L. Janssen, E. T. Seidl,
    W. D. Allen, H. F. Schaefer, R. A. King, E. F. Valeev, C. D. Sherrill,
    and T. D. Crawford, WIREs Comput. Mol. Sci. 2, 556-565 (2012)
    (doi: 10.1002/wcms.93)

                         Additional Contributions by
    A. E. DePrince, U. Bozkaya, A. Yu. Sokolov, D. G. A. Smith, R. Di Remigio,
    R. M. Richard, J. F. Gonthier, H. R. McAlexander, M. Saitow, and
    B. P. Pritchard
    -----------------------------------------------------------------------


    Psi4 started on: Wed Sep 21 10:40:22 2016

    Process ID:  32497
    PSI4DATADIR: /usr/local/hpc5/psi4conda/share/psi4
    Memory level set to 256.000 MB

  ==> Input File <==

--------------------------------------------------------------------------
memory 60 Gb

molecule molecule_25_psi {
0 1
C           -3.509634213733    -0.211675392040     0.521411140195
H           -3.092017168671    -0.236452671800     1.526979770073
H           -4.396637874123    -0.844758057842     0.518250413416
H           -3.828339703732     0.811849500845     0.316810319618
C            2.965039910140    -0.971820297567     0.677271142495
H            2.298737576579    -0.922544407615     1.538331461868
H            3.795275089803    -0.287418577296     0.860272981494
H            3.368778523134    -1.982893384644     0.629463538430
C           -2.498503919559    -0.676913484693    -0.521168929910
H           -2.991366173736    -0.737561538461    -1.494049029295
H           -2.162469976389    -1.689718629168    -0.281072923195
C            2.239800363820    -0.605591787052    -0.612954079260
H            2.910631134739    -0.760674734442    -1.460885328470
H            1.396558028781    -1.284189086506    -0.764357416964
C           -1.280006305010     0.236899685703    -0.638657365727
H           -1.611791003275     1.253754532633    -0.876184020006
H           -0.671538089544    -0.095604732248    -1.482972453194
C           -0.421188016902     0.272613503678     0.620701665581
H           -0.095626897307    -0.745281200084     0.857760120270
H           -1.025498343287     0.604556790952     1.467631291596
C            0.791751784682     1.195395030814     0.504565161948
H            0.441862749492     2.221880932288     0.361602260257
H            1.335624329053     1.189531294605     1.452151442270
C            1.749924754798     0.841278013369    -0.634640433363
H            1.269019672267     1.043277905993    -1.594347288821
H            2.616050342991     1.507493763598    -0.581501930820
}

set globals {
  reference rhf
  g_convergence gau_verytight
  basis aug-cc-pvtz
  freeze_core true
  scf_type df
  mp_type df
}
optimize('mp2')
--------------------------------------------------------------------------
/usr/local/hpc5/psi4conda/lib/python2.7/site-packages/v2rdm_casscf/v2rdm_casscf.so loaded.

  Memory set to  60.000 GiB by Python script.
gradient() will perform analytic gradient computation.

*** tstart() called on wr38
*** at Wed Sep 21 10:40:24 2016


         ---------------------------------------------------------
                                   SCF
            by Justin Turney, Rob Parrish, and Andy Simmonett
                              RHF Reference
                       12 Threads,  60000 MiB Core
         ---------------------------------------------------------

  ==> Geometry <==

    Molecular point group: c1
    Full point group: C1

    Geometry (in Angstrom), charge = 0, multiplicity = 1:

       Center              X                  Y                   Z               Mass       
    ------------   -----------------  -----------------  -----------------  -----------------
           C         -3.509634213733    -0.211675392040     0.521411140195    12.000000000000
           H         -3.092017168671    -0.236452671800     1.526979770073     1.007825032070
           H         -4.396637874123    -0.844758057842     0.518250413416     1.007825032070
           H         -3.828339703732     0.811849500845     0.316810319618     1.007825032070
           C          2.965039910140    -0.971820297567     0.677271142495    12.000000000000
           H          2.298737576579    -0.922544407615     1.538331461868     1.007825032070
           H          3.795275089803    -0.287418577296     0.860272981494     1.007825032070
           H          3.368778523134    -1.982893384644     0.629463538430     1.007825032070
           C         -2.498503919559    -0.676913484693    -0.521168929910    12.000000000000
           H         -2.991366173736    -0.737561538461    -1.494049029295     1.007825032070
           H         -2.162469976389    -1.689718629168    -0.281072923195     1.007825032070
           C          2.239800363820    -0.605591787052    -0.612954079260    12.000000000000
           H          2.910631134739    -0.760674734442    -1.460885328470     1.007825032070
           H          1.396558028781    -1.284189086506    -0.764357416964     1.007825032070
           C         -1.280006305010     0.236899685703    -0.638657365727    12.000000000000
           H         -1.611791003275     1.253754532633    -0.876184020006     1.007825032070
           H         -0.671538089544    -0.095604732248    -1.482972453194     1.007825032070
           C         -0.421188016902     0.272613503678     0.620701665581    12.000000000000
           H         -0.095626897307    -0.745281200084     0.857760120270     1.007825032070
           H         -1.025498343287     0.604556790952     1.467631291596     1.007825032070
           C          0.791751784682     1.195395030814     0.504565161948    12.000000000000
           H          0.441862749492     2.221880932288     0.361602260257     1.007825032070
           H          1.335624329053     1.189531294605     1.452151442270     1.007825032070
           C          1.749924754798     0.841278013369    -0.634640433363    12.000000000000
           H          1.269019672267     1.043277905993    -1.594347288821     1.007825032070
           H          2.616050342991     1.507493763598    -0.581501930820     1.007825032070

  Running in c1 symmetry.

  Rotational constants: A =      0.13005  B =      0.02698  C =      0.02626 [cm^-1]
  Rotational constants: A =   3898.87690  B =    808.78392  C =    787.39220 [MHz]
  Nuclear repulsion =  399.933363867517983

  Charge       = 0
  Multiplicity = 1
  Electrons    = 66
  Nalpha       = 33
  Nbeta        = 33

  ==> Algorithm <==

  SCF Algorithm Type is DF.
  DIIS enabled.
  MOM disabled.
  Fractional occupation disabled.
  Guess Type is SAD.
  Energy threshold   = 1.00e-10
  Density threshold  = 1.00e-10
  Integral threshold = 0.00e+00

  ==> Primary Basis <==

  Basis Set: AUG-CC-PVTZ
    Number of shells: 274
    Number of basis function: 782
    Number of Cartesian functions: 890
    Spherical Harmonics?: true
    Max angular momentum: 3

  ==> Pre-Iterations <==

   -------------------------------------------------------
    Irrep   Nso     Nmo     Nalpha   Nbeta   Ndocc  Nsocc
   -------------------------------------------------------
     A        782     782       0       0       0       0
   -------------------------------------------------------
    Total     782     782      33      33      33       0
   -------------------------------------------------------

  ==> Integral Setup <==

  ==> DFJK: Density-Fitted J/K Matrices <==

    J tasked:                  Yes
    K tasked:                  Yes
    wK tasked:                  No
    OpenMP threads:             12
    Integrals threads:          12
    Memory (MB):             42915
    Algorithm:                Core
    Integral Cache:           NONE
    Schwarz Cutoff:          1E-12
    Fitting Condition:       1E-12

   => Auxiliary Basis Set <=

  Basis Set: 
    Number of shells: 492
    Number of basis function: 1660
    Number of Cartesian functions: 2038
    Spherical Harmonics?: true
    Max angular momentum: 4

  Minimum eigenvalue in the overlap matrix is 1.9825456242E-06.
  Using Symmetric Orthogonalization.
  SCF Guess: Superposition of Atomic Densities via on-the-fly atomic UHF.

  ==> Iterations <==

                           Total Energy        Delta E     RMS |[F,P]|

   @DF-RHF iter   0:  -317.01655268233731   -3.17017e+02   7.04419e-03 
   @DF-RHF iter   1:  -313.29182447295443    3.72473e+00   7.16298e-04 
   @DF-RHF iter   2:  -313.50498719605480   -2.13163e-01   2.73707e-04 DIIS
   @DF-RHF iter   3:  -313.53383532546877   -2.88481e-02   1.06461e-04 DIIS
   @DF-RHF iter   4:  -313.53945790766727   -5.62258e-03   1.58903e-05 DIIS
   @DF-RHF iter   5:  -313.53962791949243   -1.70012e-04   4.29873e-06 DIIS
   @DF-RHF iter   6:  -313.53963922662081   -1.13071e-05   1.21179e-06 DIIS
   @DF-RHF iter   7:  -313.53964003164674   -8.05026e-07   2.83353e-07 DIIS
   @DF-RHF iter   8:  -313.53964008313710   -5.14904e-08   6.93388e-08 DIIS
   @DF-RHF iter   9:  -313.53964008671164   -3.57454e-09   2.14283e-08 DIIS
   @DF-RHF iter  10:  -313.53964008699097   -2.79329e-10   7.05632e-09 DIIS
   @DF-RHF iter  11:  -313.53964008702303   -3.20597e-11   1.34555e-09 DIIS
   @DF-RHF iter  12:  -313.53964008702496   -1.93268e-12   3.81009e-10 DIIS
   @DF-RHF iter  13:  -313.53964008702417    7.95808e-13   1.14421e-10 DIIS
   @DF-RHF iter  14:  -313.53964008702405    1.13687e-13   2.86472e-11 DIIS

  ==> Post-Iterations <==

    Orbital Energies (a.u.)
    -----------------------

    Doubly Occupied:                                                      

       1A    -11.213076     2A    -11.212298     3A    -11.210170  
       4A    -11.209978     5A    -11.209485     6A    -11.208923  
       7A    -11.206842     8A    -11.206541     9A     -1.095972  
      10A     -1.059129    11A     -1.005273    12A     -0.943766  
      13A     -0.894078    14A     -0.835647    15A     -0.784940  
      16A     -0.744905    17A     -0.650316    18A     -0.628784  
      19A     -0.613295    20A     -0.600058    21A     -0.573939  
      22A     -0.556331    23A     -0.549906    24A     -0.530107  
      25A     -0.516901    26A     -0.497194    27A     -0.491809  
      28A     -0.471057    29A     -0.469298    30A     -0.462884  
      31A     -0.445341    32A     -0.437545    33A     -0.432225  

    Virtual:                                                              

      34A      0.029886    35A      0.033073    36A      0.033556  
      37A      0.034743    38A      0.047346    39A      0.048789  
      40A      0.048891    41A      0.053401    42A      0.055076  
      43A      0.067039    44A      0.069206    45A      0.070221  
      46A      0.072734    47A      0.078170    48A      0.082926  
      49A      0.093561    50A      0.095232    51A      0.099416  
      52A      0.112505    53A      0.115131    54A      0.123963  
      55A      0.125928    56A      0.127874    57A      0.129715  
      58A      0.132768    59A      0.135221    60A      0.136986  
      61A      0.145689    62A      0.150115    63A      0.152687  
      64A      0.153871    65A      0.154379    66A      0.161030  
      67A      0.164685    68A      0.170106    69A      0.171111  
      70A      0.176347    71A      0.177238    72A      0.180645  
      73A      0.183453    74A      0.189384    75A      0.190936  
      76A      0.198212    77A      0.212810    78A      0.217314  
      79A      0.221988    80A      0.231701    81A      0.236471  
      82A      0.248284    83A      0.253167    84A      0.257666  
      85A      0.274881    86A      0.284353    87A      0.286954  
      88A      0.290299    89A      0.291843    90A      0.294216  
      91A      0.299405    92A      0.300696    93A      0.306119  
      94A      0.315471    95A      0.321993    96A      0.323419  
      97A      0.328221    98A      0.330465    99A      0.334595  
     100A      0.336773   101A      0.341371   102A      0.343784  
     103A      0.344691   104A      0.351719   105A      0.354169  
     106A      0.356835   107A      0.360822   108A      0.364387  
     109A      0.368915   110A      0.370489   111A      0.371910  
     112A      0.373861   113A      0.377818   114A      0.380901  
     115A      0.387562   116A      0.393811   117A      0.396134  
     118A      0.403547   119A      0.405337   120A      0.413503  
     121A      0.419328   122A      0.423624   123A      0.430830  
     124A      0.433861   125A      0.438500   126A      0.441682  
     127A      0.443414   128A      0.447820   129A      0.454706  
     130A      0.456417   131A      0.457213   132A      0.464633  
     133A      0.467976   134A      0.469858   135A      0.475114  
     136A      0.478294   137A      0.479740   138A      0.480968  
     139A      0.486885   140A      0.487194   141A      0.491902  
     142A      0.494113   143A      0.499553   144A      0.505175  
     145A      0.508890   146A      0.511965   147A      0.516282  
     148A      0.522069   149A      0.522900   150A      0.528725  
     151A      0.533827   152A      0.537586   153A      0.543767  
     154A      0.548209   155A      0.550809   156A      0.554362  
     157A      0.556999   158A      0.561255   159A      0.572340  
     160A      0.574582   161A      0.580071   162A      0.581629  
     163A      0.588488   164A      0.589463   165A      0.598458  
     166A      0.602777   167A      0.606862   168A      0.608517  
     169A      0.617386   170A      0.619742   171A      0.622103  
     172A      0.626394   173A      0.636256   174A      0.640289  
     175A      0.643650   176A      0.648672   177A      0.653596  
     178A      0.657110   179A      0.663892   180A      0.669553  
     181A      0.671371   182A      0.675396   183A      0.683299  
     184A      0.683846   185A      0.689810   186A      0.692991  
     187A      0.704366   188A      0.712925   189A      0.719176  
     190A      0.721449   191A      0.731780   192A      0.733146  
     193A      0.736742   194A      0.747415   195A      0.748756  
     196A      0.756223   197A      0.766037   198A      0.776725  
     199A      0.781281   200A      0.787590   201A      0.798654  
     202A      0.805243   203A      0.820513   204A      0.825941  
     205A      0.833972   206A      0.837839   207A      0.843191  
     208A      0.853457   209A      0.855681   210A      0.862580  
     211A      0.866399   212A      0.869854   213A      0.880990  
     214A      0.885541   215A      0.888224   216A      0.898230  
     217A      0.905893   218A      0.909023   219A      0.913972  
     220A      0.916528   221A      0.918539   222A      0.921826  
     223A      0.930012   224A      0.931469   225A      0.940914  
     226A      0.943356   227A      0.946907   228A      0.958980  
     229A      0.960526   230A      0.962963   231A      0.966063  
     232A      0.971681   233A      0.978507   234A      0.983372  
     235A      0.986244   236A      0.995836   237A      1.003004  
     238A      1.007500   239A      1.010251   240A      1.015549  
     241A      1.019379   242A      1.021384   243A      1.026779  
     244A      1.033030   245A      1.041246   246A      1.041482  
     247A      1.048101   248A      1.054418   249A      1.056421  
     250A      1.061822   251A      1.066366   252A      1.070510  
     253A      1.074756   254A      1.084155   255A      1.087376  
     256A      1.093496   257A      1.100837   258A      1.106212  
     259A      1.111686   260A      1.119712   261A      1.122859  
     262A      1.128149   263A      1.130763   264A      1.139092  
     265A      1.149662   266A      1.152015   267A      1.158968  
     268A      1.161425   269A      1.171817   270A      1.177353  
     271A      1.182922   272A      1.187314   273A      1.191522  
     274A      1.198917   275A      1.202104   276A      1.210696  
     277A      1.215547   278A      1.218500   279A      1.221201  
     280A      1.223286   281A      1.227334   282A      1.233116  
     283A      1.240278   284A      1.248419   285A      1.250655  
     286A      1.256419   287A      1.259101   288A      1.265389  
     289A      1.276732   290A      1.282744   291A      1.284762  
     292A      1.286752   293A      1.296276   294A      1.303147  
     295A      1.305982   296A      1.309877   297A      1.319945  
     298A      1.323906   299A      1.327934   300A      1.333991  
     301A      1.337401   302A      1.350762   303A      1.362682  
     304A      1.374720   305A      1.375938   306A      1.381775  
     307A      1.387885   308A      1.393440   309A      1.408293  
     310A      1.410798   311A      1.422209   312A      1.425950  
     313A      1.431890   314A      1.440419   315A      1.452416  
     316A      1.455374   317A      1.460143   318A      1.462208  
     319A      1.471331   320A      1.481950   321A      1.485753  
     322A      1.494683   323A      1.498375   324A      1.505685  
     325A      1.514748   326A      1.527437   327A      1.530818  
     328A      1.544293   329A      1.548911   330A      1.554601  
     331A      1.560263   332A      1.565891   333A      1.568016  
     334A      1.586491   335A      1.592505   336A      1.598361  
     337A      1.605136   338A      1.611851   339A      1.614354  
     340A      1.620150   341A      1.628496   342A      1.634000  
     343A      1.638280   344A      1.641453   345A      1.657744  
     346A      1.665798   347A      1.667895   348A      1.683772  
     349A      1.684943   350A      1.689787   351A      1.693874  
     352A      1.697494   353A      1.700930   354A      1.714384  
     355A      1.720037   356A      1.720423   357A      1.729791  
     358A      1.735294   359A      1.747756   360A      1.751158  
     361A      1.757736   362A      1.762915   363A      1.769675  
     364A      1.778109   365A      1.785360   366A      1.788698  
     367A      1.792307   368A      1.798246   369A      1.807109  
     370A      1.815695   371A      1.823689   372A      1.829948  
     373A      1.835671   374A      1.839434   375A      1.847739  
     376A      1.859087   377A      1.864880   378A      1.869585  
     379A      1.874551   380A      1.881041   381A      1.886528  
     382A      1.891688   383A      1.895731   384A      1.898914  
     385A      1.903661   386A      1.907205   387A      1.915804  
     388A      1.929861   389A      1.931754   390A      1.937863  
     391A      1.941823   392A      1.949650   393A      1.963010  
     394A      1.968796   395A      1.974512   396A      1.981636  
     397A      1.989165   398A      2.001298   399A      2.007847  
     400A      2.011939   401A      2.018067   402A      2.024201  
     403A      2.030461   404A      2.041490   405A      2.045076  
     406A      2.050264   407A      2.055945   408A      2.060858  
     409A      2.070477   410A      2.076912   411A      2.086429  
     412A      2.095761   413A      2.099408   414A      2.103714  
     415A      2.114180   416A      2.121839   417A      2.124082  
     418A      2.132483   419A      2.137990   420A      2.146428  
     421A      2.156404   422A      2.157839   423A      2.170909  
     424A      2.181164   425A      2.193293   426A      2.198010  
     427A      2.202342   428A      2.209084   429A      2.225926  
     430A      2.233072   431A      2.240600   432A      2.254824  
     433A      2.267374   434A      2.275422   435A      2.286339  
     436A      2.290623   437A      2.305851   438A      2.312081  
     439A      2.315121   440A      2.329480   441A      2.331252  
     442A      2.340984   443A      2.346989   444A      2.350932  
     445A      2.361159   446A      2.374103   447A      2.382248  
     448A      2.393945   449A      2.401836   450A      2.412508  
     451A      2.423289   452A      2.427414   453A      2.432247  
     454A      2.445299   455A      2.454270   456A      2.465775  
     457A      2.474850   458A      2.487733   459A      2.493920  
     460A      2.499205   461A      2.514820   462A      2.517018  
     463A      2.539796   464A      2.545298   465A      2.557642  
     466A      2.574878   467A      2.584616   468A      2.594781  
     469A      2.601872   470A      2.614856   471A      2.643275  
     472A      2.653345   473A      2.661875   474A      2.674042  
     475A      2.681746   476A      2.688428   477A      2.708566  
     478A      2.729883   479A      2.745415   480A      2.767605  
     481A      2.782584   482A      2.791857   483A      2.829129  
     484A      2.881377   485A      2.909108   486A      2.962161  
     487A      2.976145   488A      3.012560   489A      3.076053  
     490A      3.125157   491A      3.208265   492A      3.260874  
     493A      3.273075   494A      3.306565   495A      3.315672  
     496A      3.410751   497A      3.422996   498A      3.437826  
     499A      3.460751   500A      3.467541   501A      3.482188  
     502A      3.490241   503A      3.504301   504A      3.519694  
     505A      3.545786   506A      3.556703   507A      3.563333  
     508A      3.566304   509A      3.596070   510A      3.601401  
     511A      3.614758   512A      3.617768   513A      3.626195  
     514A      3.641859   515A      3.648102   516A      3.668690  
     517A      3.675258   518A      3.682235   519A      3.695461  
     520A      3.707356   521A      3.710027   522A      3.723950  
     523A      3.734861   524A      3.748812   525A      3.749500  
     526A      3.758845   527A      3.764878   528A      3.777542  
     529A      3.786531   530A      3.791957   531A      3.804209  
     532A      3.810477   533A      3.818242   534A      3.830128  
     535A      3.834691   536A      3.846739   537A      3.852202  
     538A      3.864961   539A      3.871934   540A      3.875264  
     541A      3.882422   542A      3.900183   543A      3.902227  
     544A      3.913167   545A      3.913638   546A      3.929003  
     547A      3.942112   548A      3.959352   549A      3.966216  
     550A      3.974520   551A      3.981032   552A      3.981389  
     553A      3.993690   554A      4.001022   555A      4.003077  
     556A      4.013904   557A      4.019608   558A      4.021147  
     559A      4.025268   560A      4.040784   561A      4.042309  
     562A      4.052964   563A      4.055396   564A      4.057083  
     565A      4.063161   566A      4.079190   567A      4.083746  
     568A      4.091050   569A      4.095832   570A      4.103491  
     571A      4.111844   572A      4.115255   573A      4.125025  
     574A      4.129000   575A      4.140502   576A      4.145582  
     577A      4.164379   578A      4.172807   579A      4.176444  
     580A      4.180260   581A      4.185474   582A      4.194683  
     583A      4.210251   584A      4.223738   585A      4.236219  
     586A      4.240741   587A      4.246840   588A      4.256539  
     589A      4.265244   590A      4.280331   591A      4.280986  
     592A      4.293308   593A      4.308212   594A      4.312546  
     595A      4.317377   596A      4.327306   597A      4.340797  
     598A      4.345870   599A      4.359621   600A      4.370235  
     601A      4.385481   602A      4.397156   603A      4.407247  
     604A      4.410586   605A      4.421557   606A      4.435774  
     607A      4.455832   608A      4.462135   609A      4.472917  
     610A      4.494567   611A      4.501361   612A      4.521265  
     613A      4.531922   614A      4.542096   615A      4.549688  
     616A      4.562301   617A      4.586616   618A      4.600404  
     619A      4.618350   620A      4.633521   621A      4.642658  
     622A      4.647925   623A      4.660852   624A      4.678991  
     625A      4.688474   626A      4.704057   627A      4.711291  
     628A      4.718488   629A      4.722457   630A      4.737874  
     631A      4.742417   632A      4.750344   633A      4.763933  
     634A      4.769727   635A      4.787928   636A      4.800515  
     637A      4.809166   638A      4.816124   639A      4.829784  
     640A      4.835607   641A      4.847462   642A      4.855588  
     643A      4.872081   644A      4.885864   645A      4.899699  
     646A      4.903926   647A      4.919815   648A      4.920932  
     649A      4.932002   650A      4.945841   651A      4.959580  
     652A      4.966943   653A      4.986246   654A      4.992857  
     655A      5.001805   656A      5.015029   657A      5.026725  
     658A      5.043774   659A      5.064405   660A      5.079055  
     661A      5.083662   662A      5.102065   663A      5.118080  
     664A      5.122143   665A      5.145621   666A      5.148072  
     667A      5.157133   668A      5.174891   669A      5.192085  
     670A      5.204127   671A      5.207054   672A      5.224168  
     673A      5.235427   674A      5.251390   675A      5.260129  
     676A      5.270797   677A      5.276757   678A      5.278660  
     679A      5.293611   680A      5.313596   681A      5.319651  
     682A      5.326411   683A      5.346859   684A      5.355151  
     685A      5.358487   686A      5.368200   687A      5.382676  
     688A      5.396430   689A      5.403226   690A      5.417097  
     691A      5.431043   692A      5.440367   693A      5.443994  
     694A      5.453678   695A      5.459465   696A      5.465802  
     697A      5.476327   698A      5.493134   699A      5.508953  
     700A      5.519836   701A      5.531651   702A      5.550926  
     703A      5.565569   704A      5.570918   705A      5.583280  
     706A      5.604225   707A      5.618166   708A      5.628278  
     709A      5.639943   710A      5.647665   711A      5.650126  
     712A      5.663199   713A      5.676215   714A      5.685739  
     715A      5.698240   716A      5.701747   717A      5.720422  
     718A      5.736209   719A      5.742696   720A      5.745789  
     721A      5.763131   722A      5.777625   723A      5.799621  
     724A      5.811944   725A      5.834675   726A      5.845080  
     727A      5.852708   728A      5.873276   729A      5.891893  
     730A      5.911795   731A      5.928954   732A      5.956379  
     733A      5.963157   734A      5.983890   735A      6.017258  
     736A      6.038665   737A      6.051170   738A      6.067332  
     739A      6.079300   740A      6.121301   741A      6.144110  
     742A      6.151442   743A      6.165618   744A      6.193535  
     745A      6.220885   746A      6.235395   747A      6.249783  
     748A      6.281111   749A      6.294711   750A      6.307444  
     751A      6.328870   752A      6.332514   753A      6.343362  
     754A      6.358226   755A      6.374052   756A      6.392844  
     757A      6.410245   758A      6.429425   759A      6.582987  
     760A      6.622287   761A      6.671575   762A      6.689011  
     763A      6.734411   764A      6.798471   765A      6.802952  
     766A      6.861690   767A      6.908611   768A      6.920595  
     769A      6.973018   770A      7.008246   771A      7.039445  
     772A      7.096882   773A      7.117530   774A      7.163596  
     775A     17.961311   776A     18.057621   777A     18.303787  
     778A     18.459733   779A     18.637481   780A     18.814937  
     781A     19.388842   782A     19.821621  

    Final Occupation by Irrep:
              A 
    DOCC [    33 ]

  Energy converged.

  @DF-RHF Final Energy:  -313.53964008702405

   => Energetics <=

    Nuclear Repulsion Energy =            399.9333638675179827
    One-Electron Energy =               -1215.0099796177264579
    Two-Electron Energy =                 501.5369756631841938
    DFT Exchange-Correlation Energy =       0.0000000000000000
    Empirical Dispersion Energy =           0.0000000000000000
    PCM Polarization Energy =               0.0000000000000000
    EFP Energy =                            0.0000000000000000
    Total Energy =                       -313.5396400870242815


  Saving occupied orbitals to File 180.

*** tstop() called on wr38 at Wed Sep 21 10:42:02 2016
Module time:
	user time   =     978.80 seconds =      16.31 minutes
	system time =      14.45 seconds =       0.24 minutes
	total time  =         98 seconds =       1.63 minutes
Total time:
	user time   =     978.80 seconds =      16.31 minutes
	system time =      14.45 seconds =       0.24 minutes
	total time  =         98 seconds =       1.63 minutes


Properties will be evaluated at   0.000000,   0.000000,   0.000000 Bohr

Properties computed using the SCF density matrix

  Nuclear Dipole Moment: (a.u.)
     X:    -0.4151      Y:    -0.8951      Z:     0.9317

  Electronic Dipole Moment: (a.u.)
     X:     0.4174      Y:     0.8927      Z:    -0.9660

  Dipole Moment: (a.u.)
     X:     0.0024      Y:    -0.0024      Z:    -0.0342     Total:     0.0344

  Dipole Moment: (Debye)
     X:     0.0060      Y:    -0.0061      Z:    -0.0870     Total:     0.0874


  //>>>>>>>>>>>>>>>>>>>>>>>>>>>>>>>>>>>//
  //               DFMP2               //
  //<<<<<<<<<<<<<<<<<<<<<<<<<<<<<<<<<<<//


*** tstart() called on wr38
*** at Wed Sep 21 10:42:02 2016


*** tstop() called on wr38 at Wed Sep 21 10:42:02 2016
Module time:
	user time   =       2.96 seconds =       0.05 minutes
	system time =       0.17 seconds =       0.00 minutes
	total time  =          0 seconds =       0.00 minutes
Total time:
	user time   =     983.16 seconds =      16.39 minutes
	system time =      14.71 seconds =       0.25 minutes
	total time  =         98 seconds =       1.63 minutes
	 --------------------------------------------------------
	                          DF-MP2                         
	      2nd-Order Density-Fitted Moller-Plesset Theory     
	              RMP2 Wavefunction,  12 Threads             
	                                                         
	        Rob Parrish, Justin Turney, Andy Simmonett,      
	           Ed Hohenstein, and C. David Sherrill          
	 --------------------------------------------------------

   => Auxiliary Basis Set <=

  Basis Set: 
    Number of shells: 476
    Number of basis function: 1676
    Number of Cartesian functions: 2078
    Spherical Harmonics?: true
    Max angular momentum: 4

	 --------------------------------------------------------
	                 NBF =   782, NAUX =  1676
	 --------------------------------------------------------
	   CLASS    FOCC     OCC    AOCC    AVIR     VIR    FVIR
	   PAIRS       8      33      25     749     749       0
	 --------------------------------------------------------

DGAS Warning! /src/lib/libfock/apps.cc:80 is not currently checking restricted

         ------------------------------------------------------------
                                     CPHF                           
                                  Rob Parrish                       
         ------------------------------------------------------------

  ==> Geometry <==

    Molecular point group: c1
    Full point group: C1

    Geometry (in Angstrom), charge = 0, multiplicity = 1:

       Center              X                  Y                   Z               Mass       
    ------------   -----------------  -----------------  -----------------  -----------------
           C         -3.509634213733    -0.211675392040     0.521411140195    12.000000000000
           H         -3.092017168671    -0.236452671800     1.526979770073     1.007825032070
           H         -4.396637874123    -0.844758057842     0.518250413416     1.007825032070
           H         -3.828339703732     0.811849500845     0.316810319618     1.007825032070
           C          2.965039910140    -0.971820297567     0.677271142495    12.000000000000
           H          2.298737576579    -0.922544407615     1.538331461868     1.007825032070
           H          3.795275089803    -0.287418577296     0.860272981494     1.007825032070
           H          3.368778523134    -1.982893384644     0.629463538430     1.007825032070
           C         -2.498503919559    -0.676913484693    -0.521168929910    12.000000000000
           H         -2.991366173736    -0.737561538461    -1.494049029295     1.007825032070
           H         -2.162469976389    -1.689718629168    -0.281072923195     1.007825032070
           C          2.239800363820    -0.605591787052    -0.612954079260    12.000000000000
           H          2.910631134739    -0.760674734442    -1.460885328470     1.007825032070
           H          1.396558028781    -1.284189086506    -0.764357416964     1.007825032070
           C         -1.280006305010     0.236899685703    -0.638657365727    12.000000000000
           H         -1.611791003275     1.253754532633    -0.876184020006     1.007825032070
           H         -0.671538089544    -0.095604732248    -1.482972453194     1.007825032070
           C         -0.421188016902     0.272613503678     0.620701665581    12.000000000000
           H         -0.095626897307    -0.745281200084     0.857760120270     1.007825032070
           H         -1.025498343287     0.604556790952     1.467631291596     1.007825032070
           C          0.791751784682     1.195395030814     0.504565161948    12.000000000000
           H          0.441862749492     2.221880932288     0.361602260257     1.007825032070
           H          1.335624329053     1.189531294605     1.452151442270     1.007825032070
           C          1.749924754798     0.841278013369    -0.634640433363    12.000000000000
           H          1.269019672267     1.043277905993    -1.594347288821     1.007825032070
           H          2.616050342991     1.507493763598    -0.581501930820     1.007825032070

  Nuclear repulsion =  399.933363867517983
  Reference energy  = -313.539640087024054

  ==> Basis Set <==

  Basis Set: AUG-CC-PVTZ
    Number of shells: 274
    Number of basis function: 782
    Number of Cartesian functions: 890
    Spherical Harmonics?: true
    Max angular momentum: 3

  ==> CGRSolver (by Rob Parrish) <==

   Number of roots    =         1
   Preconditioning    =    JACOBI
   Convergence cutoff =     1E-06
   Maximum iterations =       100

  ==> CPHFRHamiltonian (by Rob Parrish) <== 

  ==> DFJK: Density-Fitted J/K Matrices <==

    J tasked:                  Yes
    K tasked:                  Yes
    wK tasked:                  No
    OpenMP threads:             12
    Integrals threads:          12
    Memory (MB):             42915
    Algorithm:                Core
    Integral Cache:           NONE
    Schwarz Cutoff:          1E-12
    Fitting Condition:       1E-12

   => Auxiliary Basis Set <=

  Basis Set: 
    Number of shells: 492
    Number of basis function: 1660
    Number of Cartesian functions: 2038
    Spherical Harmonics?: true
    Max angular momentum: 4

  ==> CPHF Iterations <==

  => Iterations <=

             Iter  Converged  Remaining    Residual
  CGR           1          0          1   9.311E-02
  CGR           2          0          1   1.318E-02
  CGR           3          0          1   3.724E-03
  CGR           4          0          1   8.985E-04
  CGR           5          0          1   2.135E-04
  CGR           6          0          1   4.739E-05
  CGR           7          0          1   1.384E-05
  CGR           8          0          1   3.165E-06
  CGR           9          1          0   8.454E-07

    CGRSolver converged.

  ==> DFCorrGrad: Density-Fitted Correlated Gradients <==

    OpenMP threads:             12
    Integrals threads:          12
    Memory (MB):             42915
    Schwarz Cutoff:          0E+00
    Fitting Condition:       1E-12

   => Auxiliary Basis Set <=

  Basis Set: 
    Number of shells: 492
    Number of basis function: 1660
    Number of Cartesian functions: 2038
    Spherical Harmonics?: true
    Max angular momentum: 4

	-----------------------------------------------------------
	 ==================> DF-MP2 Energies <==================== 
	-----------------------------------------------------------
	 Reference Energy          =    -313.5396400870240541 [Eh]
	 Singles Energy            =      -0.0000000000000000 [Eh]
	 Same-Spin Energy          =      -0.3172182215306839 [Eh]
	 Opposite-Spin Energy      =      -1.1264568434974673 [Eh]
	 Correlation Energy        =      -1.4436750650281511 [Eh]
	 Total Energy              =    -314.9833151520522279 [Eh]
	-----------------------------------------------------------
	 ================> DF-SCS-MP2 Energies <================== 
	-----------------------------------------------------------
	 SCS Same-Spin Scale       =       0.3333333333333333 [-]
	 SCS Opposite-Spin Scale   =       1.2000000000000000 [-]
	 SCS Same-Spin Energy      =      -0.1057394071768946 [Eh]
	 SCS Opposite-Spin Energy  =      -1.3517482121969608 [Eh]
	 SCS Correlation Energy    =      -1.4574876193738555 [Eh]
	 SCS Total Energy          =    -314.9971277063979187 [Eh]
	-----------------------------------------------------------


  -Total Gradient:
     Atom            X                  Y                   Z
    ------   -----------------  -----------------  -----------------
       1       -0.000000554480     0.000000185448     0.000000533185
       2       -0.000000234439    -0.000000029486    -0.000000685002
       3        0.000000447458     0.000000408162     0.000000123114
       4        0.000000312502    -0.000000794195     0.000000037924
       5        0.000000371724    -0.000000246087     0.000000295720
       6        0.000000197910    -0.000000122289    -0.000000344482
       7       -0.000000313941    -0.000000202694    -0.000000085388
       8       -0.000000084343     0.000000316225     0.000000032652
       9       -0.000000280326    -0.000000601321    -0.000000652195
      10        0.000000411538     0.000000051657     0.000000757948
      11       -0.000000202979     0.000000808894    -0.000000194233
      12       -0.000000294834    -0.000000356280    -0.000000506161
      13       -0.000000224206    -0.000000088775     0.000000314351
      14        0.000000596792     0.000000403950    -0.000000026056
      15        0.000000352421     0.000000099892    -0.000000437577
      16        0.000000600127    -0.000001120214     0.000000185284
      17       -0.000000454661     0.000000674370     0.000000918188
      18       -0.000000701477    -0.000001001702     0.000000308726
      19       -0.000000351632     0.000000894752    -0.000000233436
      20        0.000000575382     0.000000154579    -0.000000453293
      21       -0.000000274368     0.000000731155     0.000000416342
      22        0.000000219351    -0.000000445941     0.000000245348
      23       -0.000000491342     0.000000118362    -0.000000834571
      24        0.000000211183     0.000000530101    -0.000000454729
      25        0.000000600451    -0.000000077996     0.000000841636
      26       -0.000000433810    -0.000000290568    -0.000000103296


			-----------------------------------------
			 OPTKING 2.0: for geometry optimizations 
			  - R.A. King,  Bethel University        
			-----------------------------------------

	Internal coordinates to be generated automatically.
	Detected frag 1 with atoms:  1 2 3 4 5 6 7 8 9 10 11 12 13 14 15 16 17 18 19 20
	 21 22 23 24 25 26
	---Fragment 1 Bond Connectivity---
	 1 : 2 3 4 9
	 2 : 1
	 3 : 1
	 4 : 1
	 5 : 6 7 8 12
	 6 : 5
	 7 : 5
	 8 : 5
	 9 : 1 10 11 15
	 10 : 9
	 11 : 9
	 12 : 5 13 14 24
	 13 : 12
	 14 : 12
	 15 : 9 16 17 18
	 16 : 15
	 17 : 15
	 18 : 15 19 20 21
	 19 : 18
	 20 : 18
	 21 : 18 22 23 24
	 22 : 21
	 23 : 21
	 24 : 12 21 25 26
	 25 : 24
	 26 : 24

	---Fragment 1 Geometry and Gradient---
	 C          -6.6322474906       -0.4000085200        0.9853242576
	 H          -5.8430656470       -0.4468307931        2.8855735759
	 H          -8.3084414876       -1.5963613779        0.9793513496
	 H          -7.2345135837        1.5341732177        0.5986847401
	 C           5.6031134032       -1.8364742128        1.2798569770
	 H           4.3439844711       -1.7433562758        2.9070251645
	 H           7.1720305187       -0.5431423966        1.6256803345
	 H           6.3660688111       -3.7471254477        1.1895136983
	 C          -4.7214881499       -1.2791811017       -0.9848665465
	 H          -5.6528628315       -1.3937893138       -2.8233434945
	 H          -4.0864760260       -3.1931054508       -0.5311508482
	 C           4.2326092800       -1.1444026259       -1.1583153418
	 H           5.5002957185       -1.4374669243       -2.7606731824
	 H           2.6391122031       -2.4267656763       -1.4444261857
	 C          -2.4188613648        0.4476755269       -1.2068875140
	 H          -3.0458435796        2.3692527045       -1.6557478398
	 H          -1.2690230770       -0.1806667610       -2.8024117992
	 C          -0.7959300024        0.5151648621        1.1729561582
	 H          -0.1807086468       -1.4083773601        1.6209317150
	 H          -1.9379110185        1.1424467667        2.7734212052
	 C           1.4961940383        2.2589692289        0.9534899723
	 H           0.8349995849        4.1987464619        0.6833292409
	 H           2.5239641983        2.2478883733        2.7441685294
	 C           3.3068785397        1.5897850469       -1.1992966119
	 H           2.3980996378        1.9715095228       -3.0128797366
	 H           4.9436186981        2.8487503602       -1.0988793950
	            -0.0000005545        0.0000001854        0.0000005332
	            -0.0000002344       -0.0000000295       -0.0000006850
	             0.0000004475        0.0000004082        0.0000001231
	             0.0000003125       -0.0000007942        0.0000000379
	             0.0000003717       -0.0000002461        0.0000002957
	             0.0000001979       -0.0000001223       -0.0000003445
	            -0.0000003139       -0.0000002027       -0.0000000854
	            -0.0000000843        0.0000003162        0.0000000327
	            -0.0000002803       -0.0000006013       -0.0000006522
	             0.0000004115        0.0000000517        0.0000007579
	            -0.0000002030        0.0000008089       -0.0000001942
	            -0.0000002948       -0.0000003563       -0.0000005062
	            -0.0000002242       -0.0000000888        0.0000003144
	             0.0000005968        0.0000004039       -0.0000000261
	             0.0000003524        0.0000000999       -0.0000004376
	             0.0000006001       -0.0000011202        0.0000001853
	            -0.0000004547        0.0000006744        0.0000009182
	            -0.0000007015       -0.0000010017        0.0000003087
	            -0.0000003516        0.0000008948       -0.0000002334
	             0.0000005754        0.0000001546       -0.0000004533
	            -0.0000002744        0.0000007312        0.0000004163
	             0.0000002194       -0.0000004459        0.0000002453
	            -0.0000004913        0.0000001184       -0.0000008346
	             0.0000002112        0.0000005301       -0.0000004547
	             0.0000006005       -0.0000000780        0.0000008416
	            -0.0000004338       -0.0000002906       -0.0000001033

	Previous optimization step data not found.  Starting new optimization.

	---Fragment 1 Intrafragment Coordinates---
	 - Coordinate -           - BOHR/RAD -       - ANG/DEG -
	 R(1,2)           =         2.058142	       1.089122
	 R(1,3)           =         2.059350	       1.089761
	 R(1,4)           =         2.062347	       1.091347
	 R(1,9)           =         2.881943	       1.525059
	 R(5,6)           =         2.059552	       1.089868
	 R(5,7)           =         2.062475	       1.091415
	 R(5,8)           =         2.059333	       1.089752
	 R(5,12)          =         2.881307	       1.524722
	 R(9,10)          =         2.064120	       1.092285
	 R(9,11)          =         2.066931	       1.093773
	 R(9,15)          =         2.886766	       1.527611
	 R(12,13)         =         2.064090	       1.092269
	 R(12,14)         =         2.065320	       1.092920
	 R(12,24)         =         2.886943	       1.527704
	 R(15,16)         =         2.070517	       1.095670
	 R(15,17)         =         2.064616	       1.092548
	 R(15,18)         =         2.881339	       1.524739
	 R(18,19)         =         2.068621	       1.094667
	 R(18,20)         =         2.063757	       1.092093
	 R(18,21)         =         2.888400	       1.528475
	 R(21,22)         =         2.067100	       1.093862
	 R(21,23)         =         2.064695	       1.092589
	 R(21,24)         =         2.891518	       1.530125
	 R(24,25)         =         2.064141	       1.092296
	 R(24,26)         =         2.067364	       1.094002
	 B(1,9,10)        =         1.903579	     109.067023
	 B(1,9,11)        =         1.913577	     109.639905
	 B(1,9,15)        =         1.981158	     113.511965
	 B(2,1,3)         =         1.877128	     107.551519
	 B(2,1,4)         =         1.882212	     107.842776
	 B(2,1,9)         =         1.949826	     111.716828
	 B(3,1,4)         =         1.882411	     107.854178
	 B(3,1,9)         =         1.939545	     111.127726
	 B(4,1,9)         =         1.930032	     110.582673
	 B(5,12,13)       =         1.907818	     109.309936
	 B(5,12,14)       =         1.912485	     109.577339
	 B(5,12,24)       =         1.973623	     113.080267
	 B(6,5,7)         =         1.879932	     107.712181
	 B(6,5,8)         =         1.878750	     107.644462
	 B(6,5,12)        =         1.946466	     111.524276
	 B(7,5,8)         =         1.883184	     107.898479
	 B(7,5,12)        =         1.931673	     110.676694
	 B(8,5,12)        =         1.941158	     111.220136
	 B(9,15,16)       =         1.907418	     109.287017
	 B(9,15,17)       =         1.898228	     108.760473
	 B(9,15,18)       =         1.982060	     113.563700
	 B(10,9,11)       =         1.857433	     106.423082
	 B(10,9,15)       =         1.901415	     108.943052
	 B(11,9,15)       =         1.902591	     109.010448
	 B(12,24,21)      =         1.992610	     114.168133
	 B(12,24,25)      =         1.905825	     109.195715
	 B(12,24,26)      =         1.898839	     108.795466
	 B(13,12,14)      =         1.852672	     106.150280
	 B(13,12,24)      =         1.896935	     108.686386
	 B(14,12,24)      =         1.916306	     109.796273
	 B(15,18,19)      =         1.901387	     108.941438
	 B(15,18,20)      =         1.913436	     109.631822
	 B(15,18,21)      =         1.980527	     113.475830
	 B(16,15,17)      =         1.858301	     106.472792
	 B(16,15,18)      =         1.904854	     109.140085
	 B(17,15,18)      =         1.908930	     109.373618
	 B(18,21,22)      =         1.899311	     108.822515
	 B(18,21,23)      =         1.902743	     109.019121
	 B(18,21,24)      =         1.997401	     114.442653
	 B(19,18,20)      =         1.853822	     106.216150
	 B(19,18,21)      =         1.919659	     109.988379
	 B(20,18,21)      =         1.890767	     108.332993
	 B(21,24,25)      =         1.913087	     109.611811
	 B(21,24,26)      =         1.895124	     108.582625
	 B(22,21,23)      =         1.852102	     106.117634
	 B(22,21,24)      =         1.896707	     108.673313
	 B(23,21,24)      =         1.910017	     109.435926
	 B(25,24,26)      =         1.853155	     106.177975
	 D(1,9,15,16)     =        -1.000251	     -57.310182
	 D(1,9,15,17)     =        -3.022350	    -173.167884
	 D(1,9,15,18)     =         1.131030	      64.803228
	 D(2,1,9,10)      =         3.036738	     173.992286
	 D(2,1,9,11)      =         1.009269	      57.826858
	 D(2,1,9,15)      =        -1.123003	     -64.343307
	 D(3,1,9,10)      =         0.940144	      53.866309
	 D(3,1,9,11)      =        -1.087325	     -62.299120
	 D(3,1,9,15)      =         3.063589	     175.530716
	 D(4,1,9,10)      =        -1.149887	     -65.883690
	 D(4,1,9,11)      =         3.105829	     177.950881
	 D(4,1,9,15)      =         0.973557	      55.780717
	 D(5,12,24,21)    =        -1.023079	     -58.618082
	 D(5,12,24,25)    =         3.111986	     178.303636
	 D(5,12,24,26)    =         1.096548	      62.827589
	 D(6,5,12,13)     =        -3.045692	    -174.505314
	 D(6,5,12,14)     =        -1.022152	     -58.564982
	 D(6,5,12,24)     =         1.121793	      64.274026
	 D(7,5,12,13)     =         1.144937	      65.600039
	 D(7,5,12,14)     =        -3.114708	    -178.459628
	 D(7,5,12,24)     =        -0.970763	     -55.620621
	 D(8,5,12,13)     =        -0.948213	     -54.328584
	 D(8,5,12,14)     =         1.075328	      61.611748
	 D(8,5,12,24)     =        -3.063912	    -175.549244
	 D(9,15,18,19)    =         1.004098	      57.530573
	 D(9,15,18,20)    =        -1.017724	     -58.311267
	 D(9,15,18,21)    =        -3.134213	    -179.577172
	 D(10,9,15,16)    =         1.124400	      64.423362
	 D(10,9,15,17)    =        -0.897699	     -51.434339
	 D(10,9,15,18)    =        -3.027504	    -173.463228
	 D(11,9,15,16)    =        -3.138607	    -179.828932
	 D(11,9,15,17)    =         1.122480	      64.313367
	 D(11,9,15,18)    =        -1.007326	     -57.715522
	 D(12,24,21,18)   =        -0.943069	     -54.033868
	 D(12,24,21,22)   =        -3.069759	    -175.884246
	 D(12,24,21,23)   =         1.198140	      68.648357
	 D(13,12,24,21)   =         3.138268	     179.809501
	 D(13,12,24,25)   =         0.990147	      56.731218
	 D(13,12,24,26)   =        -1.025291	     -58.744829
	 D(14,12,24,21)   =         1.118743	      64.099275
	 D(14,12,24,25)   =        -1.029378	     -58.979008
	 D(14,12,24,26)   =        -3.044815	    -174.455054
	 D(15,18,21,22)   =         1.098889	      62.961728
	 D(15,18,21,23)   =         3.111663	     178.285155
	 D(15,18,21,24)   =        -1.026376	     -58.807004
	 D(16,15,18,19)   =         3.136801	     179.725442
	 D(16,15,18,20)   =         1.114979	      63.883602
	 D(16,15,18,21)   =        -1.001510	     -57.382304
	 D(17,15,18,19)   =        -1.119756	     -64.157289
	 D(17,15,18,20)   =        -3.141577	    -179.999129
	 D(17,15,18,21)   =         1.025119	      58.734966
	 D(18,21,24,25)   =         1.201108	      68.818430
	 D(18,21,24,26)   =        -3.064746	    -175.597008
	 D(19,18,21,22)   =        -3.049519	    -174.724546
	 D(19,18,21,23)   =        -1.036745	     -59.401119
	 D(19,18,21,24)   =         1.108401	      63.506721
	 D(20,18,21,22)   =        -1.030261	     -59.029611
	 D(20,18,21,23)   =         0.982512	      56.293815
	 D(20,18,21,24)   =         3.127659	     179.201656
	 D(22,21,24,25)   =        -0.925582	     -53.031949
	 D(22,21,24,26)   =         1.091749	      62.552614
	 D(23,21,24,25)   =        -2.940868	    -168.499345
	 D(23,21,24,26)   =        -0.923537	     -52.914783
	 R(5,18)          =         6.818313	       3.608096
	 R(12,15)         =         6.839527	       3.619322

	Current energy   :      -314.9833151521

	Generating empirical Hessian (Schlegel '84) for each fragment.
	Taking RFO optimization step.
	Going to follow RFO solution 1.
	Using RFO vector 1.
	Norm of target step-size    0.00012
	Projected energy change by RFO approximation:        -0.0000000004

	Back-transformation to cartesian coordinates...
	Successfully converged to displaced geometry.

	--- Internal Coordinate Step in ANG or DEG, aJ/ANG or AJ/DEG ---
	 ---------------------------------------------------------------------------
	   Coordinate                Previous        Force       Change         New 
	   ----------                --------       ------       ------       ------
	    1 R(1,2)          =      1.089122     0.000006     0.000001     1.089123
	    2 R(1,3)          =      1.089761     0.000005     0.000001     1.089762
	    3 R(1,4)          =      1.091347     0.000007     0.000001     1.091348
	    4 R(1,9)          =      1.525059     0.000000     0.000000     1.525059
	    5 R(5,6)          =      1.089868     0.000003     0.000001     1.089868
	    6 R(5,7)          =      1.091415     0.000003     0.000001     1.091415
	    7 R(5,8)          =      1.089752     0.000003     0.000000     1.089752
	    8 R(5,12)         =      1.524722     0.000001    -0.000000     1.524722
	    9 R(9,10)         =      1.092285     0.000007     0.000001     1.092287
	   10 R(9,11)         =      1.093773     0.000007     0.000001     1.093774
	   11 R(9,15)         =      1.527611    -0.000000    -0.000000     1.527611
	   12 R(12,13)        =      1.092269     0.000003     0.000001     1.092270
	   13 R(12,14)        =      1.092920     0.000006     0.000001     1.092921
	   14 R(12,24)        =      1.527704    -0.000001    -0.000001     1.527703
	   15 R(15,16)        =      1.095670     0.000010     0.000002     1.095672
	   16 R(15,17)        =      1.092548     0.000010     0.000002     1.092550
	   17 R(15,18)        =      1.524739     0.000007     0.000001     1.524740
	   18 R(18,19)        =      1.094667     0.000008     0.000002     1.094669
	   19 R(18,20)        =      1.092093     0.000005     0.000001     1.092094
	   20 R(18,21)        =      1.528475     0.000000    -0.000001     1.528475
	   21 R(21,22)        =      1.093862     0.000004     0.000001     1.093863
	   22 R(21,23)        =      1.092589     0.000008     0.000001     1.092591
	   23 R(21,24)        =      1.530125    -0.000002    -0.000001     1.530124
	   24 R(24,25)        =      1.092296     0.000008     0.000002     1.092298
	   25 R(24,26)        =      1.094002     0.000004     0.000001     1.094003
	   26 B(1,9,10)       =    109.067023    -0.000000    -0.000048   109.066975
	   27 B(1,9,11)       =    109.639905    -0.000000     0.000019   109.639925
	   28 B(1,9,15)       =    113.511965     0.000000     0.000014   113.511978
	   29 B(2,1,3)        =    107.551519     0.000000     0.000008   107.551527
	   30 B(2,1,4)        =    107.842776    -0.000000    -0.000012   107.842764
	   31 B(2,1,9)        =    111.716828     0.000000     0.000037   111.716865
	   32 B(3,1,4)        =    107.854178     0.000000    -0.000008   107.854170
	   33 B(3,1,9)        =    111.127726    -0.000000    -0.000115   111.127610
	   34 B(4,1,9)        =    110.582673     0.000000     0.000090   110.582763
	   35 B(5,12,13)      =    109.309936     0.000000     0.000121   109.310057
	   36 B(5,12,14)      =    109.577339     0.000000    -0.000031   109.577308
	   37 B(5,12,24)      =    113.080267    -0.000000    -0.000167   113.080100
	   38 B(6,5,7)        =    107.712181    -0.000000    -0.000030   107.712151
	   39 B(6,5,8)        =    107.644462     0.000000     0.000022   107.644484
	   40 B(6,5,12)       =    111.524276     0.000000     0.000013   111.524289
	   41 B(7,5,8)        =    107.898479    -0.000000    -0.000003   107.898475
	   42 B(7,5,12)       =    110.676694     0.000000     0.000014   110.676708
	   43 B(8,5,12)       =    111.220136    -0.000000    -0.000016   111.220120
	   44 B(9,15,16)      =    109.287017    -0.000000    -0.000048   109.286969
	   45 B(9,15,17)      =    108.760473    -0.000000    -0.000162   108.760311
	   46 B(9,15,18)      =    113.563700    -0.000000    -0.000067   113.563633
	   47 B(10,9,11)      =    106.423082    -0.000000    -0.000013   106.423069
	   48 B(10,9,15)      =    108.943052    -0.000000    -0.000029   108.943024
	   49 B(11,9,15)      =    109.010448     0.000000     0.000053   109.010502
	   50 B(12,24,21)     =    114.168133    -0.000000    -0.000389   114.167745
	   51 B(12,24,25)     =    109.195715     0.000000     0.000094   109.195809
	   52 B(12,24,26)     =    108.795466    -0.000000     0.000066   108.795532
	   53 B(13,12,14)     =    106.150280     0.000000     0.000103   106.150383
	   54 B(13,12,24)     =    108.686386    -0.000000     0.000031   108.686417
	   55 B(14,12,24)     =    109.796273     0.000000    -0.000038   109.796235
	   56 B(15,18,19)     =    108.941438     0.000000    -0.000033   108.941405
	   57 B(15,18,20)     =    109.631822    -0.000000     0.000001   109.631823
	   58 B(15,18,21)     =    113.475830    -0.000000    -0.000106   113.475724
	   59 B(16,15,17)     =    106.472792     0.000000     0.000139   106.472931
	   60 B(16,15,18)     =    109.140085     0.000000     0.000090   109.140175
	   61 B(17,15,18)     =    109.373618     0.000000     0.000061   109.373679
	   62 B(18,21,22)     =    108.822515    -0.000000     0.000017   108.822532
	   63 B(18,21,23)     =    109.019121     0.000000     0.000114   109.019235
	   64 B(18,21,24)     =    114.442653    -0.000000    -0.000393   114.442259
	   65 B(19,18,20)     =    106.216150    -0.000000    -0.000053   106.216097
	   66 B(19,18,21)     =    109.988379    -0.000000    -0.000088   109.988291
	   67 B(20,18,21)     =    108.332993     0.000000     0.000283   108.333277
	   68 B(21,24,25)     =    109.611811    -0.000000     0.000046   109.611857
	   69 B(21,24,26)     =    108.582625     0.000000     0.000062   108.582687
	   70 B(22,21,23)     =    106.117634     0.000000     0.000164   106.117799
	   71 B(22,21,24)     =    108.673313     0.000000     0.000022   108.673334
	   72 B(23,21,24)     =    109.435926     0.000000     0.000116   109.436042
	   73 B(25,24,26)     =    106.177975     0.000000     0.000159   106.178134
	   74 D(1,9,15,16)    =    -57.310182     0.000000     0.000762   -57.309420
	   75 D(1,9,15,17)    =   -173.167884     0.000000     0.000713  -173.167171
	   76 D(1,9,15,18)    =     64.803228     0.000000     0.000797    64.804025
	   77 D(2,1,9,10)     =    173.992286    -0.000000    -0.000259   173.992027
	   78 D(2,1,9,11)     =     57.826858    -0.000000    -0.000228    57.826630
	   79 D(2,1,9,15)     =    -64.343307    -0.000000    -0.000321   -64.343628
	   80 D(3,1,9,10)     =     53.866309    -0.000000    -0.000215    53.866093
	   81 D(3,1,9,11)     =    -62.299120     0.000000    -0.000184   -62.299304
	   82 D(3,1,9,15)     =    175.530716    -0.000000    -0.000277   175.530439
	   83 D(4,1,9,10)     =    -65.883690     0.000000    -0.000189   -65.883879
	   84 D(4,1,9,11)     =    177.950881     0.000000    -0.000157   177.950724
	   85 D(4,1,9,15)     =     55.780717    -0.000000    -0.000251    55.780466
	   86 D(5,12,24,21)   =    -58.618082    -0.000000     0.000456   -58.617626
	   87 D(5,12,24,25)   =    178.303636    -0.000000     0.000599   178.304235
	   88 D(5,12,24,26)   =     62.827589    -0.000000     0.000322    62.827911
	   89 D(6,5,12,13)    =   -174.505314    -0.000000    -0.001179  -174.506493
	   90 D(6,5,12,14)    =    -58.564982     0.000000    -0.001004   -58.565986
	   91 D(6,5,12,24)    =     64.274026    -0.000000    -0.001193    64.272833
	   92 D(7,5,12,13)    =     65.600039    -0.000000    -0.001158    65.598881
	   93 D(7,5,12,14)    =   -178.459628     0.000000    -0.000984  -178.460612
	   94 D(7,5,12,24)    =    -55.620621    -0.000000    -0.001172   -55.621793
	   95 D(8,5,12,13)    =    -54.328584    -0.000000    -0.001153   -54.329737
	   96 D(8,5,12,14)    =     61.611748     0.000000    -0.000978    61.610770
	   97 D(8,5,12,24)    =   -175.549244    -0.000000    -0.001167  -175.550411
	   98 D(9,15,18,19)   =     57.530573    -0.000000    -0.000038    57.530535
	   99 D(9,15,18,20)   =    -58.311267     0.000000     0.000043   -58.311223
	  100 D(9,15,18,21)   =   -179.577172    -0.000000    -0.000249  -179.577422
	  101 D(10,9,15,16)   =     64.423362    -0.000000     0.000690    64.424053
	  102 D(10,9,15,17)   =    -51.434339     0.000000     0.000640   -51.433699
	  103 D(10,9,15,18)   =   -173.463228     0.000000     0.000725  -173.462503
	  104 D(11,9,15,16)   =   -179.828932    -0.000000     0.000688  -179.828243
	  105 D(11,9,15,17)   =     64.313367     0.000000     0.000639    64.314005
	  106 D(11,9,15,18)   =    -57.715522     0.000000     0.000723   -57.714798
	  107 D(12,24,21,18)  =    -54.033868    -0.000000    -0.001706   -54.035574
	  108 D(12,24,21,22)  =   -175.884246    -0.000000    -0.001477  -175.885723
	  109 D(12,24,21,23)  =     68.648357    -0.000000    -0.001748    68.646609
	  110 D(13,12,24,21)  =    179.809501    -0.000000     0.000390   179.809891
	  111 D(13,12,24,25)  =     56.731218     0.000000     0.000533    56.731751
	  112 D(13,12,24,26)  =    -58.744829    -0.000000     0.000256   -58.744572
	  113 D(14,12,24,21)  =     64.099275    -0.000000     0.000271    64.099546
	  114 D(14,12,24,25)  =    -58.979008    -0.000000     0.000414   -58.978594
	  115 D(14,12,24,26)  =   -174.455054    -0.000000     0.000137  -174.454917
	  116 D(15,18,21,22)  =     62.961728    -0.000000    -0.000346    62.961382
	  117 D(15,18,21,23)  =    178.285155    -0.000000    -0.000080   178.285075
	  118 D(15,18,21,24)  =    -58.807004    -0.000000    -0.000119   -58.807123
	  119 D(16,15,18,19)  =    179.725442    -0.000000    -0.000080   179.725362
	  120 D(16,15,18,20)  =     63.883602     0.000000     0.000002    63.883604
	  121 D(16,15,18,21)  =    -57.382304    -0.000000    -0.000291   -57.382595
	  122 D(17,15,18,19)  =    -64.157289     0.000000     0.000171   -64.157117
	  123 D(17,15,18,20)  =   -179.999129     0.000000     0.000253  -179.998876
	  124 D(17,15,18,21)  =     58.734966     0.000000    -0.000040    58.734926
	  125 D(18,21,24,25)  =     68.818430    -0.000000    -0.001825    68.816604
	  126 D(18,21,24,26)  =   -175.597008    -0.000000    -0.001576  -175.598583
	  127 D(19,18,21,22)  =   -174.724546    -0.000000    -0.000530  -174.725076
	  128 D(19,18,21,23)  =    -59.401119    -0.000000    -0.000264   -59.401383
	  129 D(19,18,21,24)  =     63.506721    -0.000000    -0.000302    63.506419
	  130 D(20,18,21,22)  =    -59.029611    -0.000000    -0.000481   -59.030092
	  131 D(20,18,21,23)  =     56.293815     0.000000    -0.000215    56.293600
	  132 D(20,18,21,24)  =    179.201656     0.000000    -0.000254   179.201402
	  133 D(22,21,24,25)  =    -53.031949    -0.000000    -0.001596   -53.033545
	  134 D(22,21,24,26)  =     62.552614     0.000000    -0.001346    62.551268
	  135 D(23,21,24,25)  =   -168.499345    -0.000000    -0.001867  -168.501212
	  136 D(23,21,24,26)  =    -52.914783    -0.000000    -0.001617   -52.916400
	  137 R(5,18)         =      3.608096    -0.000003     0.000003     3.608098
	  138 R(12,15)        =      3.619322    -0.000001     0.000014     3.619336
	 ---------------------------------------------------------------------------

  ==> Convergence Check <==

  Measures of convergence in internal coordinates in au.
  Criteria marked as inactive (o), active & met (*), and active & unmet ( ).
  --------------------------------------------------------------------------------------------- ~
   Step     Total Energy     Delta E     MAX Force     RMS Force      MAX Disp      RMS Disp    ~
  --------------------------------------------------------------------------------------------- ~
    Convergence Criteria             o    2.00e-06 *    1.00e-06 *    6.00e-06 *    4.00e-06 *  ~
  --------------------------------------------------------------------------------------------- ~
      1    -314.98331515   -3.15e+02 o    1.26e-06 *    3.15e-07 *    3.26e-05      1.01e-05    ~
  ---------------------------------------------------------------------------------------------

	Writing optimization data to binary file.
	Structure for next step:
	Cartesian Geometry (in Angstrom)
	    C    -3.5096418699  -0.2116712500   0.5214056471
	    H    -3.0920290243  -0.2364600656   1.5269769104
	    H    -4.3966473576  -0.8447528939   0.5182339326
	    H    -3.8283451965   0.8118575907   0.3168144229
	    C     2.9650566409  -0.9718006471   0.6772784137
	    H     2.2987640868  -0.9224995333   1.5383456212
	    H     3.7952985728  -0.2873993782   0.8602548012
	    H     3.3687886501  -1.9828778268   0.6294904220
	    C    -2.4985091786  -0.6769023927  -0.5211752252
	    H    -2.9913703902  -0.7375430052  -1.4940578131
	    H    -2.1624761644  -1.6897108673  -0.2810859635
	    C     2.2398050801  -0.6055988938  -0.6129474707
	    H     2.9106309304  -0.7606862176  -1.4608825403
	    H     1.3965666723  -1.2842066173  -0.7643337043
	    C    -1.2800114066   0.2369115466  -0.6386553418
	    H    -1.6117979814   1.2537722760  -0.8761632096
	    H    -0.6715490544  -0.0955825041  -1.4829810552
	    C    -0.4211856953   0.2726013957   0.6207006192
	    H    -0.0956251822  -0.7452997917   0.8577391328
	    H    -1.0254917084   0.6045297836   1.4676403929
	    C     0.7917568284   1.1953788992   0.5045695621
	    H     0.4418714343   2.2218684303   0.3616176834
	    H     1.3356370659   1.1895014257   1.4521530653
	    C     1.7499152069   0.8412648265  -0.6346476039
	    H     1.2689908699   1.0432473171  -1.5943502390
	    H     2.6160347456   1.5074913660  -0.5815289496
			--------------------------
			 OPTKING Finished Execution 
			--------------------------

    Structure for next step:
    Molecular point group: c1
    Full point group: C1

    Geometry (in Angstrom), charge = 0, multiplicity = 1:

    C           -3.509641990038    -0.211671077852     0.521405618341
    H           -3.092029144515    -0.236459893431     1.526976881616
    H           -4.396647477730    -0.844752721715     0.518233903805
    H           -3.828345316681     0.811857762821     0.316814394193
    C            2.965056520741    -0.971800474919     0.677278384971
    H            2.298763966619    -0.922499361089     1.538345592453
    H            3.795298452651    -0.287399206027     0.860254772446
    H            3.368788529950    -1.982877654598     0.629490393276
    C           -2.498509298742    -0.676902220558    -0.521175253979
    H           -2.991370510325    -0.737542833015    -1.494057841840
    H           -2.162476284569    -1.689710695099    -0.281085992236
    C            2.239804959954    -0.605598721604    -0.612947499457
    H            2.910630810263    -0.760686045404    -1.460882569082
    H            1.396566552165    -1.284206445113    -0.764333733085
    C           -1.280011526782     0.236911718805    -0.638655370546
    H           -1.611798101527     1.253772448215    -0.876163238303
    H           -0.671549174581    -0.095582331902    -1.482981083960
    C           -0.421185815434     0.272601567913     0.620700590471
    H           -0.095625302332    -0.745299619494     0.857739104008
    H           -1.025491828562     0.604529955732     1.467640364123
    C            0.791756708238     1.195379071340     0.504569533335
    H            0.441871314177     2.221868602445     0.361617654669
    H            1.335636945682     1.189501597868     1.452153036565
    C            1.749915086765     0.841264998670    -0.634647632643
    H            1.268990749753     1.043247489252    -1.594350267775
    H            2.616034625419     1.507491538135    -0.581528978392

gradient() will perform analytic gradient computation.

*** tstart() called on wr38
*** at Wed Sep 21 10:46:44 2016


         ---------------------------------------------------------
                                   SCF
            by Justin Turney, Rob Parrish, and Andy Simmonett
                              RHF Reference
                       12 Threads,  60000 MiB Core
         ---------------------------------------------------------

  ==> Geometry <==

    Molecular point group: c1
    Full point group: C1

    Geometry (in Angstrom), charge = 0, multiplicity = 1:

       Center              X                  Y                   Z               Mass       
    ------------   -----------------  -----------------  -----------------  -----------------
           C         -3.509641990038    -0.211671077852     0.521405618341    12.000000000000
           H         -3.092029144515    -0.236459893431     1.526976881616     1.007825032070
           H         -4.396647477730    -0.844752721715     0.518233903805     1.007825032070
           H         -3.828345316681     0.811857762821     0.316814394193     1.007825032070
           C          2.965056520741    -0.971800474919     0.677278384971    12.000000000000
           H          2.298763966619    -0.922499361089     1.538345592453     1.007825032070
           H          3.795298452651    -0.287399206027     0.860254772446     1.007825032070
           H          3.368788529950    -1.982877654598     0.629490393276     1.007825032070
           C         -2.498509298742    -0.676902220558    -0.521175253979    12.000000000000
           H         -2.991370510325    -0.737542833015    -1.494057841840     1.007825032070
           H         -2.162476284569    -1.689710695099    -0.281085992236     1.007825032070
           C          2.239804959954    -0.605598721604    -0.612947499457    12.000000000000
           H          2.910630810263    -0.760686045404    -1.460882569082     1.007825032070
           H          1.396566552165    -1.284206445113    -0.764333733085     1.007825032070
           C         -1.280011526782     0.236911718805    -0.638655370546    12.000000000000
           H         -1.611798101527     1.253772448215    -0.876163238303     1.007825032070
           H         -0.671549174581    -0.095582331902    -1.482981083960     1.007825032070
           C         -0.421185815434     0.272601567913     0.620700590471    12.000000000000
           H         -0.095625302332    -0.745299619494     0.857739104008     1.007825032070
           H         -1.025491828562     0.604529955732     1.467640364123     1.007825032070
           C          0.791756708238     1.195379071340     0.504569533335    12.000000000000
           H          0.441871314177     2.221868602445     0.361617654669     1.007825032070
           H          1.335636945682     1.189501597868     1.452153036565     1.007825032070
           C          1.749915086765     0.841264998670    -0.634647632643    12.000000000000
           H          1.268990749753     1.043247489252    -1.594350267775     1.007825032070
           H          2.616034625419     1.507491538135    -0.581528978392     1.007825032070

  Running in c1 symmetry.

  Rotational constants: A =      0.13005  B =      0.02698  C =      0.02626 [cm^-1]
  Rotational constants: A =   3898.91894  B =    808.78006  C =    787.39075 [MHz]
  Nuclear repulsion =  399.933349474388194

  Charge       = 0
  Multiplicity = 1
  Electrons    = 66
  Nalpha       = 33
  Nbeta        = 33

  ==> Algorithm <==

  SCF Algorithm Type is DF.
  DIIS enabled.
  MOM disabled.
  Fractional occupation disabled.
  Guess Type is READ.
  Energy threshold   = 1.00e-10
  Density threshold  = 1.00e-10
  Integral threshold = 0.00e+00

  ==> Primary Basis <==

  Basis Set: AUG-CC-PVTZ
    Number of shells: 274
    Number of basis function: 782
    Number of Cartesian functions: 890
    Spherical Harmonics?: true
    Max angular momentum: 3

  ==> Pre-Iterations <==

   -------------------------------------------------------
    Irrep   Nso     Nmo     Nalpha   Nbeta   Ndocc  Nsocc
   -------------------------------------------------------
     A        782     782       0       0       0       0
   -------------------------------------------------------
    Total     782     782      33      33      33       0
   -------------------------------------------------------

  ==> Integral Setup <==

  ==> DFJK: Density-Fitted J/K Matrices <==

    J tasked:                  Yes
    K tasked:                  Yes
    wK tasked:                  No
    OpenMP threads:             12
    Integrals threads:          12
    Memory (MB):             42915
    Algorithm:                Core
    Integral Cache:           NONE
    Schwarz Cutoff:          1E-12
    Fitting Condition:       1E-12

   => Auxiliary Basis Set <=

  Basis Set: 
    Number of shells: 492
    Number of basis function: 1660
    Number of Cartesian functions: 2038
    Spherical Harmonics?: true
    Max angular momentum: 4

  Minimum eigenvalue in the overlap matrix is 1.9826056340E-06.
  Using Symmetric Orthogonalization.
  SCF Guess: Reading in previously saved MOs, projecting if necessary.

  Using orbitals from previous SCF, no projection.
  Recomputing DOCC and SOCC from number of alpha and beta electrons from previous calculation.
              A 
    DOCC [    33 ]

  ==> Iterations <==

                           Total Energy        Delta E     RMS |[F,P]|

   @DF-RHF iter   0:  -313.53962067017079   -3.13540e+02   6.97632e-08 
   @DF-RHF iter   1:  -313.53963971525496   -1.90451e-05   1.36755e-08 
   @DF-RHF iter   2:  -313.53963971536831   -1.13346e-10   5.04646e-09 DIIS
   @DF-RHF iter   3:  -313.53963971538332   -1.50067e-11   2.18967e-09 DIIS
   @DF-RHF iter   4:  -313.53963971538593   -2.61480e-12   2.76481e-10 DIIS
   @DF-RHF iter   5:  -313.53963971538604   -1.13687e-13   7.20424e-11 DIIS

  ==> Post-Iterations <==

    Orbital Energies (a.u.)
    -----------------------

    Doubly Occupied:                                                      

       1A    -11.213076     2A    -11.212298     3A    -11.210171  
       4A    -11.209978     5A    -11.209485     6A    -11.208923  
       7A    -11.206842     8A    -11.206542     9A     -1.095972  
      10A     -1.059129    11A     -1.005273    12A     -0.943766  
      13A     -0.894078    14A     -0.835647    15A     -0.784940  
      16A     -0.744904    17A     -0.650316    18A     -0.628785  
      19A     -0.613294    20A     -0.600058    21A     -0.573939  
      22A     -0.556331    23A     -0.549907    24A     -0.530106  
      25A     -0.516901    26A     -0.497194    27A     -0.491808  
      28A     -0.471057    29A     -0.469297    30A     -0.462884  
      31A     -0.445341    32A     -0.437545    33A     -0.432225  

    Virtual:                                                              

      34A      0.029886    35A      0.033073    36A      0.033556  
      37A      0.034743    38A      0.047346    39A      0.048789  
      40A      0.048891    41A      0.053401    42A      0.055076  
      43A      0.067039    44A      0.069206    45A      0.070221  
      46A      0.072734    47A      0.078170    48A      0.082927  
      49A      0.093561    50A      0.095232    51A      0.099416  
      52A      0.112505    53A      0.115131    54A      0.123963  
      55A      0.125928    56A      0.127875    57A      0.129714  
      58A      0.132768    59A      0.135221    60A      0.136986  
      61A      0.145689    62A      0.150115    63A      0.152687  
      64A      0.153871    65A      0.154379    66A      0.161030  
      67A      0.164685    68A      0.170106    69A      0.171111  
      70A      0.176347    71A      0.177238    72A      0.180645  
      73A      0.183453    74A      0.189384    75A      0.190937  
      76A      0.198213    77A      0.212810    78A      0.217314  
      79A      0.221988    80A      0.231701    81A      0.236471  
      82A      0.248284    83A      0.253167    84A      0.257666  
      85A      0.274881    86A      0.284353    87A      0.286954  
      88A      0.290299    89A      0.291843    90A      0.294216  
      91A      0.299404    92A      0.300696    93A      0.306119  
      94A      0.315471    95A      0.321993    96A      0.323419  
      97A      0.328221    98A      0.330464    99A      0.334595  
     100A      0.336772   101A      0.341371   102A      0.343785  
     103A      0.344692   104A      0.351720   105A      0.354169  
     106A      0.356836   107A      0.360823   108A      0.364388  
     109A      0.368915   110A      0.370489   111A      0.371910  
     112A      0.373861   113A      0.377818   114A      0.380900  
     115A      0.387562   116A      0.393811   117A      0.396134  
     118A      0.403547   119A      0.405338   120A      0.413503  
     121A      0.419328   122A      0.423624   123A      0.430830  
     124A      0.433861   125A      0.438501   126A      0.441682  
     127A      0.443414   128A      0.447820   129A      0.454706  
     130A      0.456417   131A      0.457214   132A      0.464633  
     133A      0.467976   134A      0.469858   135A      0.475114  
     136A      0.478294   137A      0.479741   138A      0.480967  
     139A      0.486885   140A      0.487194   141A      0.491902  
     142A      0.494113   143A      0.499554   144A      0.505175  
     145A      0.508890   146A      0.511965   147A      0.516281  
     148A      0.522069   149A      0.522900   150A      0.528725  
     151A      0.533827   152A      0.537586   153A      0.543767  
     154A      0.548208   155A      0.550810   156A      0.554362  
     157A      0.556999   158A      0.561255   159A      0.572339  
     160A      0.574583   161A      0.580070   162A      0.581628  
     163A      0.588489   164A      0.589462   165A      0.598458  
     166A      0.602778   167A      0.606862   168A      0.608517  
     169A      0.617386   170A      0.619742   171A      0.622103  
     172A      0.626395   173A      0.636257   174A      0.640290  
     175A      0.643650   176A      0.648672   177A      0.653596  
     178A      0.657110   179A      0.663892   180A      0.669554  
     181A      0.671370   182A      0.675397   183A      0.683298  
     184A      0.683846   185A      0.689811   186A      0.692992  
     187A      0.704368   188A      0.712924   189A      0.719176  
     190A      0.721449   191A      0.731780   192A      0.733147  
     193A      0.736742   194A      0.747413   195A      0.748757  
     196A      0.756222   197A      0.766037   198A      0.776725  
     199A      0.781279   200A      0.787588   201A      0.798655  
     202A      0.805243   203A      0.820513   204A      0.825943  
     205A      0.833972   206A      0.837840   207A      0.843191  
     208A      0.853457   209A      0.855681   210A      0.862580  
     211A      0.866399   212A      0.869854   213A      0.880988  
     214A      0.885540   215A      0.888224   216A      0.898229  
     217A      0.905893   218A      0.909023   219A      0.913972  
     220A      0.916528   221A      0.918539   222A      0.921825  
     223A      0.930012   224A      0.931468   225A      0.940916  
     226A      0.943356   227A      0.946906   228A      0.958979  
     229A      0.960526   230A      0.962963   231A      0.966064  
     232A      0.971682   233A      0.978508   234A      0.983372  
     235A      0.986243   236A      0.995834   237A      1.003004  
     238A      1.007501   239A      1.010251   240A      1.015549  
     241A      1.019379   242A      1.021384   243A      1.026778  
     244A      1.033028   245A      1.041247   246A      1.041480  
     247A      1.048099   248A      1.054417   249A      1.056422  
     250A      1.061821   251A      1.066368   252A      1.070509  
     253A      1.074755   254A      1.084157   255A      1.087375  
     256A      1.093496   257A      1.100838   258A      1.106212  
     259A      1.111686   260A      1.119710   261A      1.122859  
     262A      1.128147   263A      1.130764   264A      1.139092  
     265A      1.149661   266A      1.152013   267A      1.158966  
     268A      1.161423   269A      1.171817   270A      1.177352  
     271A      1.182924   272A      1.187316   273A      1.191521  
     274A      1.198916   275A      1.202106   276A      1.210695  
     277A      1.215547   278A      1.218500   279A      1.221200  
     280A      1.223286   281A      1.227331   282A      1.233118  
     283A      1.240278   284A      1.248421   285A      1.250655  
     286A      1.256417   287A      1.259102   288A      1.265389  
     289A      1.276732   290A      1.282744   291A      1.284762  
[...]
	    6 R(5,7)          =      1.091415    -0.000004     0.000000     1.091415
	    7 R(5,8)          =      1.089752    -0.000004     0.000000     1.089752
	    8 R(5,12)         =      1.524722     0.000000     0.000000     1.524722
	    9 R(9,10)         =      1.092286    -0.000007    -0.000000     1.092285
	   10 R(9,11)         =      1.093773    -0.000007    -0.000000     1.093773
	   11 R(9,15)         =      1.527611    -0.000000     0.000000     1.527611
	   12 R(12,13)        =      1.092269    -0.000004    -0.000000     1.092269
	   13 R(12,14)        =      1.092921    -0.000007    -0.000000     1.092921
	   14 R(12,24)        =      1.527704    -0.000001    -0.000000     1.527704
	   15 R(15,16)        =      1.095671    -0.000010    -0.000000     1.095671
	   16 R(15,17)        =      1.092549    -0.000009    -0.000000     1.092548
	   17 R(15,18)        =      1.524739    -0.000006    -0.000000     1.524739
	   18 R(18,19)        =      1.094668    -0.000010    -0.000000     1.094668
	   19 R(18,20)        =      1.092094    -0.000004    -0.000000     1.092094
	   20 R(18,21)        =      1.528475    -0.000001     0.000000     1.528475
	   21 R(21,22)        =      1.093862    -0.000004    -0.000000     1.093862
	   22 R(21,23)        =      1.092590    -0.000006    -0.000000     1.092590
	   23 R(21,24)        =      1.530125    -0.000001     0.000000     1.530125
	   24 R(24,25)        =      1.092297    -0.000007    -0.000000     1.092297
	   25 R(24,26)        =      1.094002    -0.000005    -0.000000     1.094002
	   26 B(1,9,10)       =    109.067015     0.000000     0.000003   109.067018
	   27 B(1,9,11)       =    109.639911     0.000000     0.000001   109.639912
	   28 B(1,9,15)       =    113.511984     0.000000     0.000001   113.511986
	   29 B(2,1,3)        =    107.551518    -0.000000    -0.000002   107.551516
	   30 B(2,1,4)        =    107.842774     0.000000     0.000004   107.842778
	   31 B(2,1,9)        =    111.716855    -0.000000    -0.000008   111.716847
	   32 B(3,1,4)        =    107.854172     0.000000     0.000002   107.854174
	   33 B(3,1,9)        =    111.127671     0.000000     0.000017   111.127688
	   34 B(4,1,9)        =    110.582709    -0.000000    -0.000012   110.582697
	   35 B(5,12,13)      =    109.310017     0.000000    -0.000005   109.310012
	   36 B(5,12,14)      =    109.577328     0.000000    -0.000002   109.577325
	   37 B(5,12,24)      =    113.080156    -0.000000     0.000010   113.080166
	   38 B(6,5,7)        =    107.712169     0.000000     0.000001   107.712169
	   39 B(6,5,8)        =    107.644453    -0.000000     0.000002   107.644455
	   40 B(6,5,12)       =    111.524294    -0.000000    -0.000006   111.524289
	   41 B(7,5,8)        =    107.898474    -0.000000     0.000001   107.898474
	   42 B(7,5,12)       =    110.676692    -0.000000    -0.000002   110.676690
	   43 B(8,5,12)       =    111.220145     0.000000     0.000005   111.220149
	   44 B(9,15,16)      =    109.286978     0.000000     0.000022   109.287000
	   45 B(9,15,17)      =    108.760140     0.000000     0.000139   108.760279
	   46 B(9,15,18)      =    113.563577     0.000000     0.000041   113.563617
	   47 B(10,9,11)      =    106.423063     0.000000     0.000003   106.423066
	   48 B(10,9,15)      =    108.943027    -0.000000     0.000007   108.943034
	   49 B(11,9,15)      =    109.010472    -0.000000    -0.000015   109.010457
	   50 B(12,24,21)     =    114.167942    -0.000000     0.000019   114.167961
	   51 B(12,24,25)     =    109.195781     0.000000    -0.000012   109.195769
	   52 B(12,24,26)     =    108.795498    -0.000000     0.000004   108.795502
	   53 B(13,12,14)     =    106.150321    -0.000000    -0.000006   106.150316
	   54 B(13,12,24)     =    108.686420     0.000000     0.000009   108.686429
	   55 B(14,12,24)     =    109.796251     0.000000    -0.000007   109.796244
	   56 B(15,18,19)     =    108.941284    -0.000000     0.000046   108.941330
	   57 B(15,18,20)     =    109.631731     0.000000     0.000064   109.631795
	   58 B(15,18,21)     =    113.475879    -0.000000    -0.000060   113.475819
	   59 B(16,15,17)     =    106.473005     0.000000    -0.000093   106.472912
	   60 B(16,15,18)     =    109.140236    -0.000000    -0.000052   109.140183
	   61 B(17,15,18)     =    109.373769    -0.000000    -0.000064   109.373705
	   62 B(18,21,22)     =    108.822498    -0.000000    -0.000006   108.822492
	   63 B(18,21,23)     =    109.019167    -0.000000    -0.000002   109.019165
	   64 B(18,21,24)     =    114.442549     0.000000     0.000018   114.442567
	   65 B(19,18,20)     =    106.215963    -0.000000     0.000105   106.216068
	   66 B(19,18,21)     =    109.988383     0.000000     0.000014   109.988397
	   67 B(20,18,21)     =    108.333358    -0.000000    -0.000159   108.333200
	   68 B(21,24,25)     =    109.611842    -0.000000    -0.000003   109.611838
	   69 B(21,24,26)     =    108.582629     0.000000    -0.000003   108.582626
	   70 B(22,21,23)     =    106.117674     0.000000    -0.000008   106.117666
	   71 B(22,21,24)     =    108.673372    -0.000000    -0.000008   108.673364
	   72 B(23,21,24)     =    109.435912    -0.000000     0.000004   109.435916
	   73 B(25,24,26)     =    106.178052    -0.000000    -0.000005   106.178047
	   74 D(1,9,15,16)    =    -57.310122     0.000000     0.000070   -57.310052
	   75 D(1,9,15,17)    =   -173.167873    -0.000000     0.000093  -173.167780
	   76 D(1,9,15,18)    =     64.803369     0.000000     0.000046    64.803416
	   77 D(2,1,9,10)     =    173.992210     0.000000     0.000038   173.992249
	   78 D(2,1,9,11)     =     57.826806    -0.000000     0.000032    57.826838
	   79 D(2,1,9,15)     =    -64.343408     0.000000     0.000051   -64.343357
	   80 D(3,1,9,10)     =     53.866253     0.000000     0.000035    53.866288
	   81 D(3,1,9,11)     =    -62.299152    -0.000000     0.000029   -62.299123
	   82 D(3,1,9,15)     =    175.530634     0.000000     0.000047   175.530682
	   83 D(4,1,9,10)     =    -65.883726    -0.000000     0.000030   -65.883697
	   84 D(4,1,9,11)     =    177.950869    -0.000000     0.000023   177.950892
	   85 D(4,1,9,15)     =     55.780655     0.000000     0.000042    55.780697
	   86 D(5,12,24,21)   =    -58.617604    -0.000000    -0.000090   -58.617693
	   87 D(5,12,24,25)   =    178.304159    -0.000000    -0.000089   178.304070
	   88 D(5,12,24,26)   =     62.827967     0.000000    -0.000078    62.827889
	   89 D(6,5,12,13)    =   -174.505512    -0.000000    -0.000051  -174.505563
	   90 D(6,5,12,14)    =    -58.565090    -0.000000    -0.000062   -58.565152
	   91 D(6,5,12,24)    =     64.273802    -0.000000    -0.000066    64.273736
	   92 D(7,5,12,13)    =     65.599847     0.000000    -0.000047    65.599800
	   93 D(7,5,12,14)    =   -178.459732     0.000000    -0.000058  -178.459789
	   94 D(7,5,12,24)    =    -55.620839    -0.000000    -0.000061   -55.620901
	   95 D(8,5,12,13)    =    -54.328774     0.000000    -0.000050   -54.328824
	   96 D(8,5,12,14)    =     61.611647     0.000000    -0.000060    61.611587
	   97 D(8,5,12,24)    =   -175.549460    -0.000000    -0.000064  -175.549525
	   98 D(9,15,18,19)   =     57.530008     0.000000     0.000090    57.530097
	   99 D(9,15,18,20)   =    -58.311471    -0.000000    -0.000097   -58.311568
	  100 D(9,15,18,21)   =   -179.577813     0.000000     0.000101  -179.577712
	  101 D(10,9,15,16)   =     64.423407     0.000000     0.000081    64.423488
	  102 D(10,9,15,17)   =    -51.434344     0.000000     0.000103   -51.434241
	  103 D(10,9,15,18)   =   -173.463102     0.000000     0.000057  -173.463045
	  104 D(11,9,15,16)   =   -179.828910     0.000000     0.000080  -179.828830
	  105 D(11,9,15,17)   =     64.313339    -0.000000     0.000103    64.313442
	  106 D(11,9,15,18)   =    -57.715419     0.000000     0.000056   -57.715363
	  107 D(12,24,21,18)  =    -54.034418    -0.000000     0.000068   -54.034350
	  108 D(12,24,21,22)  =   -175.884747    -0.000000     0.000069  -175.884678
	  109 D(12,24,21,23)  =     68.647783    -0.000000     0.000081    68.647864
	  110 D(13,12,24,21)  =    179.809926    -0.000000    -0.000096   179.809830
	  111 D(13,12,24,25)  =     56.731688    -0.000000    -0.000096    56.731592
	  112 D(13,12,24,26)  =    -58.744504     0.000000    -0.000085   -58.744589
	  113 D(14,12,24,21)  =     64.099644    -0.000000    -0.000091    64.099553
	  114 D(14,12,24,25)  =    -58.978594    -0.000000    -0.000090   -58.978684
	  115 D(14,12,24,26)  =   -174.454785    -0.000000    -0.000079  -174.454865
	  116 D(15,18,21,22)  =     62.960860     0.000000     0.000085    62.960945
	  117 D(15,18,21,23)  =    178.284350    -0.000000     0.000071   178.284421
	  118 D(15,18,21,24)  =    -58.807866     0.000000     0.000088   -58.807778
	  119 D(16,15,18,19)  =    179.724853     0.000000     0.000107   179.724960
	  120 D(16,15,18,20)  =     63.883374    -0.000000    -0.000080    63.883294
	  121 D(16,15,18,21)  =    -57.382968     0.000000     0.000118   -57.382850
	  122 D(17,15,18,19)  =    -64.157452    -0.000000    -0.000071   -64.157522
	  123 D(17,15,18,20)  =   -179.998931    -0.000000    -0.000257  -179.999188
	  124 D(17,15,18,21)  =     58.734727     0.000000    -0.000059    58.734668
	  125 D(18,21,24,25)  =     68.817854    -0.000000     0.000062    68.817916
	  126 D(18,21,24,26)  =   -175.597473    -0.000000     0.000053  -175.597420
	  127 D(19,18,21,22)  =   -174.725577    -0.000000     0.000113  -174.725464
	  128 D(19,18,21,23)  =    -59.402087    -0.000000     0.000099   -59.401988
	  129 D(19,18,21,24)  =     63.505698    -0.000000     0.000116    63.505813
	  130 D(20,18,21,22)  =    -59.030658     0.000000     0.000157   -59.030501
	  131 D(20,18,21,23)  =     56.292832    -0.000000     0.000143    56.292975
	  132 D(20,18,21,24)  =    179.200616     0.000000     0.000159   179.200776
	  133 D(22,21,24,25)  =    -53.032476    -0.000000     0.000064   -53.032412
	  134 D(22,21,24,26)  =     62.552197    -0.000000     0.000054    62.552251
	  135 D(23,21,24,25)  =   -168.499946     0.000000     0.000076  -168.499870
	  136 D(23,21,24,26)  =    -52.915273    -0.000000     0.000066   -52.915207
	  137 R(5,18)         =      3.608089     0.000000     0.000001     3.608090
	  138 R(12,15)        =      3.619341    -0.000001    -0.000003     3.619338
	 ---------------------------------------------------------------------------

  ==> Convergence Check <==

  Measures of convergence in internal coordinates in au.
  Criteria marked as inactive (o), active & met (*), and active & unmet ( ).
  ---------------------------------------------------------------------------------------------
   Step     Total Energy     Delta E     MAX Force     RMS Force      MAX Disp      RMS Disp   
  ---------------------------------------------------------------------------------------------
    Convergence Criteria             o    2.00e-06 *    1.00e-06 *    6.00e-06 *    4.00e-06 *
  ---------------------------------------------------------------------------------------------
     37    -314.98331516   -2.65e-09 o    1.25e-06 *    3.08e-07 *    5.26e-06 *    1.21e-06 *  ~
  ---------------------------------------------------------------------------------------------


  **** Optimization is complete! (in 37 steps) ****

  ==> Optimization Summary <==

  Measures of convergence in internal coordinates in au.
  --------------------------------------------------------------------------------------------------------------- ~
   Step         Total Energy             Delta E       MAX Force       RMS Force        MAX Disp        RMS Disp  ~
  --------------------------------------------------------------------------------------------------------------- ~
      1    -314.983315152052   -314.983315152052      0.00000126      0.00000032      0.00003258      0.00001014  ~
      2    -314.983315150808      0.000000001244      0.00000153      0.00000041      0.00002783      0.00000888  ~
      3    -314.983315152566     -0.000000001758      0.00000064      0.00000010      0.00002066      0.00000779  ~
      4    -314.983315153038     -0.000000000472      0.00000084      0.00000022      0.00001765      0.00000673  ~
      5    -314.983315155409     -0.000000002371      0.00000068      0.00000015      0.00001476      0.00000410  ~
      6    -314.983315151333      0.000000004075      0.00000191      0.00000041      0.00002071      0.00000684  ~
      7    -314.983315151060      0.000000000273      0.00000096      0.00000020      0.00002180      0.00000643  ~
      8    -314.983315153945     -0.000000002885      0.00000172      0.00000047      0.00002368      0.00000738  ~
      9    -314.983315154544     -0.000000000600      0.00000302      0.00000066      0.00005820      0.00001450  ~
     10    -314.983315155000     -0.000000000456      0.00000120      0.00000034      0.00005013      0.00001438  ~
     11    -314.983315154509      0.000000000491      0.00000081      0.00000017      0.00001292      0.00000326  ~
     12    -314.983315156631     -0.000000002122      0.00000069      0.00000012      0.00003394      0.00000671  ~
     13    -314.983315154389      0.000000002242      0.00000046      0.00000014      0.00001357      0.00000511  ~
     14    -314.983315152235      0.000000002154      0.00000162      0.00000043      0.00001321      0.00000393  ~
     15    -314.983315156998     -0.000000004763      0.00000073      0.00000019      0.00001159      0.00000406  ~
     16    -314.983315149583      0.000000007415      0.00000126      0.00000027      0.00004110      0.00000756  ~
     17    -314.983315153708     -0.000000004124      0.00000151      0.00000034      0.00005010      0.00001008  ~
     18    -314.983315152496      0.000000001212      0.00000226      0.00000046      0.00019948      0.00004034  ~
     19    -314.983315154060     -0.000000001564      0.00000330      0.00000098      0.00018865      0.00003830  ~
     20    -314.983315153012      0.000000001048      0.00000070      0.00000017      0.00001198      0.00000385  ~
     21    -314.983315153784     -0.000000000773      0.00000130      0.00000032      0.00000625      0.00000213  ~
     22    -314.983315152537      0.000000001247      0.00000157      0.00000034      0.00018670      0.00004005  ~
     23    -314.983315156667     -0.000000004130      0.00000753      0.00000175      0.00018663      0.00004018  ~
     24    -314.983315157333     -0.000000000666      0.00000041      0.00000009      0.00001492      0.00000352  ~
     25    -314.983315155841      0.000000001492      0.00000088      0.00000016      0.00002183      0.00000614  ~
     26    -314.983315151448      0.000000004393      0.00000042      0.00000015      0.00001793      0.00000506  ~
     27    -314.983315155441     -0.000000003993      0.00000058      0.00000013      0.00001458      0.00000241  ~
     28    -314.983315151646      0.000000003795      0.00000068      0.00000015      0.00002895      0.00000615  ~
     29    -314.983315156112     -0.000000004466      0.00000083      0.00000016      0.00001512      0.00000445  ~
     30    -314.983315155788      0.000000000324      0.00000198      0.00000048      0.00001538      0.00000309  ~
     31    -314.983315158054     -0.000000002266      0.00000067      0.00000016      0.00001631      0.00000254  ~
     32    -314.983315154778      0.000000003276      0.00000111      0.00000025      0.00003234      0.00000812  ~
     33    -314.983315156255     -0.000000001477      0.00000060      0.00000016      0.00002482      0.00000682  ~
     34    -314.983315150393      0.000000005862      0.00000102      0.00000023      0.00006412      0.00001278  ~
     35    -314.983315151560     -0.000000001167      0.00000290      0.00000062      0.00006470      0.00001367  ~
     36    -314.983315152829     -0.000000001270      0.00000126      0.00000033      0.00001106      0.00000192  ~
     37    -314.983315155478     -0.000000002649      0.00000125      0.00000031      0.00000526      0.00000121  ~
  --------------------------------------------------------------------------------------------------------------- ~

	Writing optimization data to binary file.
	Final energy is   -314.9833151554780
	Final (previous) structure:
	Cartesian Geometry (in Angstrom)
	    C    -3.5096302074  -0.2116873440   0.5214215847
	    H    -3.0920051344  -0.2364778950   1.5269870134
	    H    -4.3966303144  -0.8447754510   0.5182577473
	    H    -3.8283436693   0.8118392307   0.3168392684
	    C     2.9650350412  -0.9718153630   0.6772862151
	    H     2.2987274554  -0.9225291994   1.5383420045
	    H     3.7952701005  -0.2874127605   0.8602859812
	    H     3.3687726080  -1.9828895293   0.6294922973
	    C    -2.4985060818  -0.6769040803  -0.5211738427
	    H    -2.9913765742  -0.7375408685  -1.4940508810
	    H    -2.1624641097  -1.6897112405  -0.2810957323
	    C     2.2398043278  -0.6055997794  -0.6129476736
	    H     2.9106403681  -0.7606891438  -1.4608735929
	    H     1.3965629676  -1.2841989076  -0.7643499010
	    C    -1.2800151496   0.2369181190  -0.6386601363
	    H    -1.6118091195   1.2537749198  -0.8761685448
	    H    -0.6715562174  -0.0955754268  -1.4829871724
	    C    -0.4211863271   0.2726145862   0.6206917116
	    H    -0.0956274534  -0.7452856787   0.8577333107
	    H    -1.0254918426   0.6045439457   1.4676310641
	    C     0.7917562476   1.1953918472   0.5045563821
	    H     0.4418702676   2.2218791320   0.3615923619
	    H     1.3356291615   1.1895265758   1.4521435553
	    C     1.7499274703   0.8412692160  -0.6346479717
	    H     1.2690199941   1.0432601230  -1.5943560815
	    H     2.6160522660   1.5074868993  -0.5815152861
	Saving final (previous) structure.
			--------------------------
			 OPTKING Finished Execution 
			--------------------------

    Final optimized geometry and variables:
    Molecular point group: c1
    Full point group: C1

    Geometry (in Angstrom), charge = 0, multiplicity = 1:

    C           -3.509630207396    -0.211687343971     0.521421584661
    H           -3.092005134418    -0.236477895039     1.526987013419
    H           -4.396630314425    -0.844775451014     0.518257747295
    H           -3.828343669250     0.811839230651     0.316839268394
    C            2.965035041191    -0.971815362970     0.677286215110
    H            2.298727455394    -0.922529199433     1.538342004523
    H            3.795270100539    -0.287412760512     0.860285981226
    H            3.368772607976    -1.982889529277     0.629492297251
    C           -2.498506081777    -0.676904080271    -0.521173842680
    H           -2.991376574218    -0.737540868486    -1.494050881043
    H           -2.162464109741    -1.689711240532    -0.281095732253
    C            2.239804327793    -0.605599779369    -0.612947673618
    H            2.910640368082    -0.760689143776    -1.460873592850
    H            1.396562967555    -1.284198907580    -0.764349901016
    C           -1.280015149638     0.236918119050    -0.638660136299
    H           -1.611809119475     1.253774919771    -0.876168544770
    H           -0.671556217413    -0.095575426818    -1.482987172420
    C           -0.421186327099     0.272614586197     0.620691711643
    H           -0.095627453394    -0.745285678741     0.857733310682
    H           -1.025491842601     0.604543945692     1.467631064124
    C            0.791756247553     1.195391847212     0.504556382075
    H            0.441870267649     2.221879132026     0.361592361937
    H            1.335629161483     1.189526575799     1.452143555312
    C            1.749927470329     0.841269215957    -0.634647971683
    H            1.269019994099     1.043260123042    -1.594356081542
    H            2.616052265991     1.507486899348    -0.581515286140

	Cleaning optimization helper files.

*** Psi4 exiting successfully. Buy a developer a beer!
