    -----------------------------------------------------------------------
          Psi4: An Open-Source Ab Initio Electronic Structure Package
                              Psi4 1.0.0 Driver

                          Git: Rev {master} 6a9a71b dirty

    J. M. Turney, A. C. Simmonett, R. M. Parrish, E. G. Hohenstein,
    F. A. Evangelista, J. T. Fermann, B. J. Mintz, L. A. Burns, J. J. Wilke,
    M. L. Abrams, N. J. Russ, M. L. Leininger, C. L. Janssen, E. T. Seidl,
    W. D. Allen, H. F. Schaefer, R. A. King, E. F. Valeev, C. D. Sherrill,
    and T. D. Crawford, WIREs Comput. Mol. Sci. 2, 556-565 (2012)
    (doi: 10.1002/wcms.93)

                         Additional Contributions by
    A. E. DePrince, U. Bozkaya, A. Yu. Sokolov, D. G. A. Smith, R. Di Remigio,
    R. M. Richard, J. F. Gonthier, H. R. McAlexander, M. Saitow, and
    B. P. Pritchard
    -----------------------------------------------------------------------


    Psi4 started on: Tue Sep 20 22:40:02 2016

    Process ID:  19033
    PSI4DATADIR: /usr/local/hpc5/psi4conda/share/psi4
    Memory level set to 256.000 MB

  ==> Input File <==

--------------------------------------------------------------------------
memory 60 Gb

molecule molecule_07_psi {
0 1
C           -3.809009840145     0.911351052830    -0.179372442054
H           -4.123372024822     1.891265885137     0.178972179429
H           -4.514290564224     0.171705824148     0.201574966646
H           -3.885098525000     0.912088759731    -1.267513625521
C            3.113331346392     1.451414884157     0.209768701000
H            4.000036720283     1.989047980618    -0.125253821237
H            3.105031683379     1.466410486853     1.301016254948
H            2.241924666286     2.004909024232    -0.137873580955
C           -2.388056133889     0.579966880979     0.260559759366
H           -2.324923622070     0.596781955590     1.352520905414
H           -1.707367789375     1.352296348487    -0.102576142236
C            3.110733497680     0.016620659381    -0.307186976293
H            3.080881432287     0.020129492391    -1.400314292180
H            4.048283331281    -0.467393979741    -0.024746647108
C           -1.937449043325    -0.787340394443    -0.241737569066
H           -1.939960460880    -0.785963678968    -1.336780222940
H           -2.675781220056    -1.533034058134     0.067677522268
C           -0.558205542368    -1.208801731613     0.258836973088
H           -0.355749060334    -2.234047154642    -0.064206223034
H           -0.561292887385    -1.224314819156     1.353699006259
C            0.575413702093    -0.310833360039    -0.224575184265
H            0.550370016093    -0.256845832470    -1.318872763604
H            0.420240276839     0.704973159993     0.142826839975
C            1.943646377109    -0.814196653141     0.221372784592
H            1.980169299235    -0.830686649833     1.315738716280
H            2.060742606809    -1.850575659295    -0.108099086337
}

set globals {
  reference rhf
  g_convergence gau_verytight
  basis aug-cc-pvtz
  freeze_core true
  scf_type df
  mp_type df
}
optimize('mp2')
--------------------------------------------------------------------------
/usr/local/hpc5/psi4conda/lib/python2.7/site-packages/v2rdm_casscf/v2rdm_casscf.so loaded.

  Memory set to  60.000 GiB by Python script.
gradient() will perform analytic gradient computation.

*** tstart() called on wr40
*** at Tue Sep 20 22:40:02 2016


         ---------------------------------------------------------
                                   SCF
            by Justin Turney, Rob Parrish, and Andy Simmonett
                              RHF Reference
                       12 Threads,  60000 MiB Core
         ---------------------------------------------------------

  ==> Geometry <==

    Molecular point group: c1
    Full point group: C1

    Geometry (in Angstrom), charge = 0, multiplicity = 1:

       Center              X                  Y                   Z               Mass       
    ------------   -----------------  -----------------  -----------------  -----------------
           C         -3.809009840145     0.911351052830    -0.179372442054    12.000000000000
           H         -4.123372024822     1.891265885137     0.178972179429     1.007825032070
           H         -4.514290564224     0.171705824148     0.201574966646     1.007825032070
           H         -3.885098525000     0.912088759731    -1.267513625521     1.007825032070
           C          3.113331346392     1.451414884157     0.209768701000    12.000000000000
           H          4.000036720283     1.989047980618    -0.125253821237     1.007825032070
           H          3.105031683379     1.466410486853     1.301016254948     1.007825032070
           H          2.241924666286     2.004909024232    -0.137873580955     1.007825032070
           C         -2.388056133889     0.579966880979     0.260559759366    12.000000000000
           H         -2.324923622070     0.596781955590     1.352520905414     1.007825032070
           H         -1.707367789375     1.352296348487    -0.102576142236     1.007825032070
           C          3.110733497680     0.016620659381    -0.307186976293    12.000000000000
           H          3.080881432287     0.020129492391    -1.400314292180     1.007825032070
           H          4.048283331281    -0.467393979741    -0.024746647108     1.007825032070
           C         -1.937449043325    -0.787340394443    -0.241737569066    12.000000000000
           H         -1.939960460880    -0.785963678968    -1.336780222940     1.007825032070
           H         -2.675781220056    -1.533034058134     0.067677522268     1.007825032070
           C         -0.558205542368    -1.208801731613     0.258836973088    12.000000000000
           H         -0.355749060334    -2.234047154642    -0.064206223034     1.007825032070
           H         -0.561292887385    -1.224314819156     1.353699006259     1.007825032070
           C          0.575413702093    -0.310833360039    -0.224575184265    12.000000000000
           H          0.550370016093    -0.256845832470    -1.318872763604     1.007825032070
           H          0.420240276839     0.704973159993     0.142826839975     1.007825032070
           C          1.943646377109    -0.814196653141     0.221372784592    12.000000000000
           H          1.980169299235    -0.830686649833     1.315738716280     1.007825032070
           H          2.060742606809    -1.850575659295    -0.108099086337     1.007825032070

  Running in c1 symmetry.

  Rotational constants: A =      0.13525  B =      0.02305  C =      0.02065 [cm^-1]
  Rotational constants: A =   4054.62705  B =    690.87287  C =    619.11439 [MHz]
  Nuclear repulsion =  387.382181637736494

  Charge       = 0
  Multiplicity = 1
  Electrons    = 66
  Nalpha       = 33
  Nbeta        = 33

  ==> Algorithm <==

  SCF Algorithm Type is DF.
  DIIS enabled.
  MOM disabled.
  Fractional occupation disabled.
  Guess Type is SAD.
  Energy threshold   = 1.00e-10
  Density threshold  = 1.00e-10
  Integral threshold = 0.00e+00

  ==> Primary Basis <==

  Basis Set: AUG-CC-PVTZ
    Number of shells: 274
    Number of basis function: 782
    Number of Cartesian functions: 890
    Spherical Harmonics?: true
    Max angular momentum: 3

  ==> Pre-Iterations <==

   -------------------------------------------------------
    Irrep   Nso     Nmo     Nalpha   Nbeta   Ndocc  Nsocc
   -------------------------------------------------------
     A        782     782       0       0       0       0
   -------------------------------------------------------
    Total     782     782      33      33      33       0
   -------------------------------------------------------

  ==> Integral Setup <==

  ==> DFJK: Density-Fitted J/K Matrices <==

    J tasked:                  Yes
    K tasked:                  Yes
    wK tasked:                  No
    OpenMP threads:             12
    Integrals threads:          12
    Memory (MB):             42915
    Algorithm:                Core
    Integral Cache:           NONE
    Schwarz Cutoff:          1E-12
    Fitting Condition:       1E-12

   => Auxiliary Basis Set <=

  Basis Set: 
    Number of shells: 492
    Number of basis function: 1660
    Number of Cartesian functions: 2038
    Spherical Harmonics?: true
    Max angular momentum: 4

  Minimum eigenvalue in the overlap matrix is 2.3394370375E-06.
  Using Symmetric Orthogonalization.
  SCF Guess: Superposition of Atomic Densities via on-the-fly atomic UHF.

  ==> Iterations <==

                           Total Energy        Delta E     RMS |[F,P]|

   @DF-RHF iter   0:  -316.77586112632298   -3.16776e+02   6.92171e-03 
   @DF-RHF iter   1:  -313.28242932386138    3.49343e+00   7.58110e-04 
   @DF-RHF iter   2:  -313.50618725892423   -2.23758e-01   2.91508e-04 DIIS
   @DF-RHF iter   3:  -313.53828514259976   -3.20979e-02   1.02524e-04 DIIS
   @DF-RHF iter   4:  -313.54380563635971   -5.52049e-03   1.62624e-05 DIIS
   @DF-RHF iter   5:  -313.54397097542858   -1.65339e-04   5.11223e-06 DIIS
   @DF-RHF iter   6:  -313.54398455020760   -1.35748e-05   1.24862e-06 DIIS
   @DF-RHF iter   7:  -313.54398556097885   -1.01077e-06   2.38259e-07 DIIS
   @DF-RHF iter   8:  -313.54398559980041   -3.88216e-08   7.79165e-08 DIIS
   @DF-RHF iter   9:  -313.54398560280697   -3.00656e-09   1.96946e-08 DIIS
   @DF-RHF iter  10:  -313.54398560308539   -2.78419e-10   4.81807e-09 DIIS
   @DF-RHF iter  11:  -313.54398560310426   -1.88720e-11   1.20934e-09 DIIS
   @DF-RHF iter  12:  -313.54398560310472   -4.54747e-13   3.79265e-10 DIIS
   @DF-RHF iter  13:  -313.54398560310506   -3.41061e-13   1.04278e-10 DIIS
   @DF-RHF iter  14:  -313.54398560310494    1.13687e-13   2.47835e-11 DIIS

  ==> Post-Iterations <==

    Orbital Energies (a.u.)
    -----------------------

    Doubly Occupied:                                                      

       1A    -11.212804     2A    -11.212023     3A    -11.210585  
       4A    -11.210228     5A    -11.209976     6A    -11.208670  
       7A    -11.206971     8A    -11.206693     9A     -1.093780  
      10A     -1.061528    11A     -1.009680    12A     -0.947460  
      13A     -0.881115    14A     -0.830070    15A     -0.781073  
      16A     -0.767302    17A     -0.643286    18A     -0.632905  
      19A     -0.606263    20A     -0.593641    21A     -0.579919  
      22A     -0.561831    23A     -0.549356    24A     -0.521898  
      25A     -0.515912    26A     -0.500618    27A     -0.488168  
      28A     -0.475645    29A     -0.464031    30A     -0.458983  
      31A     -0.454009    32A     -0.440336    33A     -0.432748  

    Virtual:                                                              

      34A      0.029929    35A      0.032371    36A      0.034269  
      37A      0.036460    38A      0.044752    39A      0.046656  
      40A      0.049806    41A      0.053669    42A      0.057440  
      43A      0.064894    44A      0.066021    45A      0.069445  
      46A      0.072369    47A      0.079268    48A      0.088702  
      49A      0.092708    50A      0.095155    51A      0.105919  
      52A      0.113133    53A      0.116208    54A      0.116922  
      55A      0.123701    56A      0.125967    57A      0.132440  
      58A      0.135392    59A      0.136173    60A      0.140089  
      61A      0.145952    62A      0.150937    63A      0.155638  
      64A      0.156615    65A      0.158541    66A      0.161946  
      67A      0.162796    68A      0.164598    69A      0.169279  
      70A      0.174309    71A      0.179014    72A      0.186914  
      73A      0.193393    74A      0.197035    75A      0.199062  
      76A      0.207520    77A      0.214757    78A      0.222574  
      79A      0.224012    80A      0.236593    81A      0.237456  
      82A      0.243182    83A      0.253958    84A      0.260367  
      85A      0.263545    86A      0.275216    87A      0.276836  
      88A      0.279749    89A      0.282259    90A      0.290530  
      91A      0.298194    92A      0.303074    93A      0.303696  
      94A      0.307891    95A      0.318260    96A      0.322894  
      97A      0.325438    98A      0.327456    99A      0.330416  
     100A      0.334698   101A      0.337586   102A      0.343454  
     103A      0.349165   104A      0.355360   105A      0.356421  
     106A      0.358821   107A      0.361760   108A      0.364345  
     109A      0.366123   110A      0.368125   111A      0.372700  
     112A      0.374153   113A      0.378815   114A      0.387705  
     115A      0.390892   116A      0.397032   117A      0.400526  
     118A      0.401515   119A      0.404444   120A      0.406462  
     121A      0.408111   122A      0.411686   123A      0.421018  
     124A      0.428346   125A      0.431902   126A      0.433677  
     127A      0.437243   128A      0.440781   129A      0.441611  
     130A      0.445781   131A      0.451339   132A      0.453720  
     133A      0.457777   134A      0.461766   135A      0.464218  
     136A      0.474866   137A      0.476269   138A      0.481006  
     139A      0.482256   140A      0.484119   141A      0.485969  
     142A      0.491609   143A      0.493639   144A      0.499985  
     145A      0.504194   146A      0.505934   147A      0.509307  
     148A      0.512341   149A      0.513258   150A      0.518673  
     151A      0.523758   152A      0.529934   153A      0.532181  
     154A      0.534491   155A      0.540927   156A      0.541405  
     157A      0.548538   158A      0.552673   159A      0.559191  
     160A      0.565232   161A      0.566430   162A      0.573733  
     163A      0.575031   164A      0.578517   165A      0.582374  
     166A      0.587215   167A      0.592181   168A      0.598084  
     169A      0.606449   170A      0.607613   171A      0.615425  
     172A      0.617064   173A      0.625012   174A      0.627876  
     175A      0.632297   176A      0.641871   177A      0.646501  
     178A      0.652592   179A      0.654387   180A      0.659833  
     181A      0.662611   182A      0.667702   183A      0.681715  
     184A      0.684213   185A      0.688259   186A      0.692890  
     187A      0.699264   188A      0.706305   189A      0.713470  
     190A      0.719056   191A      0.721404   192A      0.728950  
     193A      0.731914   194A      0.747237   195A      0.751150  
     196A      0.754778   197A      0.771922   198A      0.775362  
     199A      0.786223   200A      0.794602   201A      0.805145  
     202A      0.807530   203A      0.821775   204A      0.828475  
     205A      0.833225   206A      0.837208   207A      0.840111  
     208A      0.853175   209A      0.854988   210A      0.859769  
     211A      0.860972   212A      0.864614   213A      0.873546  
     214A      0.880602   215A      0.882017   216A      0.889105  
     217A      0.892395   218A      0.894531   219A      0.896548  
     220A      0.905434   221A      0.910142   222A      0.914252  
     223A      0.915101   224A      0.923576   225A      0.930179  
     226A      0.933715   227A      0.937093   228A      0.941230  
     229A      0.949141   230A      0.952761   231A      0.955095  
     232A      0.964140   233A      0.965902   234A      0.967771  
     235A      0.973904   236A      0.984809   237A      0.991199  
     238A      0.994464   239A      0.997529   240A      1.003275  
     241A      1.006255   242A      1.009716   243A      1.015490  
     244A      1.017969   245A      1.025458   246A      1.034614  
     247A      1.040552   248A      1.043531   249A      1.047917  
     250A      1.060877   251A      1.061692   252A      1.064556  
     253A      1.073094   254A      1.081572   255A      1.085103  
     256A      1.087284   257A      1.092059   258A      1.097820  
     259A      1.106846   260A      1.111499   261A      1.113769  
     262A      1.120733   263A      1.126603   264A      1.131343  
     265A      1.134867   266A      1.142263   267A      1.144372  
     268A      1.149049   269A      1.158557   270A      1.159189  
     271A      1.166566   272A      1.173901   273A      1.174690  
     274A      1.179460   275A      1.185089   276A      1.192414  
     277A      1.199258   278A      1.202149   279A      1.212407  
     280A      1.213755   281A      1.214732   282A      1.220828  
     283A      1.223881   284A      1.234860   285A      1.236784  
     286A      1.243681   287A      1.249107   288A      1.252114  
     289A      1.255598   290A      1.260999   291A      1.267023  
     292A      1.273637   293A      1.278050   294A      1.284589  
     295A      1.292978   296A      1.299078   297A      1.303077  
     298A      1.314216   299A      1.316517   300A      1.321460  
     301A      1.327198   302A      1.329121   303A      1.338833  
     304A      1.343101   305A      1.348613   306A      1.354776  
     307A      1.361423   308A      1.367492   309A      1.384205  
     310A      1.389616   311A      1.395350   312A      1.398725  
     313A      1.406012   314A      1.419819   315A      1.425457  
     316A      1.436202   317A      1.439707   318A      1.440903  
     319A      1.458640   320A      1.467335   321A      1.469731  
     322A      1.482420   323A      1.483894   324A      1.492872  
     325A      1.494759   326A      1.504179   327A      1.512312  
     328A      1.515733   329A      1.521806   330A      1.530735  
     331A      1.546800   332A      1.552663   333A      1.560351  
     334A      1.567822   335A      1.575846   336A      1.580522  
     337A      1.584820   338A      1.591302   339A      1.603701  
     340A      1.609399   341A      1.618092   342A      1.629297  
     343A      1.636538   344A      1.638185   345A      1.644612  
     346A      1.652046   347A      1.661192   348A      1.668318  
     349A      1.668904   350A      1.680546   351A      1.682206  
     352A      1.689286   353A      1.690084   354A      1.700298  
     355A      1.703698   356A      1.704899   357A      1.715750  
     358A      1.725200   359A      1.729425   360A      1.731028  
     361A      1.739702   362A      1.742226   363A      1.752678  
     364A      1.760064   365A      1.767297   366A      1.768622  
     367A      1.769308   368A      1.775645   369A      1.782344  
     370A      1.782953   371A      1.789240   372A      1.797705  
     373A      1.807602   374A      1.812588   375A      1.819744  
     376A      1.822483   377A      1.833460   378A      1.834211  
     379A      1.838892   380A      1.840300   381A      1.848478  
     382A      1.854050   383A      1.858385   384A      1.862195  
     385A      1.869055   386A      1.885411   387A      1.891340  
     388A      1.908010   389A      1.908258   390A      1.911838  
     391A      1.917721   392A      1.923263   393A      1.930986  
     394A      1.940867   395A      1.950628   396A      1.952027  
     397A      1.965952   398A      1.969707   399A      1.979093  
     400A      1.984177   401A      1.988346   402A      1.994035  
     403A      1.999895   404A      2.006006   405A      2.011819  
     406A      2.018894   407A      2.026680   408A      2.032425  
     409A      2.036232   410A      2.045285   411A      2.050314  
     412A      2.065405   413A      2.067888   414A      2.077343  
     415A      2.090558   416A      2.096122   417A      2.104732  
     418A      2.109601   419A      2.115330   420A      2.126441  
     421A      2.129477   422A      2.137978   423A      2.145865  
     424A      2.150097   425A      2.164320   426A      2.165133  
     427A      2.174312   428A      2.193026   429A      2.209161  
     430A      2.214646   431A      2.230263   432A      2.237118  
     433A      2.245419   434A      2.251743   435A      2.255837  
     436A      2.273150   437A      2.276670   438A      2.286732  
     439A      2.293293   440A      2.295259   441A      2.297880  
     442A      2.310960   443A      2.318015   444A      2.322912  
     445A      2.331410   446A      2.340076   447A      2.344335  
     448A      2.353212   449A      2.370078   450A      2.376201  
     451A      2.381256   452A      2.401135   453A      2.402288  
     454A      2.411045   455A      2.425611   456A      2.437398  
     457A      2.451875   458A      2.468892   459A      2.479358  
     460A      2.487159   461A      2.493517   462A      2.500497  
     463A      2.524257   464A      2.541555   465A      2.551708  
     466A      2.561192   467A      2.565728   468A      2.580436  
     469A      2.587993   470A      2.595487   471A      2.601377  
     472A      2.623895   473A      2.643523   474A      2.659049  
     475A      2.666683   476A      2.683570   477A      2.699770  
     478A      2.725422   479A      2.738027   480A      2.770590  
     481A      2.779929   482A      2.801744   483A      2.835416  
     484A      2.863855   485A      2.910263   486A      2.941850  
     487A      2.959681   488A      3.001264   489A      3.016016  
     490A      3.090694   491A      3.163764   492A      3.166348  
     493A      3.282842   494A      3.308870   495A      3.332200  
     496A      3.401944   497A      3.413145   498A      3.431434  
     499A      3.457994   500A      3.462143   501A      3.474212  
     502A      3.480290   503A      3.493196   504A      3.507339  
     505A      3.524700   506A      3.530778   507A      3.540963  
     508A      3.558980   509A      3.564798   510A      3.580963  
     511A      3.592280   512A      3.600059   513A      3.613888  
     514A      3.627570   515A      3.629014   516A      3.650235  
     517A      3.661270   518A      3.667056   519A      3.677803  
     520A      3.683106   521A      3.697283   522A      3.704874  
     523A      3.709352   524A      3.712879   525A      3.729995  
     526A      3.739783   527A      3.748666   528A      3.754625  
     529A      3.757121   530A      3.766715   531A      3.773705  
     532A      3.791102   533A      3.798102   534A      3.805316  
     535A      3.816057   536A      3.818461   537A      3.826520  
     538A      3.835241   539A      3.843454   540A      3.850938  
     541A      3.859149   542A      3.875049   543A      3.885478  
     544A      3.889087   545A      3.897839   546A      3.908829  
     547A      3.910612   548A      3.919873   549A      3.929954  
     550A      3.937289   551A      3.942468   552A      3.951645  
     553A      3.954842   554A      3.965476   555A      3.971796  
     556A      3.982499   557A      3.984760   558A      3.999880  
     559A      4.002345   560A      4.004537   561A      4.012963  
     562A      4.022825   563A      4.024446   564A      4.032903  
     565A      4.036771   566A      4.039089   567A      4.050929  
     568A      4.055965   569A      4.061409   570A      4.073392  
     571A      4.082512   572A      4.096096   573A      4.100806  
     574A      4.108193   575A      4.117470   576A      4.127670  
     577A      4.133939   578A      4.137310   579A      4.145591  
     580A      4.161388   581A      4.171518   582A      4.180673  
     583A      4.200719   584A      4.217301   585A      4.222732  
     586A      4.233959   587A      4.240067   588A      4.245455  
     589A      4.262069   590A      4.267050   591A      4.271016  
     592A      4.273037   593A      4.287675   594A      4.293156  
     595A      4.306843   596A      4.321347   597A      4.328748  
     598A      4.334354   599A      4.346573   600A      4.365239  
     601A      4.374797   602A      4.392135   603A      4.398466  
     604A      4.412592   605A      4.421428   606A      4.433155  
     607A      4.442401   608A      4.455394   609A      4.479699  
     610A      4.482175   611A      4.486991   612A      4.501188  
     613A      4.512217   614A      4.521570   615A      4.539405  
     616A      4.550164   617A      4.579885   618A      4.595198  
     619A      4.607693   620A      4.610875   621A      4.633036  
     622A      4.650623   623A      4.656054   624A      4.670208  
     625A      4.678970   626A      4.685125   627A      4.707844  
     628A      4.709292   629A      4.715706   630A      4.726695  
     631A      4.735021   632A      4.746068   633A      4.759644  
     634A      4.763714   635A      4.785940   636A      4.790686  
     637A      4.804943   638A      4.813702   639A      4.822320  
     640A      4.823755   641A      4.838062   642A      4.846382  
     643A      4.866912   644A      4.874527   645A      4.880104  
     646A      4.890102   647A      4.901030   648A      4.903930  
     649A      4.913234   650A      4.916437   651A      4.925995  
     652A      4.944218   653A      4.964376   654A      4.980099  
     655A      4.991233   656A      5.004619   657A      5.020179  
     658A      5.034519   659A      5.038939   660A      5.042362  
     661A      5.048507   662A      5.066840   663A      5.086225  
     664A      5.094591   665A      5.107375   666A      5.118195  
     667A      5.140373   668A      5.152600   669A      5.166216  
     670A      5.171318   671A      5.179185   672A      5.197343  
     673A      5.204452   674A      5.219010   675A      5.229002  
     676A      5.235186   677A      5.243306   678A      5.258186  
     679A      5.275506   680A      5.297752   681A      5.306803  
     682A      5.322244   683A      5.332408   684A      5.340646  
     685A      5.345557   686A      5.363228   687A      5.377067  
     688A      5.380227   689A      5.389623   690A      5.393465  
     691A      5.410291   692A      5.427434   693A      5.433376  
     694A      5.439371   695A      5.451322   696A      5.467606  
     697A      5.469412   698A      5.473730   699A      5.483676  
     700A      5.509833   701A      5.517303   702A      5.525832  
     703A      5.537553   704A      5.549395   705A      5.563483  
     706A      5.580382   707A      5.590076   708A      5.604392  
     709A      5.609399   710A      5.624964   711A      5.639085  
     712A      5.645486   713A      5.657166   714A      5.670521  
     715A      5.691578   716A      5.696258   717A      5.705193  
     718A      5.733765   719A      5.741404   720A      5.747485  
     721A      5.750995   722A      5.760980   723A      5.769301  
     724A      5.789915   725A      5.797728   726A      5.831577  
     727A      5.834943   728A      5.859586   729A      5.872704  
     730A      5.883184   731A      5.901980   732A      5.934641  
     733A      5.950512   734A      5.979420   735A      6.006543  
     736A      6.029140   737A      6.033909   738A      6.046544  
     739A      6.084617   740A      6.111456   741A      6.120182  
     742A      6.137810   743A      6.180033   744A      6.184874  
     745A      6.216076   746A      6.222127   747A      6.254459  
     748A      6.258474   749A      6.272068   750A      6.288258  
     751A      6.293898   752A      6.311190   753A      6.314893  
     754A      6.341015   755A      6.343361   756A      6.362310  
     757A      6.402111   758A      6.413981   759A      6.565706  
     760A      6.574829   761A      6.607219   762A      6.662253  
     763A      6.699747   764A      6.773281   765A      6.787653  
     766A      6.806331   767A      6.846466   768A      6.874743  
     769A      6.892267   770A      6.915356   771A      6.969206  
     772A      7.000621   773A      7.063653   774A      7.120438  
     775A     17.792175   776A     18.056390   777A     18.162341  
     778A     18.443317   779A     18.521521   780A     18.738725  
     781A     19.135296   782A     19.597603  

    Final Occupation by Irrep:
              A 
    DOCC [    33 ]

  Energy converged.

  @DF-RHF Final Energy:  -313.54398560310494

   => Energetics <=

    Nuclear Repulsion Energy =            387.3821816377364939
    One-Electron Energy =               -1189.9133187637544324
    Two-Electron Energy =                 488.9871515229131091
    DFT Exchange-Correlation Energy =       0.0000000000000000
    Empirical Dispersion Energy =           0.0000000000000000
    PCM Polarization Energy =               0.0000000000000000
    EFP Energy =                            0.0000000000000000
    Total Energy =                       -313.5439856031048294


  Saving occupied orbitals to File 180.

*** tstop() called on wr40 at Tue Sep 20 22:41:49 2016
Module time:
	user time   =    1140.03 seconds =      19.00 minutes
	system time =      20.93 seconds =       0.35 minutes
	total time  =        107 seconds =       1.78 minutes
Total time:
	user time   =    1140.03 seconds =      19.00 minutes
	system time =      20.93 seconds =       0.35 minutes
	total time  =        107 seconds =       1.78 minutes


Properties will be evaluated at   0.000000,   0.000000,   0.000000 Bohr

Properties computed using the SCF density matrix

  Nuclear Dipole Moment: (a.u.)
     X:    -0.5626      Y:     1.8063      Z:     0.0261

  Electronic Dipole Moment: (a.u.)
     X:     0.5902      Y:    -1.8218      Z:    -0.0262

  Dipole Moment: (a.u.)
     X:     0.0275      Y:    -0.0156      Z:    -0.0002     Total:     0.0316

  Dipole Moment: (Debye)
     X:     0.0700      Y:    -0.0396      Z:    -0.0005     Total:     0.0804


  //>>>>>>>>>>>>>>>>>>>>>>>>>>>>>>>>>>>//
  //               DFMP2               //
  //<<<<<<<<<<<<<<<<<<<<<<<<<<<<<<<<<<<//


*** tstart() called on wr40
*** at Tue Sep 20 22:41:49 2016


*** tstop() called on wr40 at Tue Sep 20 22:41:49 2016
Module time:
	user time   =       4.46 seconds =       0.07 minutes
	system time =       0.21 seconds =       0.00 minutes
	total time  =          0 seconds =       0.00 minutes
Total time:
	user time   =    1144.71 seconds =      19.08 minutes
	system time =      21.15 seconds =       0.35 minutes
	total time  =        107 seconds =       1.78 minutes
	 --------------------------------------------------------
	                          DF-MP2                         
	      2nd-Order Density-Fitted Moller-Plesset Theory     
	              RMP2 Wavefunction,  12 Threads             
	                                                         
	        Rob Parrish, Justin Turney, Andy Simmonett,      
	           Ed Hohenstein, and C. David Sherrill          
	 --------------------------------------------------------

   => Auxiliary Basis Set <=

  Basis Set: 
    Number of shells: 476
    Number of basis function: 1676
    Number of Cartesian functions: 2078
    Spherical Harmonics?: true
    Max angular momentum: 4

	 --------------------------------------------------------
	                 NBF =   782, NAUX =  1676
	 --------------------------------------------------------
	   CLASS    FOCC     OCC    AOCC    AVIR     VIR    FVIR
	   PAIRS       8      33      25     749     749       0
	 --------------------------------------------------------

DGAS Warning! /src/lib/libfock/apps.cc:80 is not currently checking restricted

         ------------------------------------------------------------
                                     CPHF                           
                                  Rob Parrish                       
         ------------------------------------------------------------

  ==> Geometry <==

    Molecular point group: c1
    Full point group: C1

    Geometry (in Angstrom), charge = 0, multiplicity = 1:

       Center              X                  Y                   Z               Mass       
    ------------   -----------------  -----------------  -----------------  -----------------
           C         -3.809009840145     0.911351052830    -0.179372442054    12.000000000000
           H         -4.123372024822     1.891265885137     0.178972179429     1.007825032070
           H         -4.514290564224     0.171705824148     0.201574966646     1.007825032070
           H         -3.885098525000     0.912088759731    -1.267513625521     1.007825032070
           C          3.113331346392     1.451414884157     0.209768701000    12.000000000000
           H          4.000036720283     1.989047980618    -0.125253821237     1.007825032070
           H          3.105031683379     1.466410486853     1.301016254948     1.007825032070
           H          2.241924666286     2.004909024232    -0.137873580955     1.007825032070
           C         -2.388056133889     0.579966880979     0.260559759366    12.000000000000
           H         -2.324923622070     0.596781955590     1.352520905414     1.007825032070
           H         -1.707367789375     1.352296348487    -0.102576142236     1.007825032070
           C          3.110733497680     0.016620659381    -0.307186976293    12.000000000000
           H          3.080881432287     0.020129492391    -1.400314292180     1.007825032070
           H          4.048283331281    -0.467393979741    -0.024746647108     1.007825032070
           C         -1.937449043325    -0.787340394443    -0.241737569066    12.000000000000
           H         -1.939960460880    -0.785963678968    -1.336780222940     1.007825032070
           H         -2.675781220056    -1.533034058134     0.067677522268     1.007825032070
           C         -0.558205542368    -1.208801731613     0.258836973088    12.000000000000
           H         -0.355749060334    -2.234047154642    -0.064206223034     1.007825032070
           H         -0.561292887385    -1.224314819156     1.353699006259     1.007825032070
           C          0.575413702093    -0.310833360039    -0.224575184265    12.000000000000
           H          0.550370016093    -0.256845832470    -1.318872763604     1.007825032070
           H          0.420240276839     0.704973159993     0.142826839975     1.007825032070
           C          1.943646377109    -0.814196653141     0.221372784592    12.000000000000
           H          1.980169299235    -0.830686649833     1.315738716280     1.007825032070
           H          2.060742606809    -1.850575659295    -0.108099086337     1.007825032070

  Nuclear repulsion =  387.382181637736494
  Reference energy  = -313.543985603104943

  ==> Basis Set <==

  Basis Set: AUG-CC-PVTZ
    Number of shells: 274
    Number of basis function: 782
    Number of Cartesian functions: 890
    Spherical Harmonics?: true
    Max angular momentum: 3

  ==> CGRSolver (by Rob Parrish) <==

   Number of roots    =         1
   Preconditioning    =    JACOBI
   Convergence cutoff =     1E-06
   Maximum iterations =       100

  ==> CPHFRHamiltonian (by Rob Parrish) <== 

  ==> DFJK: Density-Fitted J/K Matrices <==

    J tasked:                  Yes
    K tasked:                  Yes
    wK tasked:                  No
    OpenMP threads:             12
    Integrals threads:          12
    Memory (MB):             42915
    Algorithm:                Core
    Integral Cache:           NONE
    Schwarz Cutoff:          1E-12
    Fitting Condition:       1E-12

   => Auxiliary Basis Set <=

  Basis Set: 
    Number of shells: 492
    Number of basis function: 1660
    Number of Cartesian functions: 2038
    Spherical Harmonics?: true
    Max angular momentum: 4

  ==> CPHF Iterations <==

  => Iterations <=

             Iter  Converged  Remaining    Residual
  CGR           1          0          1   8.944E-02
  CGR           2          0          1   1.264E-02
  CGR           3          0          1   3.389E-03
  CGR           4          0          1   8.079E-04
  CGR           5          0          1   1.648E-04
  CGR           6          0          1   3.897E-05
  CGR           7          0          1   1.047E-05
  CGR           8          0          1   2.736E-06
  CGR           9          1          0   6.827E-07

    CGRSolver converged.

  ==> DFCorrGrad: Density-Fitted Correlated Gradients <==

    OpenMP threads:             12
    Integrals threads:          12
    Memory (MB):             42915
    Schwarz Cutoff:          0E+00
    Fitting Condition:       1E-12

   => Auxiliary Basis Set <=

  Basis Set: 
    Number of shells: 492
    Number of basis function: 1660
    Number of Cartesian functions: 2038
    Spherical Harmonics?: true
    Max angular momentum: 4

	-----------------------------------------------------------
	 ==================> DF-MP2 Energies <==================== 
	-----------------------------------------------------------
	 Reference Energy          =    -313.5439856031049430 [Eh]
	 Singles Energy            =      -0.0000000000000000 [Eh]
	 Same-Spin Energy          =      -0.3155055042845538 [Eh]
	 Opposite-Spin Energy      =      -1.1242615679266013 [Eh]
	 Correlation Energy        =      -1.4397670722111551 [Eh]
	 Total Energy              =    -314.9837526753161114 [Eh]
	-----------------------------------------------------------
	 ================> DF-SCS-MP2 Energies <================== 
	-----------------------------------------------------------
	 SCS Same-Spin Scale       =       0.3333333333333333 [-]
	 SCS Opposite-Spin Scale   =       1.2000000000000000 [-]
	 SCS Same-Spin Energy      =      -0.1051685014281846 [Eh]
	 SCS Opposite-Spin Energy  =      -1.3491138815119215 [Eh]
	 SCS Correlation Energy    =      -1.4542823829401061 [Eh]
	 SCS Total Energy          =    -314.9982679860450503 [Eh]
	-----------------------------------------------------------


  -Total Gradient:
     Atom            X                  Y                   Z
    ------   -----------------  -----------------  -----------------
       1       -0.000000201252    -0.000000133258     0.000000112022
       2        0.000000010355    -0.000000047904     0.000000020871
       3       -0.000000014962     0.000000078343    -0.000000053554
       4        0.000000105340    -0.000000009231     0.000000132661
       5       -0.000000427703    -0.000000173568    -0.000000080743
       6       -0.000000001704     0.000000015285    -0.000000112896
       7        0.000000058033    -0.000000068550    -0.000000027919
       8       -0.000000597831     0.000000056543     0.000000016934
       9       -0.000000113600     0.000000221901    -0.000000079212
      10       -0.000000011774     0.000000020388    -0.000000003404
      11       -0.000000431298    -0.000000257305    -0.000000030289
      12        0.000000192721    -0.000000283787     0.000000743800
      13       -0.000000166605    -0.000000084004     0.000000092320
      14        0.000000119880    -0.000000150785     0.000000069967
      15       -0.000000112014    -0.000000010605    -0.000000707482
      16       -0.000000123898     0.000000063674     0.000000106202
      17        0.000000184147     0.000000266033    -0.000000118984
      18       -0.000000070780     0.000000118484     0.000000983091
      19        0.000000044467     0.000000410930     0.000000056191
      20        0.000000084215    -0.000000139167     0.000000038432
      21        0.000000230835     0.000000177271    -0.000000319282
      22        0.000000038204     0.000000061251    -0.000000053150
      23        0.000000477807     0.000000120706     0.000000045442
      24        0.000000426493    -0.000000075336    -0.000000693571
      25        0.000000147650     0.000000114128    -0.000000020322
      26        0.000000153278    -0.000000291437    -0.000000117124


			-----------------------------------------
			 OPTKING 2.0: for geometry optimizations 
			  - R.A. King,  Bethel University        
			-----------------------------------------

	Internal coordinates to be generated automatically.
	Detected frag 1 with atoms:  1 2 3 4 5 6 7 8 9 10 11 12 13 14 15 16 17 18 19 20
	 21 22 23 24 25 26
	---Fragment 1 Bond Connectivity---
	 1 : 2 3 4 9
	 2 : 1
	 3 : 1
	 4 : 1
	 5 : 6 7 8 12
	 6 : 5
	 7 : 5
	 8 : 5
	 9 : 1 10 11 15
	 10 : 9
	 11 : 9
	 12 : 5 13 14 24
	 13 : 12
	 14 : 12
	 15 : 9 16 17 18
	 16 : 15
	 17 : 15
	 18 : 15 19 20 21
	 19 : 18
	 20 : 18
	 21 : 18 22 23 24
	 22 : 21
	 23 : 21
	 24 : 12 21 25 26
	 25 : 24
	 26 : 24

	---Fragment 1 Geometry and Gradient---
	 C          -7.1979854353        1.7222039008       -0.3389647913
	 H          -7.7920438709        3.5739745674        0.3382084045
	 H          -8.5307728507        0.3244769831        0.3809214822
	 H          -7.3417722115        1.7235979648       -2.3952536219
	 C           5.8833436056        2.7427766363        0.3964053961
	 H           7.5589739228        3.7587559485       -0.2366954192
	 H           5.8676595155        2.7711142185        2.4585644163
	 H           4.2366236298        3.7887289771       -0.2605433090
	 C          -4.5127720830        1.0959785712        0.4923865865
	 H          -4.3934689256        1.1277544571        2.5558941002
	 H          -3.2264575300        2.5554697491       -0.1938408166
	 C           5.8784343830        0.0314084944       -0.5804992568
	 H           5.8220221549        0.0380392278       -2.6462105122
	 H           7.6501468044       -0.8832466179       -0.0467643857
	 C          -3.6612480883       -1.4878577189       -0.4568178016
	 H          -3.6659939797       -1.4852561036       -2.5261485212
	 H          -5.0564936974       -2.8970145223        0.1278919824
	 C          -1.0548556009       -2.2843042217        0.4891309922
	 H          -0.6722682961       -4.2217372902       -0.1213321776
	 H          -1.0606898375       -2.3136197086        2.5581203882
	 C           1.0873743101       -0.5873899234       -0.4243855945
	 H           1.0400486022       -0.4853682817       -2.4923083273
	 H           0.7941390332        1.3322062034        0.2699036120
	 C           3.6729593519       -1.5386086927        0.4183339362
	 H           3.7419776723       -1.5697702704        2.4863858362
	 H           3.8942391572       -3.4970811843       -0.2042776684
	            -0.0000002013       -0.0000001333        0.0000001120
	             0.0000000104       -0.0000000479        0.0000000209
	            -0.0000000150        0.0000000783       -0.0000000536
	             0.0000001053       -0.0000000092        0.0000001327
	            -0.0000004277       -0.0000001736       -0.0000000807
	            -0.0000000017        0.0000000153       -0.0000001129
	             0.0000000580       -0.0000000686       -0.0000000279
	            -0.0000005978        0.0000000565        0.0000000169
	            -0.0000001136        0.0000002219       -0.0000000792
	            -0.0000000118        0.0000000204       -0.0000000034
	            -0.0000004313       -0.0000002573       -0.0000000303
	             0.0000001927       -0.0000002838        0.0000007438
	            -0.0000001666       -0.0000000840        0.0000000923
	             0.0000001199       -0.0000001508        0.0000000700
	            -0.0000001120       -0.0000000106       -0.0000007075
	            -0.0000001239        0.0000000637        0.0000001062
	             0.0000001841        0.0000002660       -0.0000001190
	            -0.0000000708        0.0000001185        0.0000009831
	             0.0000000445        0.0000004109        0.0000000562
	             0.0000000842       -0.0000001392        0.0000000384
	             0.0000002308        0.0000001773       -0.0000003193
	             0.0000000382        0.0000000613       -0.0000000532
	             0.0000004778        0.0000001207        0.0000000454
	             0.0000004265       -0.0000000753       -0.0000006936
	             0.0000001476        0.0000001141       -0.0000000203
	             0.0000001533       -0.0000002914       -0.0000001171

	Previous optimization step data not found.  Starting new optimization.

	---Fragment 1 Intrafragment Coordinates---
	 - Coordinate -           - BOHR/RAD -       - ANG/DEG -
	 R(1,2)           =         2.059253	       1.089710
	 R(1,3)           =         2.061116	       1.090696
	 R(1,4)           =         2.061310	       1.090798
	 R(1,9)           =         2.879874	       1.523964
	 R(5,6)           =         2.059312	       1.089741
	 R(5,7)           =         2.062413	       1.091382
	 R(5,8)           =         2.058467	       1.089294
	 R(5,12)          =         2.881993	       1.525085
	 R(9,10)          =         2.067198	       1.093914
	 R(9,11)          =         2.062917	       1.091649
	 R(9,15)          =         2.881370	       1.524755
	 R(12,13)         =         2.066492	       1.093540
	 R(12,14)         =         2.064081	       1.092265
	 R(12,24)         =         2.885609	       1.526999
	 R(15,16)         =         2.069338	       1.095046
	 R(15,17)         =         2.067443	       1.094043
	 R(15,18)         =         2.884862	       1.526603
	 R(18,19)         =         2.067047	       1.093834
	 R(18,20)         =         2.069205	       1.094976
	 R(18,21)         =         2.881524	       1.524837
	 R(21,22)         =         2.070979	       1.095915
	 R(21,23)         =         2.062250	       1.091296
	 R(21,24)         =         2.881014	       1.524567
	 R(24,25)         =         2.069438	       1.095099
	 R(24,26)         =         2.066936	       1.093775
	 B(1,9,10)        =         1.916257	     109.793428
	 B(1,9,11)        =         1.908714	     109.361280
	 B(1,9,15)        =         1.955677	     112.052036
	 B(2,1,3)         =         1.884324	     107.963797
	 B(2,1,4)         =         1.883163	     107.897297
	 B(2,1,9)         =         1.949367	     111.690519
	 B(3,1,4)         =         1.879446	     107.684297
	 B(3,1,9)         =         1.933324	     110.771302
	 B(4,1,9)         =         1.931743	     110.680728
	 B(5,12,13)       =         1.913323	     109.625337
	 B(5,12,14)       =         1.904750	     109.134152
	 B(5,12,24)       =         1.977783	     113.318600
	 B(6,5,7)         =         1.882630	     107.866748
	 B(6,5,8)         =         1.877717	     107.585246
	 B(6,5,12)        =         1.940486	     111.181637
	 B(7,5,8)         =         1.881827	     107.820753
	 B(7,5,12)        =         1.930333	     110.599913
	 B(8,5,12)        =         1.948188	     111.622933
	 B(9,15,16)       =         1.904582	     109.124496
	 B(9,15,17)       =         1.895051	     108.578431
	 B(9,15,18)       =         1.989472	     113.988347
	 B(10,9,11)       =         1.860005	     106.570440
	 B(10,9,15)       =         1.902409	     109.000032
	 B(11,9,15)       =         1.918325	     109.911923
	 B(12,24,21)      =         1.987817	     113.893516
	 B(12,24,25)      =         1.905631	     109.184642
	 B(12,24,26)      =         1.906510	     109.235005
	 B(13,12,14)      =         1.858070	     106.459544
	 B(13,12,24)      =         1.903811	     109.080337
	 B(14,12,24)      =         1.902268	     108.991902
	 B(15,18,19)      =         1.906199	     109.217171
	 B(15,18,20)      =         1.906285	     109.222085
	 B(15,18,21)      =         1.987929	     113.899927
	 B(16,15,17)      =         1.856806	     106.387138
	 B(16,15,18)      =         1.907438	     109.288134
	 B(17,15,18)      =         1.905843	     109.196738
	 B(18,21,22)      =         1.905595	     109.182565
	 B(18,21,23)      =         1.913162	     109.616104
	 B(18,21,24)      =         1.960631	     112.335864
	 B(19,18,20)      =         1.857240	     106.412032
	 B(19,18,21)      =         1.897306	     108.707613
	 B(20,18,21)      =         1.904381	     109.112968
	 B(21,24,25)      =         1.904151	     109.099823
	 B(21,24,26)      =         1.897382	     108.711958
	 B(22,21,23)      =         1.861958	     106.682320
	 B(22,21,24)      =         1.905882	     109.198976
	 B(23,21,24)      =         1.913954	     109.661507
	 B(25,24,26)      =         1.857909	     106.450351
	 D(1,9,15,16)     =         1.078245	      61.778885
	 D(1,9,15,17)     =        -0.938790	     -53.788680
	 D(1,9,15,18)     =        -3.067304	    -175.743568
	 D(2,1,9,10)      =         1.029357	      58.977830
	 D(2,1,9,11)      =        -1.005670	     -57.620622
	 D(2,1,9,15)      =        -3.137224	    -179.749694
	 D(3,1,9,10)      =        -1.071814	     -61.410410
	 D(3,1,9,11)      =        -3.106841	    -178.008862
	 D(3,1,9,15)      =         1.044790	      59.862066
	 D(4,1,9,10)      =         3.127978	     179.219962
	 D(4,1,9,11)      =         1.092952	      62.621510
	 D(4,1,9,15)      =        -1.038603	     -59.507562
	 D(5,12,24,21)    =         1.114082	      63.832191
	 D(5,12,24,25)    =        -1.018936	     -58.380723
	 D(5,12,24,26)    =        -3.044180	    -174.418680
	 D(6,5,12,13)     =        -1.087614	     -62.315691
	 D(6,5,12,14)     =         0.941142	      53.923480
	 D(6,5,12,24)     =         3.064251	     175.568669
	 D(7,5,12,13)     =         3.104449	     177.871853
	 D(7,5,12,14)     =        -1.149980	     -65.888976
	 D(7,5,12,24)     =         0.973129	      55.756213
	 D(8,5,12,13)     =         1.009261	      57.826393
	 D(8,5,12,14)     =         3.038017	     174.065565
	 D(8,5,12,24)     =        -1.122059	     -64.289247
	 D(9,15,18,19)    =         3.044815	     174.455072
	 D(9,15,18,20)    =         1.020180	      58.452033
	 D(9,15,18,21)    =        -1.113697	     -63.810158
	 D(10,9,15,16)    =        -3.080380	    -176.492787
	 D(10,9,15,17)    =         1.185771	      67.939648
	 D(10,9,15,18)    =        -0.942744	     -54.015240
	 D(11,9,15,16)    =        -1.047816	     -60.035418
	 D(11,9,15,17)    =        -3.064850	    -175.602983
	 D(11,9,15,18)    =         1.089821	      62.442129
	 D(12,24,21,18)   =         3.086653	     176.852172
	 D(12,24,21,22)   =         0.969917	      55.572152
	 D(12,24,21,23)   =        -1.064519	     -60.992456
	 D(13,12,24,21)   =        -1.022530	     -58.586632
	 D(13,12,24,25)   =         3.127638	     179.200454
	 D(13,12,24,26)   =         1.102394	      63.162497
	 D(14,12,24,21)   =        -3.044604	    -174.442984
	 D(14,12,24,25)   =         1.105563	      63.344102
	 D(14,12,24,26)   =        -0.919681	     -52.693856
	 D(15,18,21,22)   =        -0.960630	     -55.040041
	 D(15,18,21,23)   =         1.073193	      61.489407
	 D(15,18,21,24)   =        -3.077530	    -176.329461
	 D(16,15,18,19)   =        -1.102299	     -63.157093
	 D(16,15,18,20)   =        -3.126934	    -179.160132
	 D(16,15,18,21)   =         1.022373	      58.577677
	 D(17,15,18,19)   =         0.922260	      52.841582
	 D(17,15,18,20)   =        -1.102375	     -63.161456
	 D(17,15,18,21)   =         3.046932	     174.576352
	 D(18,21,24,25)   =        -1.062700	     -60.888227
	 D(18,21,24,26)   =         0.956686	      54.814064
	 D(19,18,21,22)   =         1.168957	      66.976277
	 D(19,18,21,23)   =        -3.080406	    -176.494275
	 D(19,18,21,24)   =        -0.947943	     -54.313143
	 D(20,18,21,22)   =        -3.095555	    -177.362248
	 D(20,18,21,23)   =        -1.061733	     -60.832800
	 D(20,18,21,24)   =         1.070730	      61.348332
	 D(22,21,24,25)   =         3.103750	     177.831753
	 D(22,21,24,26)   =        -1.160050	     -66.465956
	 D(23,21,24,25)   =         1.069313	      61.267145
	 D(23,21,24,26)   =         3.088699	     176.969436

	Current energy   :      -314.9837526753

	Generating empirical Hessian (Schlegel '84) for each fragment.
	Taking RFO optimization step.
	Going to follow RFO solution 1.
	Using RFO vector 1.
	Norm of target step-size    0.00053
	Projected energy change by RFO approximation:        -0.0000000009

	Back-transformation to cartesian coordinates...
	Successfully converged to displaced geometry.

	--- Internal Coordinate Step in ANG or DEG, aJ/ANG or AJ/DEG ---
	 ---------------------------------------------------------------------------
	   Coordinate                Previous        Force       Change         New 
	   ----------                --------       ------       ------       ------
	    1 R(1,2)          =      1.089710     0.000000     0.000000     1.089710
	    2 R(1,3)          =      1.090696     0.000000     0.000000     1.090696
	    3 R(1,4)          =      1.090798     0.000001     0.000000     1.090799
	    4 R(1,9)          =      1.523964    -0.000000    -0.000000     1.523964
	    5 R(5,6)          =      1.089741    -0.000000    -0.000000     1.089741
	    6 R(5,7)          =      1.091382     0.000000     0.000000     1.091382
	    7 R(5,8)          =      1.089294    -0.000004    -0.000001     1.089293
	    8 R(5,12)         =      1.525085     0.000002     0.000000     1.525085
	    9 R(9,10)         =      1.093914     0.000000     0.000000     1.093914
	   10 R(9,11)         =      1.091649     0.000004     0.000001     1.091649
	   11 R(9,15)         =      1.524755    -0.000001    -0.000000     1.524755
	   12 R(12,13)        =      1.093540     0.000001     0.000000     1.093541
	   13 R(12,14)        =      1.092265    -0.000002    -0.000000     1.092265
	   14 R(12,24)        =      1.526999     0.000010     0.000002     1.527001
	   15 R(15,16)        =      1.095046     0.000001     0.000000     1.095047
	   16 R(15,17)        =      1.094043     0.000003     0.000001     1.094044
	   17 R(15,18)        =      1.526603    -0.000007    -0.000002     1.526602
	   18 R(18,19)        =      1.093834     0.000003     0.000001     1.093835
	   19 R(18,20)        =      1.094976    -0.000000    -0.000000     1.094976
	   20 R(18,21)        =      1.524837    -0.000002    -0.000001     1.524836
	   21 R(21,22)        =      1.095915    -0.000000    -0.000000     1.095915
	   22 R(21,23)        =      1.091296    -0.000000    -0.000000     1.091295
	   23 R(21,24)        =      1.524567    -0.000001    -0.000000     1.524567
	   24 R(24,25)        =      1.095099     0.000000     0.000000     1.095099
	   25 R(24,26)        =      1.093775    -0.000003    -0.000001     1.093775
	   26 B(1,9,10)       =    109.793428     0.000000     0.000075   109.793503
	   27 B(1,9,11)       =    109.361280     0.000000     0.000007   109.361286
	   28 B(1,9,15)       =    112.052036     0.000000     0.000034   112.052070
	   29 B(2,1,3)        =    107.963797     0.000000     0.000006   107.963803
	   30 B(2,1,4)        =    107.897297    -0.000000    -0.000012   107.897285
	   31 B(2,1,9)        =    111.690519     0.000000     0.000005   111.690524
	   32 B(3,1,4)        =    107.684297    -0.000000    -0.000007   107.684290
	   33 B(3,1,9)        =    110.771302    -0.000000    -0.000054   110.771248
	   34 B(4,1,9)        =    110.680728     0.000000     0.000061   110.680789
	   35 B(5,12,13)      =    109.625337    -0.000000     0.000156   109.625493
	   36 B(5,12,14)      =    109.134152    -0.000000    -0.000433   109.133719
	   37 B(5,12,24)      =    113.318600     0.000000     0.000456   113.319056
	   38 B(6,5,7)        =    107.866748    -0.000000    -0.000041   107.866707
	   39 B(6,5,8)        =    107.585246    -0.000000    -0.000087   107.585159
	   40 B(6,5,12)       =    111.181637    -0.000000    -0.000039   111.181598
	   41 B(7,5,8)        =    107.820753    -0.000000     0.000039   107.820793
	   42 B(7,5,12)       =    110.599913     0.000000     0.000049   110.599961
	   43 B(8,5,12)       =    111.622933     0.000000     0.000074   111.623007
	   44 B(9,15,16)      =    109.124496     0.000000    -0.000104   109.124392
	   45 B(9,15,17)      =    108.578431     0.000000     0.000319   108.578750
	   46 B(9,15,18)      =    113.988347    -0.000000    -0.000329   113.988018
	   47 B(10,9,11)      =    106.570440    -0.000000    -0.000061   106.570379
	   48 B(10,9,15)      =    109.000032    -0.000000     0.000004   109.000036
	   49 B(11,9,15)      =    109.911923    -0.000000    -0.000063   109.911860
	   50 B(12,24,21)     =    113.893516     0.000000     0.000424   113.893940
	   51 B(12,24,25)     =    109.184642    -0.000000     0.000253   109.184895
	   52 B(12,24,26)     =    109.235005    -0.000000    -0.000309   109.234696
	   53 B(13,12,14)     =    106.459544     0.000000    -0.000129   106.459415
	   54 B(13,12,24)     =    109.080337    -0.000000     0.000248   109.080586
	   55 B(14,12,24)     =    108.991902    -0.000000    -0.000336   108.991566
	   56 B(15,18,19)     =    109.217171     0.000000     0.000299   109.217470
	   57 B(15,18,20)     =    109.222085     0.000000    -0.000234   109.221851
	   58 B(15,18,21)     =    113.899927    -0.000000    -0.000342   113.899585
	   59 B(16,15,17)     =    106.387138    -0.000000     0.000084   106.387222
	   60 B(16,15,18)     =    109.288134     0.000000    -0.000205   109.287929
	   61 B(17,15,18)     =    109.196738     0.000000     0.000266   109.197004
	   62 B(18,21,22)     =    109.182565    -0.000000    -0.000117   109.182448
	   63 B(18,21,23)     =    109.616104    -0.000000    -0.000105   109.615999
	   64 B(18,21,24)     =    112.335864    -0.000000    -0.000009   112.335855
	   65 B(19,18,20)     =    106.412032    -0.000000     0.000093   106.412125
	   66 B(19,18,21)     =    108.707613     0.000000     0.000417   108.708030
	   67 B(20,18,21)     =    109.112968     0.000000    -0.000202   109.112766
	   68 B(21,24,25)     =    109.099823    -0.000000     0.000153   109.099976
	   69 B(21,24,26)     =    108.711958    -0.000000    -0.000443   108.711515
	   70 B(22,21,23)     =    106.682320     0.000000     0.000007   106.682327
	   71 B(22,21,24)     =    109.198976     0.000000     0.000032   109.199008
	   72 B(23,21,24)     =    109.661507     0.000000     0.000192   109.661700
	   73 B(25,24,26)     =    106.450351     0.000000    -0.000115   106.450236
	   74 D(1,9,15,16)    =     61.778885     0.000000    -0.003088    61.775796
	   75 D(1,9,15,17)    =    -53.788680    -0.000000    -0.003306   -53.791986
	   76 D(1,9,15,18)    =   -175.743568    -0.000000    -0.003660  -175.747228
	   77 D(2,1,9,10)     =     58.977830    -0.000000     0.000272    58.978103
	   78 D(2,1,9,11)     =    -57.620622    -0.000000     0.000299   -57.620323
	   79 D(2,1,9,15)     =   -179.749694     0.000000     0.000352  -179.749342
	   80 D(3,1,9,10)     =    -61.410410     0.000000     0.000298   -61.410112
	   81 D(3,1,9,11)     =   -178.008862     0.000000     0.000325  -178.008537
	   82 D(3,1,9,15)     =     59.862066     0.000000     0.000378    59.862444
	   83 D(4,1,9,10)     =    179.219962     0.000000     0.000303   179.220265
	   84 D(4,1,9,11)     =     62.621510     0.000000     0.000330    62.621839
	   85 D(4,1,9,15)     =    -59.507562     0.000000     0.000382   -59.507179
	   86 D(5,12,24,21)   =     63.832191     0.000000     0.007117    63.839308
	   87 D(5,12,24,25)   =    -58.380723     0.000000     0.006439   -58.374285
	   88 D(5,12,24,26)   =   -174.418680     0.000000     0.006608  -174.412073
	   89 D(6,5,12,13)    =    -62.315691     0.000000    -0.003063   -62.318754
	   90 D(6,5,12,14)    =     53.923480    -0.000000    -0.003377    53.920104
	   91 D(6,5,12,24)    =    175.568669    -0.000000    -0.003812   175.564856
	   92 D(7,5,12,13)    =    177.871853     0.000000    -0.003018   177.868835
	   93 D(7,5,12,14)    =    -65.888976    -0.000000    -0.003332   -65.892308
	   94 D(7,5,12,24)    =     55.756213    -0.000000    -0.003768    55.752445
	   95 D(8,5,12,13)    =     57.826393     0.000000    -0.003150    57.823243
	   96 D(8,5,12,14)    =    174.065565    -0.000000    -0.003464   174.062101
	   97 D(8,5,12,24)    =    -64.289247    -0.000000    -0.003900   -64.293146
	   98 D(9,15,18,19)   =    174.455072     0.000000     0.004596   174.459668
	   99 D(9,15,18,20)   =     58.452033     0.000000     0.004448    58.456481
	  100 D(9,15,18,21)   =    -63.810158     0.000000     0.005120   -63.805038
	  101 D(10,9,15,16)   =   -176.492787     0.000000    -0.002969  -176.495756
	  102 D(10,9,15,17)   =     67.939648    -0.000000    -0.003186    67.936462
	  103 D(10,9,15,18)   =    -54.015240    -0.000000    -0.003540   -54.018780
	  104 D(11,9,15,16)   =    -60.035418     0.000000    -0.003076   -60.038494
	  105 D(11,9,15,17)   =   -175.602983    -0.000000    -0.003293  -175.606276
	  106 D(11,9,15,18)   =     62.442129    -0.000000    -0.003647    62.438482
	  107 D(12,24,21,18)  =    176.852172    -0.000000    -0.003650   176.848522
	  108 D(12,24,21,22)  =     55.572152    -0.000000    -0.003518    55.568634
	  109 D(12,24,21,23)  =    -60.992456    -0.000000    -0.003654   -60.996110
	  110 D(13,12,24,21)  =    -58.586632     0.000000     0.006424   -58.580208
	  111 D(13,12,24,25)  =    179.200454    -0.000000     0.005745   179.206199
	  112 D(13,12,24,26)  =     63.162497    -0.000000     0.005914    63.168411
	  113 D(14,12,24,21)  =   -174.442984     0.000000     0.006627  -174.436357
	  114 D(14,12,24,25)  =     63.344102    -0.000000     0.005948    63.350050
	  115 D(14,12,24,26)  =    -52.693856     0.000000     0.006117   -52.687738
	  116 D(15,18,21,22)  =    -55.040041    -0.000000    -0.003292   -55.043333
	  117 D(15,18,21,23)  =     61.489407    -0.000000    -0.003411    61.485996
	  118 D(15,18,21,24)  =   -176.329461    -0.000000    -0.003246  -176.332707
	  119 D(16,15,18,19)  =    -63.157093    -0.000000     0.004079   -63.153015
	  120 D(16,15,18,20)  =   -179.160132    -0.000000     0.003930  -179.156202
	  121 D(16,15,18,21)  =     58.577677     0.000000     0.004603    58.582280
	  122 D(17,15,18,19)  =     52.841582     0.000000     0.004214    52.845796
	  123 D(17,15,18,20)  =    -63.161456    -0.000000     0.004066   -63.157391
	  124 D(17,15,18,21)  =    174.576352     0.000000     0.004738   174.581091
	  125 D(18,21,24,25)  =    -60.888227     0.000000    -0.002917   -60.891145
	  126 D(18,21,24,26)  =     54.814064    -0.000000    -0.003213    54.810850
	  127 D(19,18,21,22)  =     66.976277    -0.000000    -0.002833    66.973445
	  128 D(19,18,21,23)  =   -176.494275    -0.000000    -0.002952  -176.497227
	  129 D(19,18,21,24)  =    -54.313143    -0.000000    -0.002787   -54.315930
	  130 D(20,18,21,22)  =   -177.362248     0.000000    -0.002603  -177.364851
	  131 D(20,18,21,23)  =    -60.832800     0.000000    -0.002722   -60.835523
	  132 D(20,18,21,24)  =     61.348332     0.000000    -0.002557    61.345774
	  133 D(22,21,24,25)  =    177.831753     0.000000    -0.002786   177.828967
	  134 D(22,21,24,26)  =    -66.465956    -0.000000    -0.003082   -66.469038
	  135 D(23,21,24,25)  =     61.267145     0.000000    -0.002921    61.264223
	  136 D(23,21,24,26)  =    176.969436    -0.000000    -0.003217   176.966218
	 ---------------------------------------------------------------------------

  ==> Convergence Check <==

  Measures of convergence in internal coordinates in au.
  Criteria marked as inactive (o), active & met (*), and active & unmet ( ).
  --------------------------------------------------------------------------------------------- ~
   Step     Total Energy     Delta E     MAX Force     RMS Force      MAX Disp      RMS Disp    ~
  --------------------------------------------------------------------------------------------- ~
    Convergence Criteria             o    2.00e-06 *    1.00e-06 *    6.00e-06 *    4.00e-06 *  ~
  --------------------------------------------------------------------------------------------- ~
      1    -314.98375268   -3.15e+02 o    1.54e-06 *    3.53e-07 *    1.24e-04      4.54e-05    ~
  ---------------------------------------------------------------------------------------------

	Writing optimization data to binary file.
	Structure for next step:
	Cartesian Geometry (in Angstrom)
	    C    -3.8089706211   0.9113717446  -0.1793982190
	    H    -4.1232978962   1.8913065137   0.1789226950
	    H    -4.5142854646   0.1717623502   0.2015558581
	    H    -3.8850466018   0.9120904429  -1.2675405166
	    C     3.1133790358   1.4514337352   0.2097917203
	    H     4.0001119687   1.9890276395  -0.1252205496
	    H     3.1050916063   1.4663917750   1.3010399269
	    H     2.2420023616   2.0049911322  -0.1378226634
	    C    -2.3880359560   0.5799389692   0.2605588190
	    H    -2.3249165095   0.5967683055   1.3525205067
	    H    -1.7073119807   1.3522368525  -0.1025794959
	    C     3.1106944352   0.0166577447  -0.3072152921
	    H     3.0807769496   0.0202038892  -1.4003408348
	    H     4.0482469910  -0.4673946035  -0.0248497415
	    C    -1.9374738518  -0.7873926366  -0.2417120821
	    H    -1.9400230386  -0.7860473461  -1.3367548510
	    H    -2.6758058164  -1.5330671123   0.0677516006
	    C    -0.5582168412  -1.2088528731   0.2588213062
	    H    -0.3557469257  -2.2340840419  -0.0642607554
	    H    -0.5612874828  -1.2244022707   1.3536828095
	    C     0.5753733447  -0.3108389575  -0.2245727496
	    H     0.5503417452  -0.2568521552  -1.3188705556
	    H     0.4201513131   0.7049606255   0.1428276501
	    C     1.9436192240  -0.8141491357   0.2213935599
	    H     1.9801481085  -0.8305915392   1.3157600352
	    H     2.0607301447  -1.8505406251  -0.1080321485
			--------------------------
			 OPTKING Finished Execution 
			--------------------------

    Structure for next step:
    Molecular point group: c1
    Full point group: C1

    Geometry (in Angstrom), charge = 0, multiplicity = 1:

    C           -3.808967193245     0.911372972164    -0.179398316884
    H           -4.123294468408     1.891307741253     0.178922597099
    H           -4.514282036765     0.171763577832     0.201555760215
    H           -3.885043173989     0.912091670497    -1.267540614478
    C            3.113382463622     1.451434962792     0.209791622445
    H            4.000115396574     1.989028867130    -0.125220647520
    H            3.105095034118     1.466393002629     1.301039828987
    H            2.242005789415     2.004992359809    -0.137822761297
    C           -2.388032528166     0.579940196842     0.260558721118
    H           -2.324913081708     0.596769533071     1.352520408783
    H           -1.707308552899     1.352238080049    -0.102579593733
    C            3.110697863019     0.016658972315    -0.307215389927
    H            3.080780377460     0.020205116764    -1.400340932631
    H            4.048250418791    -0.467393375929    -0.024849839385
    C           -1.937470424014    -0.787391408967    -0.241712179953
    H           -1.940019610726    -0.786046118495    -1.336754948823
    H           -2.675802388602    -1.533065884702     0.067751502761
    C           -0.558213413374    -1.208851645473     0.258821208325
    H           -0.355743497838    -2.234082814348    -0.064260853258
    H           -0.561284055004    -1.224401043100     1.353682711633
    C            0.575376772560    -0.310837729857    -0.224572847520
    H            0.550345173050    -0.256850927593    -1.318870653434
    H            0.420154740922     0.704961853078     0.142827552207
    C            1.943622651792    -0.814147908085     0.221393462073
    H            1.980151536304    -0.830590311611     1.315759937283
    H            2.060733572544    -1.850539397497    -0.108032246335

gradient() will perform analytic gradient computation.

*** tstart() called on wr40
*** at Tue Sep 20 22:48:25 2016


         ---------------------------------------------------------
                                   SCF
            by Justin Turney, Rob Parrish, and Andy Simmonett
                              RHF Reference
                       12 Threads,  60000 MiB Core
         ---------------------------------------------------------

  ==> Geometry <==

    Molecular point group: c1
    Full point group: C1

    Geometry (in Angstrom), charge = 0, multiplicity = 1:

       Center              X                  Y                   Z               Mass       
    ------------   -----------------  -----------------  -----------------  -----------------
           C         -3.808967193245     0.911372972164    -0.179398316884    12.000000000000
           H         -4.123294468408     1.891307741253     0.178922597099     1.007825032070
           H         -4.514282036765     0.171763577832     0.201555760215     1.007825032070
           H         -3.885043173989     0.912091670497    -1.267540614478     1.007825032070
           C          3.113382463622     1.451434962792     0.209791622445    12.000000000000
           H          4.000115396574     1.989028867130    -0.125220647520     1.007825032070
           H          3.105095034118     1.466393002629     1.301039828987     1.007825032070
           H          2.242005789415     2.004992359809    -0.137822761297     1.007825032070
           C         -2.388032528166     0.579940196842     0.260558721118    12.000000000000
           H         -2.324913081708     0.596769533071     1.352520408783     1.007825032070
           H         -1.707308552899     1.352238080049    -0.102579593733     1.007825032070
           C          3.110697863019     0.016658972315    -0.307215389927    12.000000000000
           H          3.080780377460     0.020205116764    -1.400340932631     1.007825032070
           H          4.048250418791    -0.467393375929    -0.024849839385     1.007825032070
           C         -1.937470424014    -0.787391408967    -0.241712179953    12.000000000000
           H         -1.940019610726    -0.786046118495    -1.336754948823     1.007825032070
           H         -2.675802388602    -1.533065884702     0.067751502761     1.007825032070
           C         -0.558213413374    -1.208851645473     0.258821208325    12.000000000000
           H         -0.355743497838    -2.234082814348    -0.064260853258     1.007825032070
           H         -0.561284055004    -1.224401043100     1.353682711633     1.007825032070
           C          0.575376772560    -0.310837729857    -0.224572847520    12.000000000000
           H          0.550345173050    -0.256850927593    -1.318870653434     1.007825032070
           H          0.420154740922     0.704961853078     0.142827552207     1.007825032070
           C          1.943622651792    -0.814147908085     0.221393462073    12.000000000000
           H          1.980151536304    -0.830590311611     1.315759937283     1.007825032070
           H          2.060733572544    -1.850539397497    -0.108032246335     1.007825032070

  Running in c1 symmetry.

  Rotational constants: A =      0.13524  B =      0.02305  C =      0.02065 [cm^-1]
  Rotational constants: A =   4054.52631  B =    690.87752  C =    619.11631 [MHz]
  Nuclear repulsion =  387.382160882517894

  Charge       = 0
  Multiplicity = 1
  Electrons    = 66
  Nalpha       = 33
  Nbeta        = 33

  ==> Algorithm <==

  SCF Algorithm Type is DF.
  DIIS enabled.
  MOM disabled.
  Fractional occupation disabled.
  Guess Type is READ.
  Energy threshold   = 1.00e-10
  Density threshold  = 1.00e-10
  Integral threshold = 0.00e+00

  ==> Primary Basis <==

  Basis Set: AUG-CC-PVTZ
    Number of shells: 274
    Number of basis function: 782
    Number of Cartesian functions: 890
    Spherical Harmonics?: true
    Max angular momentum: 3

  ==> Pre-Iterations <==

   -------------------------------------------------------
    Irrep   Nso     Nmo     Nalpha   Nbeta   Ndocc  Nsocc
   -------------------------------------------------------
     A        782     782       0       0       0       0
   -------------------------------------------------------
    Total     782     782      33      33      33       0
   -------------------------------------------------------

  ==> Integral Setup <==

  ==> DFJK: Density-Fitted J/K Matrices <==

    J tasked:                  Yes
    K tasked:                  Yes
    wK tasked:                  No
    OpenMP threads:             12
    Integrals threads:          12
    Memory (MB):             42915
    Algorithm:                Core
    Integral Cache:           NONE
    Schwarz Cutoff:          1E-12
    Fitting Condition:       1E-12

   => Auxiliary Basis Set <=

  Basis Set: 
    Number of shells: 492
    Number of basis function: 1660
    Number of Cartesian functions: 2038
    Spherical Harmonics?: true
    Max angular momentum: 4

  Minimum eigenvalue in the overlap matrix is 2.3394769217E-06.
  Using Symmetric Orthogonalization.
  SCF Guess: Reading in previously saved MOs, projecting if necessary.

  Using orbitals from previous SCF, no projection.
  Recomputing DOCC and SOCC from number of alpha and beta electrons from previous calculation.
              A 
    DOCC [    33 ]

  ==> Iterations <==

                           Total Energy        Delta E     RMS |[F,P]|

   @DF-RHF iter   0:  -313.54398940455161   -3.13544e+02   2.08739e-07 
   @DF-RHF iter   1:  -313.54398570313964    3.70141e-06   3.79734e-08 
   @DF-RHF iter   2:  -313.54398570402140   -8.81755e-10   1.27101e-08 DIIS
   @DF-RHF iter   3:  -313.54398570414122   -1.19826e-10   3.39949e-09 DIIS
   @DF-RHF iter   4:  -313.54398570414577   -4.54747e-12   6.90678e-10 DIIS
   @DF-RHF iter   5:  -313.54398570414656   -7.95808e-13   1.99069e-10 DIIS
   @DF-RHF iter   6:  -313.54398570414725   -6.82121e-13   4.27825e-11 DIIS

  ==> Post-Iterations <==

    Orbital Energies (a.u.)
    -----------------------

    Doubly Occupied:                                                      

       1A    -11.212804     2A    -11.212023     3A    -11.210585  
       4A    -11.210228     5A    -11.209976     6A    -11.208670  
       7A    -11.206971     8A    -11.206693     9A     -1.093781  
      10A     -1.061528    11A     -1.009680    12A     -0.947461  
      13A     -0.881114    14A     -0.830070    15A     -0.781074  
      16A     -0.767302    17A     -0.643286    18A     -0.632905  
      19A     -0.606262    20A     -0.593642    21A     -0.579918  
      22A     -0.561832    23A     -0.549357    24A     -0.521895  
      25A     -0.515912    26A     -0.500621    27A     -0.488168  
      28A     -0.475645    29A     -0.464031    30A     -0.458982  
      31A     -0.454009    32A     -0.440336    33A     -0.432749  

    Virtual:                                                              

      34A      0.029929    35A      0.032371    36A      0.034269  
      37A      0.036460    38A      0.044752    39A      0.046656  
      40A      0.049806    41A      0.053669    42A      0.057439  
      43A      0.064894    44A      0.066021    45A      0.069445  
      46A      0.072370    47A      0.079267    48A      0.088702  
      49A      0.092708    50A      0.095156    51A      0.105919  
      52A      0.113133    53A      0.116208    54A      0.116922  
      55A      0.123701    56A      0.125967    57A      0.132440  
      58A      0.135392    59A      0.136172    60A      0.140089  
      61A      0.145953    62A      0.150937    63A      0.155637  
      64A      0.156616    65A      0.158540    66A      0.161946  
      67A      0.162796    68A      0.164597    69A      0.169279  
      70A      0.174309    71A      0.179016    72A      0.186913  
      73A      0.193393    74A      0.197035    75A      0.199062  
      76A      0.207519    77A      0.214756    78A      0.222574  
      79A      0.224011    80A      0.236592    81A      0.237455  
      82A      0.243181    83A      0.253961    84A      0.260369  
      85A      0.263545    86A      0.275217    87A      0.276836  
      88A      0.279749    89A      0.282256    90A      0.290528  
      91A      0.298196    92A      0.303074    93A      0.303694  
      94A      0.307890    95A      0.318259    96A      0.322894  
      97A      0.325438    98A      0.327457    99A      0.330418  
     100A      0.334698   101A      0.337589   102A      0.343454  
     103A      0.349165   104A      0.355360   105A      0.356420  
     106A      0.358820   107A      0.361758   108A      0.364347  
     109A      0.366123   110A      0.368126   111A      0.372699  
     112A      0.374153   113A      0.378814   114A      0.387705  
     115A      0.390892   116A      0.397033   117A      0.400525  
     118A      0.401514   119A      0.404443   120A      0.406462  
     121A      0.408111   122A      0.411687   123A      0.421019  
     124A      0.428346   125A      0.431900   126A      0.433675  
     127A      0.437244   128A      0.440782   129A      0.441613  
     130A      0.445780   131A      0.451339   132A      0.453718  
     133A      0.457774   134A      0.461766   135A      0.464219  
     136A      0.474868   137A      0.476270   138A      0.481005  
     139A      0.482255   140A      0.484119   141A      0.485972  
     142A      0.491610   143A      0.493638   144A      0.499985  
     145A      0.504194   146A      0.505934   147A      0.509307  
     148A      0.512341   149A      0.513257   150A      0.518670  
     151A      0.523758   152A      0.529933   153A      0.532182  
     154A      0.534492   155A      0.540929   156A      0.541402  
     157A      0.548535   158A      0.552671   159A      0.559189  
     160A      0.565232   161A      0.566430   162A      0.573732  
     163A      0.575031   164A      0.578520   165A      0.582375  
     166A      0.587215   167A      0.592181   168A      0.598087  
     169A      0.606445   170A      0.607613   171A      0.615426  
     172A      0.617063   173A      0.625011   174A      0.627874  
     175A      0.632300   176A      0.641868   177A      0.646500  
     178A      0.652591   179A      0.654389   180A      0.659835  
     181A      0.662612   182A      0.667700   183A      0.681720  
     184A      0.684209   185A      0.688259   186A      0.692888  
     187A      0.699264   188A      0.706306   189A      0.713469  
     190A      0.719054   191A      0.721402   192A      0.728951  
     193A      0.731913   194A      0.747240   195A      0.751147  
     196A      0.754775   197A      0.771927   198A      0.775363  
     199A      0.786223   200A      0.794600   201A      0.805143  
     202A      0.807534   203A      0.821774   204A      0.828478  
     205A      0.833221   206A      0.837210   207A      0.840113  
     208A      0.853174   209A      0.854988   210A      0.859770  
     211A      0.860975   212A      0.864610   213A      0.873546  
     214A      0.880603   215A      0.882016   216A      0.889102  
     217A      0.892393   218A      0.894532   219A      0.896548  
     220A      0.905436   221A      0.910143   222A      0.914250  
     223A      0.915098   224A      0.923576   225A      0.930181  
     226A      0.933717   227A      0.937095   228A      0.941230  
     229A      0.949138   230A      0.952760   231A      0.955093  
     232A      0.964137   233A      0.965906   234A      0.967770  
     235A      0.973900   236A      0.984809   237A      0.991200  
     238A      0.994463   239A      0.997529   240A      1.003273  
     241A      1.006254   242A      1.009712   243A      1.015491  
     244A      1.017975   245A      1.025455   246A      1.034613  
     247A      1.040555   248A      1.043530   249A      1.047916  
     250A      1.060873   251A      1.061693   252A      1.064556  
     253A      1.073094   254A      1.081567   255A      1.085103  
     256A      1.087280   257A      1.092055   258A      1.097820  
     259A      1.106849   260A      1.111495   261A      1.113768  
     262A      1.120730   263A      1.126606   264A      1.131344  
     265A      1.134873   266A      1.142262   267A      1.144373  
     268A      1.149050   269A      1.158557   270A      1.159190  
     271A      1.166564   272A      1.173897   273A      1.174693  
     274A      1.179462   275A      1.185090   276A      1.192418  
     277A      1.199256   278A      1.202143   279A      1.212405  
     280A      1.213758   281A      1.214732   282A      1.220831  
     283A      1.223878   284A      1.234860   285A      1.236785  
     286A      1.243680   287A      1.249107   288A      1.252115  
     289A      1.255599   290A      1.260995   291A      1.267021  
     292A      1.273639   293A      1.278050   294A      1.284588  
     295A      1.292976   296A      1.299079   297A      1.303079  
     298A      1.314213   299A      1.316523   300A      1.321464  
[...]
	 D(20,18,21,23)   =        -1.061744	     -60.833459
	 D(20,18,21,24)   =         1.070720	      61.347747
	 D(22,21,24,25)   =         3.103747	     177.831609
	 D(22,21,24,26)   =        -1.160055	     -66.466256
	 D(23,21,24,25)   =         1.069311	      61.266994
	 D(23,21,24,26)   =         3.088694	     176.969129

	Current energy   :      -314.9837526751

	Energy change for the previous step:
		Projected    :        -0.0000000000
		Actual       :         0.0000000003

	Performing BFGS update.
	Previous computed or guess Hessian on step 1.
	Denominators (dg)(dq) or (dq)(dq) are very small.
	 Skipping Hessian update for step 14.
	Denominators (dg)(dq) or (dq)(dq) are very small.
	 Skipping Hessian update for step 13.
	Denominators (dg)(dq) or (dq)(dq) are very small.
	 Skipping Hessian update for step 12.
	Denominators (dg)(dq) or (dq)(dq) are very small.
	 Skipping Hessian update for step 11.
	Denominators (dg)(dq) or (dq)(dq) are very small.
	 Skipping Hessian update for step 10.
	Denominators (dg)(dq) or (dq)(dq) are very small.
	 Skipping Hessian update for step 9.
	Denominators (dg)(dq) or (dq)(dq) are very small.
	 Skipping Hessian update for step 8.
	Denominators (dg)(dq) or (dq)(dq) are very small.
	 Skipping Hessian update for step 7.
	Denominators (dg)(dq) or (dq)(dq) are very small.
	 Skipping Hessian update for step 6.
	Denominators (dg)(dq) or (dq)(dq) are very small.
	 Skipping Hessian update for step 5.
	Denominators (dg)(dq) or (dq)(dq) are very small.
	 Skipping Hessian update for step 4.
	Denominators (dg)(dq) or (dq)(dq) are very small.
	 Skipping Hessian update for step 3.
	Denominators (dg)(dq) or (dq)(dq) are very small.
	 Skipping Hessian update for step 2.
	Steps to be used in Hessian update: 1
	Taking RFO optimization step.
	Going to follow RFO solution 1.
	Using RFO vector 1.
	Norm of target step-size    0.00002
	Projected energy change by RFO approximation:        -0.0000000000

	Back-transformation to cartesian coordinates...
	Successfully converged to displaced geometry.

	--- Internal Coordinate Step in ANG or DEG, aJ/ANG or AJ/DEG ---
	 ---------------------------------------------------------------------------
	   Coordinate                Previous        Force       Change         New 
	   ----------                --------       ------       ------       ------
	    1 R(1,2)          =      1.089710    -0.000001    -0.000000     1.089710
	    2 R(1,3)          =      1.090695    -0.000001    -0.000000     1.090695
	    3 R(1,4)          =      1.090798    -0.000001    -0.000000     1.090798
	    4 R(1,9)          =      1.523964    -0.000000     0.000000     1.523964
	    5 R(5,6)          =      1.089741    -0.000001     0.000000     1.089741
	    6 R(5,7)          =      1.091382    -0.000001    -0.000000     1.091382
	    7 R(5,8)          =      1.089293    -0.000001    -0.000000     1.089293
	    8 R(5,12)         =      1.525085    -0.000000    -0.000000     1.525085
	    9 R(9,10)         =      1.093914    -0.000001    -0.000000     1.093914
	   10 R(9,11)         =      1.091649    -0.000001    -0.000000     1.091649
	   11 R(9,15)         =      1.524755    -0.000000     0.000000     1.524755
	   12 R(12,13)        =      1.093541    -0.000003    -0.000000     1.093541
	   13 R(12,14)        =      1.092265    -0.000002    -0.000000     1.092265
	   14 R(12,24)        =      1.527000    -0.000000    -0.000000     1.527000
	   15 R(15,16)        =      1.095046    -0.000002    -0.000000     1.095046
	   16 R(15,17)        =      1.094044    -0.000001    -0.000000     1.094043
	   17 R(15,18)        =      1.526603     0.000000     0.000000     1.526603
	   18 R(18,19)        =      1.093835    -0.000002    -0.000000     1.093834
	   19 R(18,20)        =      1.094976    -0.000002    -0.000000     1.094976
	   20 R(18,21)        =      1.524836    -0.000001    -0.000000     1.524836
	   21 R(21,22)        =      1.095915    -0.000003    -0.000000     1.095915
	   22 R(21,23)        =      1.091296    -0.000002    -0.000000     1.091296
	   23 R(21,24)        =      1.524567    -0.000001    -0.000000     1.524567
	   24 R(24,25)        =      1.095100    -0.000002    -0.000000     1.095099
	   25 R(24,26)        =      1.093775    -0.000003    -0.000000     1.093775
	   26 B(1,9,10)       =    109.793477    -0.000000    -0.000012   109.793465
	   27 B(1,9,11)       =    109.361267    -0.000000    -0.000009   109.361258
	   28 B(1,9,15)       =    112.052055     0.000000     0.000011   112.052066
	   29 B(2,1,3)        =    107.963801     0.000000     0.000001   107.963802
	   30 B(2,1,4)        =    107.897290     0.000000     0.000002   107.897292
	   31 B(2,1,9)        =    111.690525    -0.000000    -0.000003   111.690522
	   32 B(3,1,4)        =    107.684295     0.000000     0.000006   107.684301
	   33 B(3,1,9)        =    110.771280    -0.000000    -0.000004   110.771276
	   34 B(4,1,9)        =    110.680749    -0.000000    -0.000001   110.680748
	   35 B(5,12,13)      =    109.625408     0.000000     0.000013   109.625421
	   36 B(5,12,14)      =    109.133924    -0.000000    -0.000008   109.133916
	   37 B(5,12,24)      =    113.318851     0.000000    -0.000003   113.318848
	   38 B(6,5,7)        =    107.866719    -0.000000    -0.000001   107.866718
	   39 B(6,5,8)        =    107.585192    -0.000000    -0.000001   107.585191
	   40 B(6,5,12)       =    111.181585     0.000000     0.000013   111.181598
	   41 B(7,5,8)        =    107.820763     0.000000     0.000001   107.820765
	   42 B(7,5,12)       =    110.599944    -0.000000    -0.000007   110.599937
	   43 B(8,5,12)       =    111.623023    -0.000000    -0.000006   111.623017
	   44 B(9,15,16)      =    109.124432     0.000000     0.000011   109.124443
	   45 B(9,15,17)      =    108.578619    -0.000000    -0.000018   108.578601
	   46 B(9,15,18)      =    113.988156    -0.000000     0.000001   113.988158
	   47 B(10,9,11)      =    106.570428     0.000000     0.000004   106.570431
	   48 B(10,9,15)      =    109.000028    -0.000000    -0.000002   109.000025
	   49 B(11,9,15)      =    109.911883    -0.000000     0.000009   109.911892
	   50 B(12,24,21)     =    113.893713     0.000000     0.000029   113.893742
	   51 B(12,24,25)     =    109.184740    -0.000000     0.000003   109.184743
	   52 B(12,24,26)     =    109.234898    -0.000000    -0.000013   109.234886
	   53 B(13,12,14)     =    106.459468     0.000000    -0.000002   106.459466
	   54 B(13,12,24)     =    109.080478    -0.000000    -0.000012   109.080466
	   55 B(14,12,24)     =    108.991722     0.000000     0.000013   108.991735
	   56 B(15,18,19)     =    109.217326    -0.000000     0.000010   109.217336
	   57 B(15,18,20)     =    109.221968    -0.000000    -0.000003   109.221966
	   58 B(15,18,21)     =    113.899711     0.000000     0.000016   113.899727
	   59 B(16,15,17)     =    106.387182    -0.000000    -0.000006   106.387176
	   60 B(16,15,18)     =    109.288035    -0.000000     0.000009   109.288044
	   61 B(17,15,18)     =    109.196876     0.000000     0.000002   109.196878
	   62 B(18,21,22)     =    109.182485     0.000000    -0.000007   109.182478
	   63 B(18,21,23)     =    109.616049     0.000000     0.000003   109.616052
	   64 B(18,21,24)     =    112.335957    -0.000000    -0.000027   112.335931
	   65 B(19,18,20)     =    106.412085     0.000000    -0.000011   106.412074
	   66 B(19,18,21)     =    108.707867    -0.000000    -0.000007   108.707860
	   67 B(20,18,21)     =    109.112858    -0.000000    -0.000007   109.112851
	   68 B(21,24,25)     =    109.099870    -0.000000     0.000023   109.099893
	   69 B(21,24,26)     =    108.711771    -0.000000    -0.000040   108.711732
	   70 B(22,21,23)     =    106.682299     0.000000     0.000023   106.682322
	   71 B(22,21,24)     =    109.198993     0.000000    -0.000011   109.198982
	   72 B(23,21,24)     =    109.661547     0.000000     0.000021   109.661568
	   73 B(25,24,26)     =    106.450284     0.000000    -0.000005   106.450280
	   74 D(1,9,15,16)    =     61.777800     0.000000     0.000233    61.778033
	   75 D(1,9,15,17)    =    -53.789885     0.000000     0.000245   -53.789641
	   76 D(1,9,15,18)    =   -175.744961     0.000000     0.000254  -175.744707
	   77 D(2,1,9,10)     =     58.977883     0.000000    -0.000021    58.977862
	   78 D(2,1,9,11)     =    -57.620575    -0.000000    -0.000013   -57.620589
	   79 D(2,1,9,15)     =   -179.749599    -0.000000    -0.000025  -179.749625
	   80 D(3,1,9,10)     =    -61.410350     0.000000    -0.000017   -61.410368
	   81 D(3,1,9,11)     =   -178.008809     0.000000    -0.000010  -178.008819
	   82 D(3,1,9,15)     =     59.862167    -0.000000    -0.000022    59.862145
	   83 D(4,1,9,10)     =    179.220026     0.000000    -0.000022   179.220004
	   84 D(4,1,9,11)     =     62.621567     0.000000    -0.000014    62.621553
	   85 D(4,1,9,15)     =    -59.507457    -0.000000    -0.000026   -59.507483
	   86 D(5,12,24,21)   =     63.834632     0.000000     0.000174    63.834805
	   87 D(5,12,24,25)   =    -58.378552    -0.000000     0.000122   -58.378430
	   88 D(5,12,24,26)   =   -174.416425     0.000000     0.000133  -174.416292
	   89 D(6,5,12,13)    =    -62.316542    -0.000000    -0.000030   -62.316572
	   90 D(6,5,12,14)    =     53.922447    -0.000000    -0.000030    53.922417
	   91 D(6,5,12,24)    =    175.567410     0.000000    -0.000021   175.567389
	   92 D(7,5,12,13)    =    177.871051    -0.000000    -0.000033   177.871018
	   93 D(7,5,12,14)    =    -65.889959    -0.000000    -0.000032   -65.889992
	   94 D(7,5,12,24)    =     55.755003    -0.000000    -0.000024    55.754980
	   95 D(8,5,12,13)    =     57.825498     0.000000    -0.000026    57.825473
	   96 D(8,5,12,14)    =    174.064488    -0.000000    -0.000026   174.064462
	   97 D(8,5,12,24)    =    -64.290549     0.000000    -0.000017   -64.290566
	   98 D(9,15,18,19)   =    174.456649    -0.000000     0.000040   174.456690
	   99 D(9,15,18,20)   =     58.453526    -0.000000     0.000049    58.453575
	  100 D(9,15,18,21)   =    -63.808286    -0.000000     0.000049   -63.808237
	  101 D(10,9,15,16)   =   -176.493800     0.000000     0.000224  -176.493577
	  102 D(10,9,15,17)   =     67.938514     0.000000     0.000235    67.938749
	  103 D(10,9,15,18)   =    -54.016562     0.000000     0.000245   -54.016317
	  104 D(11,9,15,16)   =    -60.036471     0.000000     0.000231   -60.036240
	  105 D(11,9,15,17)   =   -175.604157     0.000000     0.000243  -175.603914
	  106 D(11,9,15,18)   =     62.440767     0.000000     0.000252    62.441019
	  107 D(12,24,21,18)  =    176.851703    -0.000000    -0.000137   176.851566
	  108 D(12,24,21,22)  =     55.571711    -0.000000    -0.000103    55.571608
	  109 D(12,24,21,23)  =    -60.992904    -0.000000    -0.000137   -60.993041
	  110 D(13,12,24,21)  =    -58.584557     0.000000     0.000169   -58.584388
	  111 D(13,12,24,25)  =    179.202259    -0.000000     0.000117   179.202376
	  112 D(13,12,24,26)  =     63.164387    -0.000000     0.000128    63.164514
	  113 D(14,12,24,21)  =   -174.440796     0.000000     0.000171  -174.440626
	  114 D(14,12,24,25)  =     63.346020    -0.000000     0.000119    63.346139
	  115 D(14,12,24,26)  =    -52.691853    -0.000000     0.000130   -52.691723
	  116 D(15,18,21,22)  =    -55.040979    -0.000000    -0.000224   -55.041203
	  117 D(15,18,21,23)  =     61.488366     0.000000    -0.000198    61.488168
	  118 D(15,18,21,24)  =   -176.330427     0.000000    -0.000187  -176.330615
	  119 D(16,15,18,19)  =    -63.155806     0.000000     0.000062   -63.155743
	  120 D(16,15,18,20)  =   -179.158929     0.000000     0.000072  -179.158858
	  121 D(16,15,18,21)  =     58.579259     0.000000     0.000071    58.579330
	  122 D(17,15,18,19)  =     52.842945     0.000000     0.000061    52.843006
	  123 D(17,15,18,20)  =    -63.160179     0.000000     0.000070   -63.160109
	  124 D(17,15,18,21)  =    174.578009     0.000000     0.000070   174.578079
	  125 D(18,21,24,25)  =    -60.888399    -0.000000    -0.000097   -60.888496
	  126 D(18,21,24,26)  =     54.813736    -0.000000    -0.000111    54.813625
	  127 D(19,18,21,22)  =     66.975579    -0.000000    -0.000206    66.975373
	  128 D(19,18,21,23)  =   -176.495076     0.000000    -0.000180  -176.495256
	  129 D(19,18,21,24)  =    -54.313869     0.000000    -0.000169   -54.314038
	  130 D(20,18,21,22)  =   -177.362805    -0.000000    -0.000226  -177.363031
	  131 D(20,18,21,23)  =    -60.833459     0.000000    -0.000201   -60.833660
	  132 D(20,18,21,24)  =     61.347747     0.000000    -0.000190    61.347558
	  133 D(22,21,24,25)  =    177.831609     0.000000    -0.000063   177.831546
	  134 D(22,21,24,26)  =    -66.466256     0.000000    -0.000077   -66.466333
	  135 D(23,21,24,25)  =     61.266994    -0.000000    -0.000096    61.266898
	  136 D(23,21,24,26)  =    176.969129    -0.000000    -0.000111   176.969018
	 ---------------------------------------------------------------------------

  ==> Convergence Check <==

  Measures of convergence in internal coordinates in au.
  Criteria marked as inactive (o), active & met (*), and active & unmet ( ).
  ---------------------------------------------------------------------------------------------
   Step     Total Energy     Delta E     MAX Force     RMS Force      MAX Disp      RMS Disp   
  ---------------------------------------------------------------------------------------------
    Convergence Criteria             o    2.00e-06 *    1.00e-06 *    6.00e-06 *    4.00e-06 *
  ---------------------------------------------------------------------------------------------
     15    -314.98375268    3.11e-10 o    3.74e-07 *    9.26e-08 *    4.44e-06 *    1.65e-06 *  ~
  ---------------------------------------------------------------------------------------------


  **** Optimization is complete! (in 15 steps) ****

  ==> Optimization Summary <==

  Measures of convergence in internal coordinates in au.
  --------------------------------------------------------------------------------------------------------------- ~
   Step         Total Energy             Delta E       MAX Force       RMS Force        MAX Disp        RMS Disp  ~
  --------------------------------------------------------------------------------------------------------------- ~
      1    -314.983752675316   -314.983752675316      0.00000154      0.00000035      0.00012422      0.00004540  ~
      2    -314.983752677588     -0.000000002272      0.00000226      0.00000057      0.00008603      0.00003160  ~
      3    -314.983752678252     -0.000000000664      0.00000064      0.00000016      0.00002991      0.00000986  ~
      4    -314.983752675356      0.000000002896      0.00000047      0.00000013      0.00003014      0.00000991  ~
      5    -314.983752675645     -0.000000000289      0.00000264      0.00000068      0.00004922      0.00001842  ~
      6    -314.983752675364      0.000000000281      0.00000136      0.00000035      0.00005028      0.00001561  ~
      7    -314.983752674922      0.000000000442      0.00000059      0.00000018      0.00003100      0.00000934  ~
      8    -314.983752677235     -0.000000002313      0.00000100      0.00000031      0.00003536      0.00001260  ~
      9    -314.983752678856     -0.000000001622      0.00000048      0.00000012      0.00002617      0.00001016  ~
     10    -314.983752677141      0.000000001715      0.00000059      0.00000016      0.00002349      0.00000901  ~
     11    -314.983752674157      0.000000002984      0.00000093      0.00000021      0.00003507      0.00001138  ~
     12    -314.983752674016      0.000000000141      0.00000125      0.00000034      0.00002644      0.00001021  ~
     13    -314.983752674721     -0.000000000705      0.00000153      0.00000038      0.00002448      0.00000834  ~
     14    -314.983752675439     -0.000000000718      0.00000044      0.00000010      0.00000969      0.00000345  ~
     15    -314.983752675127      0.000000000311      0.00000037      0.00000009      0.00000444      0.00000165  ~
  --------------------------------------------------------------------------------------------------------------- ~

	Writing optimization data to binary file.
	Final energy is   -314.9837526751274
	Final (previous) structure:
	Cartesian Geometry (in Angstrom)
	    C    -3.8089893029   0.9113627876  -0.1793843744
	    H    -4.1233353911   1.8912876467   0.1789465380
	    H    -4.5142840938   0.1717348980   0.2015702785
	    H    -3.8850746291   0.9120878589  -1.2675257238
	    C     3.1133431604   1.4514242416   0.2097844450
	    H     4.0000562474   1.9890482831  -0.1252326054
	    H     3.1050500706   1.4663994256   1.3010325337
	    H     2.2419450447   2.0049411854  -0.1378425031
	    C    -2.3880430636   0.5799590173   0.2605569625
	    H    -2.3249133625   0.5967857731   1.3525178254
	    H    -1.7073400184   1.3522723498  -0.1025858612
	    C     3.1107187888   0.0166398158  -0.3071991156
	    H     3.0808460309   0.0201688610  -1.4003261743
	    H     4.0482711001  -0.4673866048  -0.0247867845
	    C    -1.9374572908  -0.7873615020  -0.2417230029
	    H    -1.9399833349  -0.7860021656  -1.3367655188
	    H    -2.6757904764  -1.5330449119   0.0677146303
	    C    -0.5582088323  -1.2088214427   0.2588370895
	    H    -0.3557497596  -2.2340649142  -0.0642116999
	    H    -0.5612881716  -1.2243378282   1.3536990046
	    C     0.5753988587  -0.3108404917  -0.2245776097
	    H     0.5503533405  -0.2568575367  -1.3188754642
	    H     0.4202107535   0.7049654269   0.1428203347
	    C     1.9436388602  -0.8141829001   0.2213713861
	    H     1.9801645277  -0.8306659269   1.3157375941
	    H     2.0607439235  -1.8505631568  -0.1080932509
	Saving final (previous) structure.
			--------------------------
			 OPTKING Finished Execution 
			--------------------------

    Final optimized geometry and variables:
    Molecular point group: c1
    Full point group: C1

    Geometry (in Angstrom), charge = 0, multiplicity = 1:

    C           -3.808989302880     0.911362787594    -0.179384374409
    H           -4.123335391092     1.891287646693     0.178946538006
    H           -4.514284093820     0.171734897997     0.201570278541
    H           -3.885074629129     0.912087858894    -1.267525723842
    C            3.113343160414     1.451424241567     0.209784444967
    H            4.000056247410     1.989048283131    -0.125232605384
    H            3.105050070584     1.466399425600     1.301032533665
    H            2.241945044657     2.004941185402    -0.137842503124
    C           -2.388043063633     0.579959017297     0.260556962467
    H           -2.324913362481     0.596785773072     1.352517825407
    H           -1.707340018422     1.352272349779    -0.102585861212
    C            3.110718788838     0.016639815818    -0.307199115567
    H            3.080846030911     0.020168861011    -1.400326174338
    H            4.048271100127    -0.467386604800    -0.024786784455
    C           -1.937457290797    -0.787361501976    -0.241723002887
    H           -1.939983334937    -0.786002165556    -1.336765518764
    H           -2.675790476366    -1.533044911876     0.067714630268
    C           -0.558208832254    -1.208821442658     0.258837089478
    H           -0.355749759566    -2.234064914160    -0.064211699939
    H           -0.561288171587    -1.224337828192     1.353699004621
    C            0.575398858686    -0.310840491736    -0.224577609737
    H            0.550353340478    -0.256857536686    -1.318875464176
    H            0.420210753544     0.704965426936     0.142820334720
    C            1.943638860182    -0.814182900086     0.221371386063
    H            1.980164527714    -0.830665926890     1.315737594083
    H            2.060743923456    -1.850563156762    -0.108093250881

	Cleaning optimization helper files.

*** Psi4 exiting successfully. Buy a developer a beer!
