    -----------------------------------------------------------------------
          Psi4: An Open-Source Ab Initio Electronic Structure Package
                              Psi4 1.0.0 Driver

                          Git: Rev {master} 6a9a71b dirty

    J. M. Turney, A. C. Simmonett, R. M. Parrish, E. G. Hohenstein,
    F. A. Evangelista, J. T. Fermann, B. J. Mintz, L. A. Burns, J. J. Wilke,
    M. L. Abrams, N. J. Russ, M. L. Leininger, C. L. Janssen, E. T. Seidl,
    W. D. Allen, H. F. Schaefer, R. A. King, E. F. Valeev, C. D. Sherrill,
    and T. D. Crawford, WIREs Comput. Mol. Sci. 2, 556-565 (2012)
    (doi: 10.1002/wcms.93)

                         Additional Contributions by
    A. E. DePrince, U. Bozkaya, A. Yu. Sokolov, D. G. A. Smith, R. Di Remigio,
    R. M. Richard, J. F. Gonthier, H. R. McAlexander, M. Saitow, and
    B. P. Pritchard
    -----------------------------------------------------------------------


    Psi4 started on: Tue Sep 20 16:43:05 2016

    Process ID:  41137
    PSI4DATADIR: /usr/local/hpc5/psi4conda/share/psi4
    Memory level set to 256.000 MB

  ==> Input File <==

--------------------------------------------------------------------------
memory 30 Gb

molecule molecule_05_psi {
0 1
symmetry c1
    C            4.153193804405    -0.115073281010     0.116195190773
    H            4.514999445928     0.772776139934    -0.399261280776
    H            4.799267136072    -0.947606141629    -0.152589125707
    H            4.256371699813     0.057953602314     1.186050111711
    C           -4.153204381537     0.115123211762    -0.116025843325
    H           -4.256428800622    -0.057641327536    -1.185918992161
    H           -4.799261031154     0.947594509398     0.152989926642
    H           -4.514994555709    -0.772850260922     0.399228852269
    C            2.704615861074    -0.390753201384    -0.242384818375
    H            2.378308326388    -1.303398813652     0.254412106341
    H            2.617100842213    -0.569803304971    -1.315819781885
    C           -2.704609489957     0.390706420389     0.242561137460
    H           -2.378316533525     1.303469160906    -0.254030786547
    H           -2.617051092037     0.569501289845     1.316035230823
    C            1.792586512079     0.760551219660     0.141542047721
    H            2.198384059975     1.681882400942    -0.281421920760
    H            1.812449662475     0.884141212239     1.227496011305
    C            0.352657871206     0.593564308943    -0.316170937014
    H            0.330553286918     0.481146136964    -1.403676916065
    H           -0.196485731245     1.506169699246    -0.085392879055
    C           -0.352634890006    -0.593606994599     0.315943822628
    H            0.196459564111    -1.506219713432     0.085076086812
    H           -0.330444138842    -0.481245659799     1.403454934516
    C           -1.792604225705    -0.760515227102    -0.141671905278
    H           -1.812564460829    -0.883896826277    -1.227648800927
    H           -2.198360319722    -1.681929913596     0.281151835057
}

set globals {
  reference rhf
  g_convergence gau_verytight
  basis aug-cc-pvtz
  freeze_core true
  scf_type df
  mp_type df
}
optimize('mp2')
--------------------------------------------------------------------------
/usr/local/hpc5/psi4conda/lib/python2.7/site-packages/v2rdm_casscf/v2rdm_casscf.so loaded.

  Memory set to  30.000 GiB by Python script.
gradient() will perform analytic gradient computation.

*** tstart() called on wr39
*** at Tue Sep 20 16:43:06 2016


         ---------------------------------------------------------
                                   SCF
            by Justin Turney, Rob Parrish, and Andy Simmonett
                              RHF Reference
                       12 Threads,  30000 MiB Core
         ---------------------------------------------------------

  ==> Geometry <==

    Molecular point group: c1
    Full point group: C1

    Geometry (in Angstrom), charge = 0, multiplicity = 1:

       Center              X                  Y                   Z               Mass       
    ------------   -----------------  -----------------  -----------------  -----------------
           C          4.153193804405    -0.115073281010     0.116195190773    12.000000000000
           H          4.514999445928     0.772776139934    -0.399261280776     1.007825032070
           H          4.799267136072    -0.947606141629    -0.152589125707     1.007825032070
           H          4.256371699813     0.057953602314     1.186050111711     1.007825032070
           C         -4.153204381537     0.115123211762    -0.116025843325    12.000000000000
           H         -4.256428800622    -0.057641327536    -1.185918992161     1.007825032070
           H         -4.799261031154     0.947594509398     0.152989926642     1.007825032070
           H         -4.514994555709    -0.772850260922     0.399228852269     1.007825032070
           C          2.704615861074    -0.390753201384    -0.242384818375    12.000000000000
           H          2.378308326388    -1.303398813652     0.254412106341     1.007825032070
           H          2.617100842213    -0.569803304971    -1.315819781885     1.007825032070
           C         -2.704609489957     0.390706420389     0.242561137460    12.000000000000
           H         -2.378316533525     1.303469160906    -0.254030786547     1.007825032070
           H         -2.617051092037     0.569501289845     1.316035230823     1.007825032070
           C          1.792586512079     0.760551219660     0.141542047721    12.000000000000
           H          2.198384059975     1.681882400942    -0.281421920760     1.007825032070
           H          1.812449662475     0.884141212239     1.227496011305     1.007825032070
           C          0.352657871206     0.593564308943    -0.316170937014    12.000000000000
           H          0.330553286918     0.481146136964    -1.403676916065     1.007825032070
           H         -0.196485731245     1.506169699246    -0.085392879055     1.007825032070
           C         -0.352634890006    -0.593606994599     0.315943822628    12.000000000000
           H          0.196459564111    -1.506219713432     0.085076086812     1.007825032070
           H         -0.330444138842    -0.481245659799     1.403454934516     1.007825032070
           C         -1.792604225705    -0.760515227102    -0.141671905278    12.000000000000
           H         -1.812564460829    -0.883896826277    -1.227648800927     1.007825032070
           H         -2.198360319722    -1.681929913596     0.281151835057     1.007825032070

  Running in c1 symmetry.

  Rotational constants: A =      0.26195  B =      0.01974  C =      0.01913 [cm^-1]
  Rotational constants: A =   7853.06993  B =    591.66809  C =    573.45825 [MHz]
  Nuclear repulsion =  386.862234088304433

  Charge       = 0
  Multiplicity = 1
  Electrons    = 66
  Nalpha       = 33
  Nbeta        = 33

  ==> Algorithm <==

  SCF Algorithm Type is DF.
  DIIS enabled.
  MOM disabled.
  Fractional occupation disabled.
  Guess Type is SAD.
  Energy threshold   = 1.00e-10
  Density threshold  = 1.00e-10
  Integral threshold = 0.00e+00

  ==> Primary Basis <==

  Basis Set: AUG-CC-PVTZ
    Number of shells: 274
    Number of basis function: 782
    Number of Cartesian functions: 890
    Spherical Harmonics?: true
    Max angular momentum: 3

  ==> Pre-Iterations <==

   -------------------------------------------------------
    Irrep   Nso     Nmo     Nalpha   Nbeta   Ndocc  Nsocc
   -------------------------------------------------------
     A        782     782       0       0       0       0
   -------------------------------------------------------
    Total     782     782      33      33      33       0
   -------------------------------------------------------

  ==> Integral Setup <==

  ==> DFJK: Density-Fitted J/K Matrices <==

    J tasked:                  Yes
    K tasked:                  Yes
    wK tasked:                  No
    OpenMP threads:             12
    Integrals threads:          12
    Memory (MB):             21457
    Algorithm:                Core
    Integral Cache:           NONE
    Schwarz Cutoff:          1E-12
    Fitting Condition:       1E-12

   => Auxiliary Basis Set <=

  Basis Set: 
    Number of shells: 492
    Number of basis function: 1660
    Number of Cartesian functions: 2038
    Spherical Harmonics?: true
    Max angular momentum: 4

  Minimum eigenvalue in the overlap matrix is 1.7229950232E-06.
  Using Symmetric Orthogonalization.
  SCF Guess: Superposition of Atomic Densities via on-the-fly atomic UHF.

  ==> Iterations <==

                           Total Energy        Delta E     RMS |[F,P]|

   @DF-RHF iter   0:  -316.63476488107671   -3.16635e+02   6.84679e-03 
   @DF-RHF iter   1:  -313.25415814667355    3.38061e+00   8.31215e-04 
   @DF-RHF iter   2:  -313.49927818694192   -2.45120e-01   3.28420e-04 DIIS
   @DF-RHF iter   3:  -313.53795617288102   -3.86780e-02   9.91007e-05 DIIS
   @DF-RHF iter   4:  -313.54334000912644   -5.38384e-03   1.56035e-05 DIIS
   @DF-RHF iter   5:  -313.54349903429119   -1.59025e-04   4.85965e-06 DIIS
   @DF-RHF iter   6:  -313.54351190801805   -1.28737e-05   1.21077e-06 DIIS
   @DF-RHF iter   7:  -313.54351288707079   -9.79053e-07   2.27324e-07 DIIS
   @DF-RHF iter   8:  -313.54351292057430   -3.35035e-08   7.23577e-08 DIIS
   @DF-RHF iter   9:  -313.54351292288317   -2.30887e-09   1.51479e-08 DIIS
   @DF-RHF iter  10:  -313.54351292301448   -1.31308e-10   3.43022e-09 DIIS
   @DF-RHF iter  11:  -313.54351292302402   -9.54969e-12   8.06108e-10 DIIS
   @DF-RHF iter  12:  -313.54351292302448   -4.54747e-13   2.62131e-10 DIIS
   @DF-RHF iter  13:  -313.54351292302471   -2.27374e-13   7.48886e-11 DIIS

  ==> Post-Iterations <==

    Orbital Energies (a.u.)
    -----------------------

    Doubly Occupied:                                                      

       1A    -11.209795     2A    -11.209795     3A    -11.208519  
       4A    -11.208429     5A    -11.207826     6A    -11.207275  
       7A    -11.205358     8A    -11.205358     9A     -1.097397  
      10A     -1.063826    11A     -1.011985    12A     -0.951936  
      13A     -0.874447    14A     -0.833322    15A     -0.791333  
      16A     -0.761814    17A     -0.636064    18A     -0.635594  
      19A     -0.618498    20A     -0.593730    21A     -0.580332  
      22A     -0.554981    23A     -0.546458    24A     -0.541951  
      25A     -0.510314    26A     -0.504718    27A     -0.478536  
      28A     -0.477682    29A     -0.469155    30A     -0.458139  
      31A     -0.453389    32A     -0.440062    33A     -0.432904  

    Virtual:                                                              

      34A      0.031536    35A      0.032610    36A      0.034043  
      37A      0.036862    38A      0.044050    39A      0.047057  
      40A      0.048851    41A      0.054103    42A      0.058221  
      43A      0.063483    44A      0.064577    45A      0.066691  
      46A      0.071692    47A      0.086253    48A      0.089857  
      49A      0.094595    50A      0.094864    51A      0.099512  
      52A      0.112407    53A      0.115517    54A      0.122364  
      55A      0.124051    56A      0.126186    57A      0.127351  
      58A      0.132704    59A      0.139482    60A      0.142166  
      61A      0.142406    62A      0.144453    63A      0.148791  
      64A      0.155959    65A      0.157934    66A      0.158327  
      67A      0.165157    68A      0.168577    69A      0.176068  
      70A      0.177906    71A      0.179829    72A      0.184605  
      73A      0.190877    74A      0.199381    75A      0.205006  
      76A      0.213375    77A      0.226483    78A      0.228336  
      79A      0.229698    80A      0.233673    81A      0.242376  
      82A      0.243987    83A      0.254740    84A      0.265094  
      85A      0.265560    86A      0.271772    87A      0.274041  
      88A      0.280250    89A      0.282106    90A      0.287684  
      91A      0.293638    92A      0.295135    93A      0.305832  
      94A      0.307677    95A      0.317863    96A      0.320226  
      97A      0.325086    98A      0.326346    99A      0.337269  
     100A      0.340723   101A      0.341338   102A      0.346886  
     103A      0.349897   104A      0.354556   105A      0.357219  
     106A      0.361263   107A      0.362813   108A      0.364239  
     109A      0.368708   110A      0.371249   111A      0.373361  
     112A      0.376437   113A      0.377842   114A      0.387634  
     115A      0.389598   116A      0.394299   117A      0.397025  
     118A      0.399144   119A      0.401691   120A      0.404007  
     121A      0.408546   122A      0.412652   123A      0.417172  
     124A      0.428683   125A      0.430668   126A      0.435637  
     127A      0.442938   128A      0.443944   129A      0.446491  
     130A      0.447633   131A      0.454339   132A      0.457215  
     133A      0.464346   134A      0.464762   135A      0.467687  
     136A      0.471181   137A      0.473011   138A      0.473249  
     139A      0.475866   140A      0.479285   141A      0.489516  
     142A      0.493752   143A      0.496504   144A      0.497105  
     145A      0.506105   146A      0.508474   147A      0.510856  
     148A      0.514452   149A      0.516474   150A      0.518433  
     151A      0.524141   152A      0.528484   153A      0.532011  
     154A      0.533427   155A      0.534280   156A      0.540236  
     157A      0.547526   158A      0.548027   159A      0.554756  
     160A      0.559534   161A      0.571018   162A      0.572682  
     163A      0.576770   164A      0.579250   165A      0.585180  
     166A      0.587605   167A      0.598651   168A      0.600449  
     169A      0.607195   170A      0.608977   171A      0.612877  
     172A      0.620025   173A      0.623639   174A      0.628209  
     175A      0.634608   176A      0.644727   177A      0.649891  
     178A      0.658053   179A      0.659688   180A      0.661559  
     181A      0.666123   182A      0.672897   183A      0.680408  
     184A      0.680444   185A      0.687713   186A      0.693192  
     187A      0.698019   188A      0.709432   189A      0.711476  
     190A      0.720678   191A      0.722213   192A      0.724123  
     193A      0.730151   194A      0.737043   195A      0.754166  
     196A      0.766895   197A      0.778750   198A      0.782379  
     199A      0.795234   200A      0.795703   201A      0.809294  
     202A      0.818150   203A      0.820006   204A      0.835304  
     205A      0.836962   206A      0.840683   207A      0.841423  
     208A      0.843300   209A      0.857749   210A      0.859503  
     211A      0.867084   212A      0.870016   213A      0.870957  
     214A      0.877079   215A      0.883413   216A      0.883815  
     217A      0.893987   218A      0.895957   219A      0.904357  
     220A      0.906657   221A      0.910436   222A      0.912917  
     223A      0.915102   224A      0.918566   225A      0.924337  
     226A      0.935444   227A      0.936592   228A      0.937078  
     229A      0.946171   230A      0.952165   231A      0.960134  
     232A      0.962073   233A      0.962737   234A      0.964056  
     235A      0.972417   236A      0.979021   237A      0.979762  
     238A      0.990893   239A      0.994629   240A      0.995805  
     241A      1.002098   242A      1.011425   243A      1.012008  
     244A      1.019195   245A      1.020090   246A      1.030491  
     247A      1.032317   248A      1.033034   249A      1.044996  
     250A      1.049838   251A      1.063801   252A      1.064418  
     253A      1.073744   254A      1.084522   255A      1.085655  
     256A      1.092789   257A      1.094336   258A      1.096578  
     259A      1.097078   260A      1.109236   261A      1.116419  
     262A      1.119612   263A      1.127113   264A      1.127918  
     265A      1.136307   266A      1.142506   267A      1.143214  
     268A      1.149766   269A      1.151006   270A      1.153583  
     271A      1.160990   272A      1.171638   273A      1.174682  
     274A      1.180314   275A      1.182941   276A      1.185459  
     277A      1.190005   278A      1.191536   279A      1.201219  
     280A      1.206219   281A      1.207737   282A      1.223893  
     283A      1.227562   284A      1.236144   285A      1.240379  
     286A      1.244542   287A      1.246435   288A      1.255228  
     289A      1.259216   290A      1.264903   291A      1.275066  
     292A      1.277250   293A      1.284703   294A      1.287526  
     295A      1.300836   296A      1.304106   297A      1.311247  
     298A      1.312849   299A      1.313388   300A      1.316864  
     301A      1.322356   302A      1.333044   303A      1.334039  
     304A      1.335677   305A      1.351085   306A      1.356324  
     307A      1.357293   308A      1.359633   309A      1.370623  
     310A      1.376340   311A      1.400325   312A      1.401057  
     313A      1.410858   314A      1.419121   315A      1.419605  
     316A      1.431464   317A      1.444836   318A      1.448022  
     319A      1.457869   320A      1.465427   321A      1.470225  
     322A      1.474644   323A      1.483239   324A      1.501287  
     325A      1.504935   326A      1.518508   327A      1.524687  
     328A      1.528195   329A      1.539481   330A      1.541008  
     331A      1.553196   332A      1.553266   333A      1.561502  
     334A      1.572441   335A      1.579931   336A      1.585281  
     337A      1.597609   338A      1.606934   339A      1.611543  
     340A      1.615832   341A      1.630837   342A      1.635396  
     343A      1.636627   344A      1.646783   345A      1.656279  
     346A      1.659230   347A      1.665276   348A      1.669967  
     349A      1.674168   350A      1.685018   351A      1.686897  
     352A      1.691761   353A      1.700883   354A      1.707170  
     355A      1.707184   356A      1.711306   357A      1.716957  
     358A      1.717551   359A      1.728662   360A      1.734754  
     361A      1.740050   362A      1.751053   363A      1.754897  
     364A      1.758929   365A      1.761301   366A      1.766570  
     367A      1.770590   368A      1.781159   369A      1.782211  
     370A      1.787401   371A      1.792471   372A      1.798577  
     373A      1.803066   374A      1.804069   375A      1.813998  
     376A      1.814496   377A      1.822679   378A      1.822741  
     379A      1.828580   380A      1.846698   381A      1.846705  
     382A      1.852691   383A      1.862093   384A      1.870950  
     385A      1.875027   386A      1.887618   387A      1.894715  
     388A      1.903422   389A      1.904598   390A      1.907239  
     391A      1.916807   392A      1.922263   393A      1.938607  
     394A      1.939387   395A      1.943266   396A      1.945383  
     397A      1.967122   398A      1.974674   399A      1.979680  
     400A      1.992735   401A      1.998039   402A      2.011051  
     403A      2.016686   404A      2.017929   405A      2.020770  
     406A      2.026421   407A      2.037303   408A      2.037754  
     409A      2.048830   410A      2.053854   411A      2.070706  
     412A      2.072736   413A      2.079204   414A      2.086980  
     415A      2.092397   416A      2.093500   417A      2.099046  
     418A      2.113864   419A      2.118233   420A      2.138482  
     421A      2.143168   422A      2.145620   423A      2.154198  
     424A      2.160447   425A      2.160944   426A      2.173523  
     427A      2.178795   428A      2.198565   429A      2.204788  
     430A      2.216663   431A      2.217087   432A      2.229271  
     433A      2.232080   434A      2.243992   435A      2.248711  
     436A      2.262130   437A      2.264665   438A      2.277833  
     439A      2.284755   440A      2.291816   441A      2.297639  
     442A      2.308476   443A      2.323450   444A      2.325541  
     445A      2.337213   446A      2.352608   447A      2.353268  
     448A      2.362766   449A      2.375410   450A      2.375557  
     451A      2.387841   452A      2.412949   453A      2.421049  
     454A      2.421779   455A      2.432804   456A      2.434062  
     457A      2.440479   458A      2.446128   459A      2.469214  
     460A      2.485094   461A      2.496244   462A      2.499452  
     463A      2.517680   464A      2.532304   465A      2.552296  
     466A      2.559463   467A      2.574544   468A      2.589825  
     469A      2.594378   470A      2.610912   471A      2.627529  
     472A      2.648613   473A      2.658576   474A      2.682077  
     475A      2.689958   476A      2.704361   477A      2.718207  
     478A      2.727389   479A      2.755278   480A      2.780024  
     481A      2.795913   482A      2.835319   483A      2.844427  
     484A      2.850970   485A      2.896620   486A      2.924909  
     487A      3.009832   488A      3.026002   489A      3.048295  
     490A      3.091246   491A      3.158462   492A      3.181042  
     493A      3.297137   494A      3.325483   495A      3.348225  
     496A      3.402061   497A      3.437027   498A      3.445726  
     499A      3.478868   500A      3.487836   501A      3.493116  
     502A      3.497805   503A      3.507395   504A      3.511650  
     505A      3.529198   506A      3.531363   507A      3.540947  
     508A      3.555847   509A      3.572948   510A      3.573796  
     511A      3.582526   512A      3.595639   513A      3.611776  
     514A      3.615675   515A      3.616678   516A      3.621961  
     517A      3.666024   518A      3.667029   519A      3.674812  
     520A      3.688943   521A      3.691528   522A      3.698955  
     523A      3.704312   524A      3.712791   525A      3.718120  
     526A      3.726225   527A      3.758210   528A      3.758506  
     529A      3.758934   530A      3.772650   531A      3.775671  
     532A      3.779147   533A      3.789043   534A      3.801579  
     535A      3.808590   536A      3.810615   537A      3.825207  
     538A      3.830497   539A      3.848085   540A      3.856884  
     541A      3.869775   542A      3.883100   543A      3.886460  
     544A      3.894717   545A      3.904792   546A      3.909843  
     547A      3.913656   548A      3.916208   549A      3.930389  
     550A      3.935670   551A      3.948620   552A      3.955128  
     553A      3.961383   554A      3.967897   555A      3.975694  
     556A      3.978166   557A      3.996904   558A      3.999492  
     559A      4.008882   560A      4.010705   561A      4.017130  
     562A      4.019307   563A      4.026157   564A      4.026178  
     565A      4.048509   566A      4.052143   567A      4.055648  
     568A      4.057561   569A      4.075398   570A      4.077860  
     571A      4.078237   572A      4.086753   573A      4.100744  
     574A      4.107792   575A      4.112939   576A      4.123450  
     577A      4.139267   578A      4.162991   579A      4.167493  
     580A      4.167523   581A      4.171297   582A      4.196695  
     583A      4.212317   584A      4.214896   585A      4.221116  
     586A      4.249234   587A      4.251074   588A      4.264950  
     589A      4.272341   590A      4.280326   591A      4.283282  
     592A      4.289318   593A      4.297220   594A      4.303071  
     595A      4.311176   596A      4.322361   597A      4.339428  
     598A      4.343285   599A      4.354021   600A      4.358127  
     601A      4.364814   602A      4.385349   603A      4.403985  
     604A      4.418255   605A      4.432574   606A      4.438342  
     607A      4.442252   608A      4.445025   609A      4.458411  
     610A      4.483651   611A      4.501829   612A      4.504900  
     613A      4.527277   614A      4.559647   615A      4.577209  
     616A      4.583126   617A      4.588572   618A      4.607919  
     619A      4.618487   620A      4.619079   621A      4.633781  
     622A      4.665621   623A      4.670730   624A      4.689636  
     625A      4.705244   626A      4.709434   627A      4.719222  
     628A      4.720241   629A      4.726645   630A      4.742259  
     631A      4.742925   632A      4.761015   633A      4.765372  
     634A      4.767940   635A      4.790127   636A      4.797042  
     637A      4.809393   638A      4.819070   639A      4.830482  
     640A      4.837474   641A      4.838549   642A      4.855409  
     643A      4.872919   644A      4.873320   645A      4.886417  
     646A      4.892557   647A      4.900367   648A      4.908799  
     649A      4.909281   650A      4.913959   651A      4.915419  
     652A      4.943425   653A      4.977593   654A      4.993739  
     655A      5.011054   656A      5.014432   657A      5.035664  
     658A      5.036984   659A      5.048529   660A      5.049738  
     661A      5.067749   662A      5.080451   663A      5.089700  
     664A      5.101895   665A      5.128334   666A      5.144689  
     667A      5.151408   668A      5.159590   669A      5.167911  
     670A      5.173803   671A      5.177519   672A      5.206121  
     673A      5.206328   674A      5.215582   675A      5.221712  
     676A      5.249705   677A      5.263541   678A      5.279800  
     679A      5.283934   680A      5.290383   681A      5.321270  
     682A      5.323707   683A      5.336170   684A      5.342255  
     685A      5.345717   686A      5.376022   687A      5.386983  
     688A      5.393277   689A      5.396409   690A      5.414486  
     691A      5.429649   692A      5.441667   693A      5.449465  
     694A      5.458306   695A      5.459625   696A      5.469559  
     697A      5.479805   698A      5.495562   699A      5.505860  
     700A      5.506813   701A      5.514449   702A      5.531048  
     703A      5.540900   704A      5.548398   705A      5.568666  
     706A      5.588368   707A      5.594719   708A      5.598826  
     709A      5.640522   710A      5.657002   711A      5.662687  
     712A      5.675604   713A      5.684146   714A      5.702568  
     715A      5.713989   716A      5.714954   717A      5.723108  
     718A      5.727281   719A      5.758209   720A      5.760748  
     721A      5.763926   722A      5.775046   723A      5.780551  
     724A      5.791658   725A      5.814236   726A      5.831495  
     727A      5.838371   728A      5.865201   729A      5.871665  
     730A      5.903164   731A      5.921865   732A      5.949053  
     733A      5.981267   734A      5.986590   735A      6.024670  
     736A      6.027518   737A      6.040175   738A      6.065591  
     739A      6.122177   740A      6.122335   741A      6.140835  
     742A      6.145995   743A      6.193681   744A      6.214733  
     745A      6.218176   746A      6.235008   747A      6.247143  
     748A      6.258592   749A      6.277022   750A      6.288335  
     751A      6.303183   752A      6.315059   753A      6.334381  
     754A      6.342924   755A      6.379289   756A      6.398146  
     757A      6.423774   758A      6.439242   759A      6.544009  
     760A      6.611800   761A      6.655429   762A      6.655781  
     763A      6.727907   764A      6.769604   765A      6.786729  
     766A      6.792601   767A      6.876497   768A      6.879373  
     769A      6.899656   770A      6.901121   771A      6.926811  
     772A      7.050186   773A      7.070459   774A      7.101703  
     775A     18.078017   776A     18.229531   777A     18.298692  
     778A     18.616396   779A     18.650205   780A     18.786295  
     781A     19.321651   782A     19.739285  

    Final Occupation by Irrep:
              A 
    DOCC [    33 ]

  Energy converged.

  @DF-RHF Final Energy:  -313.54351292302471

   => Energetics <=

    Nuclear Repulsion Energy =            386.8622340883044330
    One-Electron Energy =               -1188.8496441058723576
    Two-Electron Energy =                 488.4438970945434448
    DFT Exchange-Correlation Energy =       0.0000000000000000
    Empirical Dispersion Energy =           0.0000000000000000
    PCM Polarization Energy =               0.0000000000000000
    EFP Energy =                            0.0000000000000000
    Total Energy =                       -313.5435129230245366


  Saving occupied orbitals to File 180.

*** tstop() called on wr39 at Tue Sep 20 16:44:34 2016
Module time:
	user time   =     919.35 seconds =      15.32 minutes
	system time =      11.83 seconds =       0.20 minutes
	total time  =         88 seconds =       1.47 minutes
Total time:
	user time   =     919.35 seconds =      15.32 minutes
	system time =      11.83 seconds =       0.20 minutes
	total time  =         88 seconds =       1.47 minutes


Properties will be evaluated at   0.000000,   0.000000,   0.000000 Bohr

Properties computed using the SCF density matrix

  Nuclear Dipole Moment: (a.u.)
     X:    -0.0000      Y:     0.0000      Z:     0.0001

  Electronic Dipole Moment: (a.u.)
     X:     0.0000      Y:    -0.0000      Z:    -0.0001

  Dipole Moment: (a.u.)
     X:    -0.0000      Y:    -0.0000      Z:     0.0000     Total:     0.0000

  Dipole Moment: (Debye)
     X:    -0.0000      Y:    -0.0000      Z:     0.0000     Total:     0.0000


  //>>>>>>>>>>>>>>>>>>>>>>>>>>>>>>>>>>>//
  //               DFMP2               //
  //<<<<<<<<<<<<<<<<<<<<<<<<<<<<<<<<<<<//


*** tstart() called on wr39
*** at Tue Sep 20 16:44:34 2016


*** tstop() called on wr39 at Tue Sep 20 16:44:34 2016
Module time:
	user time   =       3.44 seconds =       0.06 minutes
	system time =       0.08 seconds =       0.00 minutes
	total time  =          0 seconds =       0.00 minutes
Total time:
	user time   =     923.74 seconds =      15.40 minutes
	system time =      11.91 seconds =       0.20 minutes
	total time  =         88 seconds =       1.47 minutes
	 --------------------------------------------------------
	                          DF-MP2                         
	      2nd-Order Density-Fitted Moller-Plesset Theory     
	              RMP2 Wavefunction,  12 Threads             
	                                                         
	        Rob Parrish, Justin Turney, Andy Simmonett,      
	           Ed Hohenstein, and C. David Sherrill          
	 --------------------------------------------------------

   => Auxiliary Basis Set <=

  Basis Set: 
    Number of shells: 476
    Number of basis function: 1676
    Number of Cartesian functions: 2078
    Spherical Harmonics?: true
    Max angular momentum: 4

	 --------------------------------------------------------
	                 NBF =   782, NAUX =  1676
	 --------------------------------------------------------
	   CLASS    FOCC     OCC    AOCC    AVIR     VIR    FVIR
	   PAIRS       8      33      25     749     749       0
	 --------------------------------------------------------

DGAS Warning! /src/lib/libfock/apps.cc:80 is not currently checking restricted

         ------------------------------------------------------------
                                     CPHF                           
                                  Rob Parrish                       
         ------------------------------------------------------------

  ==> Geometry <==

    Molecular point group: c1
    Full point group: C1

    Geometry (in Angstrom), charge = 0, multiplicity = 1:

       Center              X                  Y                   Z               Mass       
    ------------   -----------------  -----------------  -----------------  -----------------
           C          4.153193804405    -0.115073281010     0.116195190773    12.000000000000
           H          4.514999445928     0.772776139934    -0.399261280776     1.007825032070
           H          4.799267136072    -0.947606141629    -0.152589125707     1.007825032070
           H          4.256371699813     0.057953602314     1.186050111711     1.007825032070
           C         -4.153204381537     0.115123211762    -0.116025843325    12.000000000000
           H         -4.256428800622    -0.057641327536    -1.185918992161     1.007825032070
           H         -4.799261031154     0.947594509398     0.152989926642     1.007825032070
           H         -4.514994555709    -0.772850260922     0.399228852269     1.007825032070
           C          2.704615861074    -0.390753201384    -0.242384818375    12.000000000000
           H          2.378308326388    -1.303398813652     0.254412106341     1.007825032070
           H          2.617100842213    -0.569803304971    -1.315819781885     1.007825032070
           C         -2.704609489957     0.390706420389     0.242561137460    12.000000000000
           H         -2.378316533525     1.303469160906    -0.254030786547     1.007825032070
           H         -2.617051092037     0.569501289845     1.316035230823     1.007825032070
           C          1.792586512079     0.760551219660     0.141542047721    12.000000000000
           H          2.198384059975     1.681882400942    -0.281421920760     1.007825032070
           H          1.812449662475     0.884141212239     1.227496011305     1.007825032070
           C          0.352657871206     0.593564308943    -0.316170937014    12.000000000000
           H          0.330553286918     0.481146136964    -1.403676916065     1.007825032070
           H         -0.196485731245     1.506169699246    -0.085392879055     1.007825032070
           C         -0.352634890006    -0.593606994599     0.315943822628    12.000000000000
           H          0.196459564111    -1.506219713432     0.085076086812     1.007825032070
           H         -0.330444138842    -0.481245659799     1.403454934516     1.007825032070
           C         -1.792604225705    -0.760515227102    -0.141671905278    12.000000000000
           H         -1.812564460829    -0.883896826277    -1.227648800927     1.007825032070
           H         -2.198360319722    -1.681929913596     0.281151835057     1.007825032070

  Nuclear repulsion =  386.862234088304433
  Reference energy  = -313.543512923024707

  ==> Basis Set <==

  Basis Set: AUG-CC-PVTZ
    Number of shells: 274
    Number of basis function: 782
    Number of Cartesian functions: 890
    Spherical Harmonics?: true
    Max angular momentum: 3

  ==> CGRSolver (by Rob Parrish) <==

   Number of roots    =         1
   Preconditioning    =    JACOBI
   Convergence cutoff =     1E-06
   Maximum iterations =       100

  ==> CPHFRHamiltonian (by Rob Parrish) <== 

  ==> DFJK: Density-Fitted J/K Matrices <==

    J tasked:                  Yes
    K tasked:                  Yes
    wK tasked:                  No
    OpenMP threads:             12
    Integrals threads:          12
    Memory (MB):             21457
    Algorithm:                Core
    Integral Cache:           NONE
    Schwarz Cutoff:          1E-12
    Fitting Condition:       1E-12

   => Auxiliary Basis Set <=

  Basis Set: 
    Number of shells: 492
    Number of basis function: 1660
    Number of Cartesian functions: 2038
    Spherical Harmonics?: true
    Max angular momentum: 4

  ==> CPHF Iterations <==

  => Iterations <=

             Iter  Converged  Remaining    Residual
  CGR           1          0          1   8.885E-02
  CGR           2          0          1   1.242E-02
  CGR           3          0          1   3.112E-03
  CGR           4          0          1   7.921E-04
  CGR           5          0          1   1.516E-04
  CGR           6          0          1   3.744E-05
  CGR           7          0          1   1.077E-05
  CGR           8          0          1   2.624E-06
  CGR           9          1          0   6.471E-07

    CGRSolver converged.

  ==> DFCorrGrad: Density-Fitted Correlated Gradients <==

    OpenMP threads:             12
    Integrals threads:          12
    Memory (MB):             21457
    Schwarz Cutoff:          0E+00
    Fitting Condition:       1E-12

   => Auxiliary Basis Set <=

  Basis Set: 
    Number of shells: 492
    Number of basis function: 1660
    Number of Cartesian functions: 2038
    Spherical Harmonics?: true
    Max angular momentum: 4

	-----------------------------------------------------------
	 ==================> DF-MP2 Energies <==================== 
	-----------------------------------------------------------
	 Reference Energy          =    -313.5435129230247071 [Eh]
	 Singles Energy            =      -0.0000000000000006 [Eh]
	 Same-Spin Energy          =      -0.3158765627071721 [Eh]
	 Opposite-Spin Energy      =      -1.1238479404003143 [Eh]
	 Correlation Energy        =      -1.4397245031074870 [Eh]
	 Total Energy              =    -314.9832374261321775 [Eh]
	-----------------------------------------------------------
	 ================> DF-SCS-MP2 Energies <================== 
	-----------------------------------------------------------
	 SCS Same-Spin Scale       =       0.3333333333333333 [-]
	 SCS Opposite-Spin Scale   =       1.2000000000000000 [-]
	 SCS Same-Spin Energy      =      -0.1052921875690574 [Eh]
	 SCS Opposite-Spin Energy  =      -1.3486175284803772 [Eh]
	 SCS Correlation Energy    =      -1.4539097160494352 [Eh]
	 SCS Total Energy          =    -314.9974226390741592 [Eh]
	-----------------------------------------------------------


  -Total Gradient:
     Atom            X                  Y                   Z
    ------   -----------------  -----------------  -----------------
       1       -0.001490060463    -0.000297272645    -0.000430196980
       2       -0.000773501945    -0.001151310379     0.000592535915
       3       -0.001047102247     0.000969605364     0.000290325749
       4       -0.000458517316    -0.000251174602    -0.001443438063
       5        0.001490362918     0.000297405246     0.000430174331
       6        0.000458513246     0.000250727633     0.001443111428
       7        0.001046912223    -0.000969324729    -0.000290535081
       8        0.000773296762     0.001151093291    -0.000592085756
       9        0.000440266091     0.001673017864     0.000995817231
      10        0.000414903521     0.001494669759    -0.000354931041
      11        0.000113908552     0.000533516949     0.001473364919
      12       -0.000440650638    -0.001673438798    -0.000996272268
      13       -0.000414706930    -0.001494387875     0.000354585590
      14       -0.000114031558    -0.000532960255    -0.001472993937
      15       -0.000756370807    -0.001631464025    -0.001273811588
      16       -0.000551336226    -0.001272502006     0.000398418087
      17       -0.000169298109    -0.000524987484    -0.001362463993
      18        0.000949470630    -0.001103053235     0.001463337334
      19        0.000076395594    -0.000183023399     0.001482915025
      20        0.000695600540    -0.001287227625    -0.000007826640
      21       -0.000949560079     0.001103207016    -0.001463227643
      22       -0.000695505704     0.001286965188     0.000007636222
      23       -0.000076204298     0.000183257827    -0.001482533863
      24        0.000756772292     0.001631761876     0.001274165581
      25        0.000169368133     0.000524875842     0.001361900936
      26        0.000551075815     0.001272023204    -0.000397971496


			-----------------------------------------
			 OPTKING 2.0: for geometry optimizations 
			  - R.A. King,  Bethel University        
			-----------------------------------------

	Internal coordinates to be generated automatically.
	Detected frag 1 with atoms:  1 2 3 4 5 6 7 8 9 10 11 12 13 14 15 16 17 18 19 20
	 21 22 23 24 25 26
	---Fragment 1 Bond Connectivity---
	 1 : 2 3 4 9
	 2 : 1
	 3 : 1
	 4 : 1
	 5 : 6 7 8 12
	 6 : 5
	 7 : 5
	 8 : 5
	 9 : 1 10 11 15
	 10 : 9
	 11 : 9
	 12 : 5 13 14 24
	 13 : 12
	 14 : 12
	 15 : 9 16 17 18
	 16 : 15
	 17 : 15
	 18 : 15 19 20 21
	 19 : 18
	 20 : 18
	 21 : 18 22 23 24
	 22 : 21
	 23 : 21
	 24 : 12 21 25 26
	 25 : 24
	 26 : 24

	---Fragment 1 Geometry and Gradient---
	 C           7.8483988671       -0.2174569863        0.2195770885
	 H           8.5321124429        1.4603352665       -0.7544944761
	 H           9.0693005257       -1.7907160895       -0.2883516584
	 H           8.0433768324        0.1095164368        2.2413098910
	 C          -7.8484188550        0.2175513418       -0.2192570682
	 H          -8.0434847373       -0.1089263230       -2.2410621110
	 H          -9.0692889891        1.7906941078        0.2891090624
	 H          -8.5321032018       -1.4604753349        0.7544331951
	 C           5.1109832721       -0.7384165362       -0.4580409255
	 H           4.4943513964       -2.4630667997        0.4807692059
	 H           4.9456038539       -1.0767721960       -2.4865390280
	 C          -5.1109712324        0.7383281329        0.4583741203
	 H          -4.4943669057        2.4631997368       -0.4800486159
	 H          -4.9455098397        1.0762014701        2.4869461675
	 C           3.3874975773        1.4372335152        0.2674757065
	 H           4.1543438083        3.1782971255       -0.5318103580
	 H           3.4250334917        1.6707847539        2.3196312906
	 C           0.6664267952        1.1216739862       -0.5974764821
	 H           0.6246551846        0.9092344288       -2.6525649504
	 H          -0.3713042211        2.8462482412       -0.1613691551
	 C          -0.6663833670       -1.1217546504        0.5970472981
	 H           0.3712547724       -2.8463427543        0.1607705045
	 H          -0.6244489246       -0.9094224997        2.6521454661
	 C          -3.3875310512       -1.4371654991       -0.2677211017
	 H          -3.4252504292       -1.6703229314       -2.3199200211
	 H          -4.1542989457       -3.1783869114        0.5312999700
	            -0.0014900605       -0.0002972726       -0.0004301970
	            -0.0007735019       -0.0011513104        0.0005925359
	            -0.0010471022        0.0009696054        0.0002903257
	            -0.0004585173       -0.0002511746       -0.0014434381
	             0.0014903629        0.0002974052        0.0004301743
	             0.0004585132        0.0002507276        0.0014431114
	             0.0010469122       -0.0009693247       -0.0002905351
	             0.0007732968        0.0011510933       -0.0005920858
	             0.0004402661        0.0016730179        0.0009958172
	             0.0004149035        0.0014946698       -0.0003549310
	             0.0001139086        0.0005335169        0.0014733649
	            -0.0004406506       -0.0016734388       -0.0009962723
	            -0.0004147069       -0.0014943879        0.0003545856
	            -0.0001140316       -0.0005329603       -0.0014729939
	            -0.0007563708       -0.0016314640       -0.0012738116
	            -0.0005513362       -0.0012725020        0.0003984181
	            -0.0001692981       -0.0005249875       -0.0013624640
	             0.0009494706       -0.0011030532        0.0014633373
	             0.0000763956       -0.0001830234        0.0014829150
	             0.0006956005       -0.0012872276       -0.0000078266
	            -0.0009495601        0.0011032070       -0.0014632276
	            -0.0006955057        0.0012869652        0.0000076362
	            -0.0000762043        0.0001832578       -0.0014825339
	             0.0007567723        0.0016317619        0.0012741656
	             0.0001693681        0.0005248758        0.0013619009
	             0.0005510758        0.0012720232       -0.0003979715

	Previous optimization step data not found.  Starting new optimization.

	---Fragment 1 Intrafragment Coordinates---
	 - Coordinate -           - BOHR/RAD -       - ANG/DEG -
	 R(1,2)           =         2.057004	       1.088520
	 R(1,3)           =         2.055173	       1.087551
	 R(1,4)           =         2.057263	       1.088657
	 R(1,9)           =         2.867753	       1.517550
	 R(5,6)           =         2.057264	       1.088657
	 R(5,7)           =         2.055174	       1.087551
	 R(5,8)           =         2.057005	       1.088520
	 R(5,12)          =         2.867754	       1.517550
	 R(9,10)          =         2.058159	       1.089131
	 R(9,11)          =         2.063162	       1.091779
	 R(9,15)          =         2.868838	       1.518124
	 R(12,13)         =         2.058159	       1.089131
	 R(12,14)         =         2.063163	       1.091779
	 R(12,24)         =         2.868838	       1.518124
	 R(15,16)         =         2.063544	       1.091980
	 R(15,17)         =         2.065744	       1.093145
	 R(15,18)         =         2.872620	       1.520125
	 R(18,19)         =         2.066462	       1.093524
	 R(18,20)         =         2.059425	       1.089801
	 R(18,21)         =         2.869885	       1.518678
	 R(21,22)         =         2.059426	       1.089801
	 R(21,23)         =         2.066464	       1.093525
	 R(21,24)         =         2.872621	       1.520126
	 R(24,25)         =         2.065746	       1.093146
	 R(24,26)         =         2.063545	       1.091981
	 B(1,9,10)        =         1.907556	     109.294895
	 B(1,9,11)        =         1.916253	     109.793186
	 B(1,9,15)        =         1.956200	     112.082006
	 B(2,1,3)         =         1.885883	     108.053115
	 B(2,1,4)         =         1.879919	     107.711414
	 B(2,1,9)         =         1.932167	     110.704988
	 B(3,1,4)         =         1.884142	     107.953377
	 B(3,1,9)         =         1.949376	     111.691021
	 B(4,1,9)         =         1.930021	     110.582051
	 B(5,12,13)       =         1.907555	     109.294830
	 B(5,12,14)       =         1.916251	     109.793114
	 B(5,12,24)       =         1.956201	     112.082059
	 B(6,5,7)         =         1.884142	     107.953395
	 B(6,5,8)         =         1.879919	     107.711404
	 B(6,5,12)        =         1.930022	     110.582089
	 B(7,5,8)         =         1.885882	     108.053083
	 B(7,5,12)        =         1.949376	     111.690990
	 B(8,5,12)        =         1.932167	     110.705003
	 B(9,15,16)       =         1.895102	     108.581321
	 B(9,15,17)       =         1.902926	     109.029623
	 B(9,15,18)       =         1.992825	     114.180437
	 B(10,9,11)       =         1.861929	     106.680667
	 B(10,9,15)       =         1.917861	     109.885322
	 B(11,9,15)       =         1.901663	     108.957264
	 B(12,24,21)      =         1.992826	     114.180533
	 B(12,24,25)      =         1.902928	     109.029715
	 B(12,24,26)      =         1.895096	     108.581007
	 B(13,12,14)      =         1.861927	     106.680585
	 B(13,12,24)      =         1.917865	     109.885575
	 B(14,12,24)      =         1.901661	     108.957171
	 B(15,18,19)      =         1.906979	     109.261838
	 B(15,18,20)      =         1.898171	     108.757193
	 B(15,18,21)      =         1.982811	     113.606724
	 B(16,15,17)      =         1.857347	     106.418153
	 B(16,15,18)      =         1.905053	     109.151487
	 B(17,15,18)      =         1.905779	     109.193119
	 B(18,21,22)      =         1.909694	     109.417427
	 B(18,21,23)      =         1.900953	     108.916587
	 B(18,21,24)      =         1.982810	     113.606626
	 B(19,18,20)      =         1.861367	     106.648455
	 B(19,18,21)      =         1.900947	     108.916243
	 B(20,18,21)      =         1.909703	     109.417922
	 B(21,24,25)      =         1.905780	     109.193128
	 B(21,24,26)      =         1.905055	     109.151596
	 B(22,21,23)      =         1.861368	     106.648506
	 B(22,21,24)      =         1.898173	     108.757308
	 B(23,21,24)      =         1.906980	     109.261929
	 B(25,24,26)      =         1.857347	     106.418153
	 D(1,9,15,16)     =         0.914050	      52.371192
	 D(1,9,15,17)     =        -1.102764	     -63.183717
	 D(1,9,15,18)     =         3.043850	     174.399745
	 D(2,1,9,10)      =         3.103674	     177.827437
	 D(2,1,9,11)      =         1.066997	      61.134446
	 D(2,1,9,15)      =        -1.049006	     -60.103599
	 D(3,1,9,10)      =         1.001310	      57.370838
	 D(3,1,9,11)      =        -1.035367	     -59.322153
	 D(3,1,9,15)      =         3.131815	     179.439802
	 D(4,1,9,10)      =        -1.097386	     -62.875561
	 D(4,1,9,11)      =        -3.134062	    -179.568552
	 D(4,1,9,15)      =         1.033120	      59.193403
	 D(5,12,24,21)    =        -3.043916	    -174.403525
	 D(5,12,24,25)    =         1.102695	      63.179789
	 D(5,12,24,26)    =        -0.914116	     -52.374999
	 D(6,5,12,13)     =         1.097381	      62.875272
	 D(6,5,12,14)     =         3.134054	     179.568084
	 D(6,5,12,24)     =        -1.033130	     -59.194004
	 D(7,5,12,13)     =        -1.001316	     -57.371155
	 D(7,5,12,14)     =         1.035358	      59.321657
	 D(7,5,12,24)     =        -3.131826	    -179.440431
	 D(8,5,12,13)     =        -3.103679	    -177.827705
	 D(8,5,12,14)     =        -1.067005	     -61.134892
	 D(8,5,12,24)     =         1.048996	      60.103020
	 D(9,15,18,19)    =        -1.017641	     -58.306556
	 D(9,15,18,20)    =        -3.043124	    -174.358156
	 D(9,15,18,21)    =         1.108799	      63.529501
	 D(10,9,15,16)    =         3.038663	     174.102573
	 D(10,9,15,17)    =         1.021850	      58.547664
	 D(10,9,15,18)    =        -1.114722	     -63.868874
	 D(11,9,15,16)    =        -1.210333	     -69.346984
	 D(11,9,15,17)    =         3.056038	     175.098107
	 D(11,9,15,18)    =         0.919467	      52.681569
	 D(12,24,21,18)   =        -1.108958	     -63.538632
	 D(12,24,21,22)   =         3.042975	     174.349643
	 D(12,24,21,23)   =         1.017490	      58.297869
	 D(13,12,24,21)   =         1.114654	      63.864963
	 D(13,12,24,25)   =        -1.021920	     -58.551723
	 D(13,12,24,26)   =        -3.038732	    -174.106512
	 D(14,12,24,21)   =        -0.919535	     -52.685471
	 D(14,12,24,25)   =        -3.056109	    -175.102156
	 D(14,12,24,26)   =         1.210265	      69.343055
	 D(15,18,21,22)   =        -1.016833	     -58.260260
	 D(15,18,21,23)   =         1.011703	      57.966325
	 D(15,18,21,24)   =         3.141498	     179.994590
	 D(16,15,18,19)   =         1.106689	      63.408632
	 D(16,15,18,20)   =        -0.918793	     -52.642968
	 D(16,15,18,21)   =        -3.050056	    -174.755311
	 D(17,15,18,19)   =         3.130532	     179.366273
	 D(17,15,18,20)   =         1.105050	      63.314673
	 D(17,15,18,21)   =        -1.026213	     -58.797670
	 D(18,21,24,25)   =         1.026057	      58.788733
	 D(18,21,24,26)   =         3.049901	     174.746439
	 D(19,18,21,22)   =         1.112956	      63.767702
	 D(19,18,21,23)   =         3.141493	     179.994288
	 D(19,18,21,24)   =        -1.011897	     -57.977448
	 D(20,18,21,22)   =         3.141493	     179.994309
	 D(20,18,21,23)   =        -1.113155	     -63.779106
	 D(20,18,21,24)   =         1.016640	      58.249159
	 D(22,21,24,25)   =        -1.105195	     -63.322992
	 D(22,21,24,26)   =         0.918649	      52.634714
	 D(23,21,24,25)   =        -3.130680	    -179.374766
	 D(23,21,24,26)   =        -1.106837	     -63.417060

	Current energy   :      -314.9832374261

	Generating empirical Hessian (Schlegel '84) for each fragment.
	Taking RFO optimization step.
	Going to follow RFO solution 1.
	Using RFO vector 1.
	Norm of target step-size    0.09914
	Projected energy change by RFO approximation:        -0.0004889545

	Back-transformation to cartesian coordinates...
	Could not converge backtransformation.
	Using first guess instead.

	--- Internal Coordinate Step in ANG or DEG, aJ/ANG or AJ/DEG ---
	 ---------------------------------------------------------------------------
	   Coordinate                Previous        Force       Change         New 
	   ----------                --------       ------       ------       ------
	    1 R(1,2)          =      1.088520     0.012167     0.002325     1.090845
	    2 R(1,3)          =      1.087551     0.011831     0.002198     1.089749
	    3 R(1,4)          =      1.088657     0.012374     0.002344     1.091001
	    4 R(1,9)          =      1.517550     0.032663     0.006906     1.524456
	    5 R(5,6)          =      1.088657     0.012370     0.002343     1.091000
	    6 R(5,7)          =      1.087551     0.011829     0.002198     1.089749
	    7 R(5,8)          =      1.088520     0.012163     0.002324     1.090844
	    8 R(5,12)         =      1.517550     0.032662     0.006906     1.524456
	    9 R(9,10)         =      1.089131     0.012677     0.002426     1.091557
	   10 R(9,11)         =      1.091779     0.012731     0.002427     1.094206
	   11 R(9,15)         =      1.518124     0.034763     0.007327     1.525450
	   12 R(12,13)        =      1.089131     0.012674     0.002425     1.091556
	   13 R(12,14)        =      1.091779     0.012727     0.002426     1.094205
	   14 R(12,24)        =      1.518124     0.034761     0.007326     1.525450
	   15 R(15,16)        =      1.091980     0.011805     0.002198     1.094178
	   16 R(15,17)        =      1.093145     0.011665     0.002172     1.095317
	   17 R(15,18)        =      1.520125     0.036558     0.007721     1.527846
	   18 R(18,19)        =      1.093524     0.012008     0.002301     1.095826
	   19 R(18,20)        =      1.089801     0.011782     0.002305     1.092105
	   20 R(18,21)        =      1.518678     0.035555     0.007643     1.526321
	   21 R(21,22)        =      1.089801     0.011779     0.002304     1.092106
	   22 R(21,23)        =      1.093525     0.012005     0.002301     1.095827
	   23 R(21,24)        =      1.520126     0.036555     0.007721     1.527846
	   24 R(24,25)        =      1.093146     0.011660     0.002171     1.095317
	   25 R(24,26)        =      1.091981     0.011799     0.002196     1.094178
	   26 B(1,9,10)       =    109.294895    -0.000001     0.000937   109.295832
	   27 B(1,9,11)       =    109.793186     0.000002    -0.008037   109.785150
	   28 B(1,9,15)       =    112.082006    -0.000008     0.012742   112.094748
	   29 B(2,1,3)        =    108.053115    -0.000023    -0.122696   107.930419
	   30 B(2,1,4)        =    107.711414    -0.000023    -0.086931   107.624483
	   31 B(2,1,9)        =    110.704988     0.000024     0.117830   110.822817
	   32 B(3,1,4)        =    107.953377    -0.000022    -0.103874   107.849502
	   33 B(3,1,9)        =    111.691021     0.000014     0.052433   111.743453
	   34 B(4,1,9)        =    110.582051     0.000026     0.127283   110.709334
	   35 B(5,12,13)      =    109.294830    -0.000001     0.000937   109.295767
	   36 B(5,12,14)      =    109.793114     0.000002    -0.008045   109.785069
	   37 B(5,12,24)      =    112.082059    -0.000008     0.012772   112.094831
	   38 B(6,5,7)        =    107.953395    -0.000022    -0.103896   107.849498
	   39 B(6,5,8)        =    107.711404    -0.000023    -0.086916   107.624488
	   40 B(6,5,12)       =    110.582089     0.000026     0.127271   110.709359
	   41 B(7,5,8)        =    108.053083    -0.000023    -0.122701   107.930382
	   42 B(7,5,12)       =    111.690990     0.000014     0.052486   111.743477
	   43 B(8,5,12)       =    110.705003     0.000024     0.117800   110.822803
	   44 B(9,15,16)      =    108.581321    -0.000020    -0.132056   108.449265
	   45 B(9,15,17)      =    109.029623    -0.000003     0.117033   109.146656
	   46 B(9,15,18)      =    114.180437     0.000047     0.214822   114.395259
	   47 B(10,9,11)      =    106.680667    -0.000014    -0.190799   106.489868
	   48 B(10,9,15)      =    109.885322     0.000014     0.116113   110.001435
	   49 B(11,9,15)      =    108.957264     0.000007     0.058921   109.016185
	   50 B(12,24,21)     =    114.180533     0.000047     0.214744   114.395277
	   51 B(12,24,25)     =    109.029715    -0.000003     0.117039   109.146754
	   52 B(12,24,26)     =    108.581007    -0.000020    -0.131961   108.449046
	   53 B(13,12,14)     =    106.680585    -0.000014    -0.190722   106.489862
	   54 B(13,12,24)     =    109.885575     0.000014     0.116116   110.001691
	   55 B(14,12,24)     =    108.957171     0.000007     0.058821   109.015992
	   56 B(15,18,19)     =    109.261838    -0.000017    -0.021330   109.240508
	   57 B(15,18,20)     =    108.757193    -0.000013    -0.081550   108.675643
	   58 B(15,18,21)     =    113.606724     0.000042     0.193981   113.800704
	   59 B(16,15,17)     =    106.418153    -0.000004    -0.204186   106.213966
	   60 B(16,15,18)     =    109.151487    -0.000012    -0.087493   109.063994
	   61 B(17,15,18)     =    109.193119    -0.000012     0.059735   109.252854
	   62 B(18,21,22)     =    109.417427    -0.000011    -0.031606   109.385821
	   63 B(18,21,23)     =    108.916587     0.000002     0.123449   109.040036
	   64 B(18,21,24)     =    113.606626     0.000042     0.193959   113.800585
	   65 B(19,18,20)     =    106.648455    -0.000006    -0.210199   106.438257
	   66 B(19,18,21)     =    108.916243     0.000002     0.123491   109.039734
	   67 B(20,18,21)     =    109.417922    -0.000011    -0.031782   109.386141
	   68 B(21,24,25)     =    109.193128    -0.000012     0.059760   109.252888
	   69 B(21,24,26)     =    109.151596    -0.000012    -0.087493   109.064103
	   70 B(22,21,23)     =    106.648506    -0.000006    -0.210262   106.438244
	   71 B(22,21,24)     =    108.757308    -0.000013    -0.081482   108.675827
	   72 B(23,21,24)     =    109.261929    -0.000017    -0.021450   109.240479
	   73 B(25,24,26)     =    106.418153    -0.000004    -0.204235   106.213917
	   74 D(1,9,15,16)    =     52.371192    -0.000001     0.534247    52.905439
	   75 D(1,9,15,17)    =    -63.183717     0.000003     0.785365   -62.398353
	   76 D(1,9,15,18)    =    174.399745    -0.000000     0.468960   174.868704
	   77 D(2,1,9,10)     =    177.827437    -0.000003    -0.080522   177.746916
	   78 D(2,1,9,11)     =     61.134446     0.000001     0.153759    61.288206
	   79 D(2,1,9,15)     =    -60.103599     0.000000     0.076057   -60.027542
	   80 D(3,1,9,10)     =     57.370838    -0.000002    -0.040721    57.330117
	   81 D(3,1,9,11)     =    -59.322153     0.000002     0.193560   -59.128593
	   82 D(3,1,9,15)     =    179.439802     0.000001     0.115858   179.555659
	   83 D(4,1,9,10)     =    -62.875561    -0.000002    -0.030795   -62.906356
	   84 D(4,1,9,11)     =   -179.568552     0.000002     0.203485  -179.365066
	   85 D(4,1,9,15)     =     59.193403     0.000001     0.125783    59.319187
	   86 D(5,12,24,21)   =   -174.403525     0.000000    -0.467747  -174.871273
	   87 D(5,12,24,25)   =     63.179789    -0.000003    -0.784138    62.395651
	   88 D(5,12,24,26)   =    -52.374999     0.000001    -0.533017   -52.908016
	   89 D(6,5,12,13)    =     62.875272     0.000002     0.030664    62.905935
	   90 D(6,5,12,14)    =    179.568084    -0.000002    -0.203529   179.364555
	   91 D(6,5,12,24)    =    -59.194004    -0.000001    -0.125939   -59.319943
	   92 D(7,5,12,13)    =    -57.371155     0.000002     0.040590   -57.330565
	   93 D(7,5,12,14)    =     59.321657    -0.000002    -0.193602    59.128055
	   94 D(7,5,12,24)    =   -179.440431    -0.000001    -0.116013  -179.556444
	   95 D(8,5,12,13)    =   -177.827705     0.000003     0.080381  -177.747323
	   96 D(8,5,12,14)    =    -61.134892    -0.000001    -0.153811   -61.288703
	   97 D(8,5,12,24)    =     60.103020    -0.000000    -0.076222    60.026798
	   98 D(9,15,18,19)   =    -58.306556    -0.000001     0.941624   -57.364931
	   99 D(9,15,18,20)   =   -174.358156     0.000005     1.248856  -173.109300
	  100 D(9,15,18,21)   =     63.529501     0.000004     1.218215    64.747716
	  101 D(10,9,15,16)   =    174.102573    -0.000000     0.625612   174.728186
	  102 D(10,9,15,17)   =     58.547664     0.000004     0.876730    59.424394
	  103 D(10,9,15,18)   =    -63.868874     0.000000     0.560325   -63.308549
	  104 D(11,9,15,16)   =    -69.346984    -0.000002     0.495386   -68.851597
	  105 D(11,9,15,17)   =    175.098107     0.000003     0.746504   175.844611
	  106 D(11,9,15,18)   =     52.681569    -0.000001     0.430099    53.111668
	  107 D(12,24,21,18)  =    -63.538632    -0.000004    -1.215028   -64.753660
	  108 D(12,24,21,22)  =    174.349643    -0.000005    -1.245930   173.103713
	  109 D(12,24,21,23)  =     58.297869     0.000001    -0.938594    57.359275
	  110 D(13,12,24,21)  =     63.864963    -0.000000    -0.559136    63.305827
	  111 D(13,12,24,25)  =    -58.551723    -0.000004    -0.875526   -59.427249
	  112 D(13,12,24,26)  =   -174.106512     0.000000    -0.624405  -174.730917
	  113 D(14,12,24,21)  =    -52.685471     0.000001    -0.428947   -53.114417
	  114 D(14,12,24,25)  =   -175.102156    -0.000002    -0.745337  -175.847493
	  115 D(14,12,24,26)  =     69.343055     0.000002    -0.494216    68.848839
	  116 D(15,18,21,22)  =    -58.260260     0.000001     0.006143   -58.254117
	  117 D(15,18,21,23)  =     57.966325    -0.000002    -0.193869    57.772456
	  118 D(15,18,21,24)  =    179.994590     0.000000     0.001408   179.995998
	  119 D(16,15,18,19)  =     63.408632    -0.000001     0.852951    64.261583
	  120 D(16,15,18,20)  =    -52.642968     0.000004     1.160182   -51.482786
	  121 D(16,15,18,21)  =   -174.755311     0.000003     1.129541  -173.625770
	  122 D(17,15,18,19)  =    179.366273    -0.000005     0.593448   179.959721
	  123 D(17,15,18,20)  =     63.314673     0.000000     0.900680    64.215353
	  124 D(17,15,18,21)  =    -58.797670    -0.000001     0.870039   -57.927631
	  125 D(18,21,24,25)  =     58.788733     0.000001    -0.866878    57.921855
	  126 D(18,21,24,26)  =    174.746439    -0.000003    -1.126425   173.620015
	  127 D(19,18,21,22)  =     63.767702     0.000003     0.201618    63.969320
	  128 D(19,18,21,23)  =    179.994288     0.000000     0.001606   179.995893
	  129 D(19,18,21,24)  =    -57.977448     0.000002     0.196883   -57.780565
	  130 D(20,18,21,22)  =    179.994309     0.000000     0.001608   179.995917
	  131 D(20,18,21,23)  =    -63.779106    -0.000003    -0.198404   -63.977510
	  132 D(20,18,21,24)  =     58.249159    -0.000001    -0.003127    58.246032
	  133 D(22,21,24,25)  =    -63.322992    -0.000000    -0.897780   -64.220772
	  134 D(22,21,24,26)  =     52.634714    -0.000004    -1.157326    51.477388
	  135 D(23,21,24,25)  =   -179.374766     0.000005    -0.590444  -179.965210
	  136 D(23,21,24,26)  =    -63.417060     0.000001    -0.849991   -64.267051
	 ---------------------------------------------------------------------------

  ==> Convergence Check <==

  Measures of convergence in internal coordinates in au.
  Criteria marked as inactive (o), active & met (*), and active & unmet ( ).
  --------------------------------------------------------------------------------------------- ~
   Step     Total Energy     Delta E     MAX Force     RMS Force      MAX Disp      RMS Disp    ~
  --------------------------------------------------------------------------------------------- ~
    Convergence Criteria             o    2.00e-06 *    1.00e-06 *    6.00e-06 *    4.00e-06 *  ~
  --------------------------------------------------------------------------------------------- ~
      1    -314.98323743   -3.15e+02 o    4.44e-03      1.11e-03      2.18e-02      8.50e-03    ~
  ---------------------------------------------------------------------------------------------

	Writing optimization data to binary file.
	Structure for next step:
	Cartesian Geometry (in Angstrom)
	    C     4.1814854689  -0.1144029885   0.1202327239
	    H     4.5468359400   0.7814968359  -0.3835784349
	    H     4.8344822397  -0.9429117838  -0.1531201391
	    H     4.2790253845   0.0478317006   1.1946856868
	    C    -4.1814916924   0.1144498119  -0.1201090532
	    H    -4.2790691785  -0.0475994350  -1.1945855387
	    H    -4.8344718113   0.9429168141   0.1534078615
	    H    -4.5468331546  -0.7815321373   0.3835602369
	    C     2.7299076811  -0.3923944495  -0.2534086642
	    H     2.4027451880  -1.3139404348   0.2315804427
	    H     2.6511927211  -0.5638015126  -1.3312350371
	    C    -2.7298989921   0.3923637395   0.2535318104
	    H    -2.4027433046   1.3139850288  -0.2313159114
	    H    -2.6511496307   0.5635936262   1.3313826264
	    C     1.8068478031   0.7580831835   0.1356415468
	    H     2.2104871543   1.6836119059  -0.2859002383
	    H     1.8274621025   0.8830499306   1.2236106442
	    C     0.3598105678   0.5894990425  -0.3247674240
	    H     0.3393639872   0.4652128097  -1.4133303564
	    H    -0.1855234219   1.5106792798  -0.1085916803
	    C    -0.3597970489  -0.5895385360   0.3246094650
	    H     0.1855013077  -1.5107249889   0.1083695493
	    H    -0.3392893183  -0.4652945973   1.4131766987
	    C    -1.8068639976  -0.7580619981  -0.1357289388
	    H    -1.8275485260  -0.8828883784  -1.2237129268
	    H    -2.2104790472  -1.6836438222   0.2857183568
			--------------------------
			 OPTKING Finished Execution 
			--------------------------

    Structure for next step:
    Molecular point group: c1
    Full point group: C1

    Geometry (in Angstrom), charge = 0, multiplicity = 1:

    C            4.181485591383    -0.114403118358     0.120231493948
    H            4.546836062436     0.781496706006    -0.383579664857
    H            4.834482362203    -0.942911913669    -0.153121369073
    H            4.279025506921     0.047831570671     1.194684456837
    C           -4.181491569906     0.114449682053    -0.120110283128
    H           -4.279069056037    -0.047599564919    -1.194586768577
    H           -4.834471688824     0.942916684261     0.153406631549
    H           -4.546833032113    -0.781532267192     0.383559007018
    C            2.729907803532    -0.392394579377    -0.253409894155
    H            2.402745310507    -1.313940564703     0.231579212823
    H            2.651192843554    -0.563801642455    -1.331236266987
    C           -2.729898869632     0.392363609587     0.253530580468
    H           -2.402743182151     1.313984898933    -0.231317141357
    H           -2.651149508245     0.563593496315     1.331381396450
    C            1.806847925541     0.758083053615     0.135640316886
    H            2.210487276781     1.683611776043    -0.285901468188
    H            1.827462224917     0.883049800754     1.223609414247
    C            0.359810690252     0.589498912596    -0.324768653892
    H            0.339364109673     0.465212679775    -1.413331586345
    H           -0.185523299444     1.510679149946    -0.108592910231
    C           -0.359796926460    -0.589538665876     0.324608235090
    H            0.185501430129    -1.510725118807     0.108368319408
    H           -0.339289195789    -0.465294727229     1.413175468745
    C           -1.806863875087    -0.758062127955    -0.135730168697
    H           -1.827548403564    -0.882888508312    -1.223714156738
    H           -2.210478924717    -1.683643952135     0.285717126858

gradient() will perform analytic gradient computation.

*** tstart() called on wr39
*** at Tue Sep 20 16:52:04 2016


         ---------------------------------------------------------
                                   SCF
            by Justin Turney, Rob Parrish, and Andy Simmonett
                              RHF Reference
                       12 Threads,  30000 MiB Core
         ---------------------------------------------------------

  ==> Geometry <==

    Molecular point group: c1
    Full point group: C1

    Geometry (in Angstrom), charge = 0, multiplicity = 1:

       Center              X                  Y                   Z               Mass       
    ------------   -----------------  -----------------  -----------------  -----------------
           C          4.181485591383    -0.114403118358     0.120231493948    12.000000000000
           H          4.546836062436     0.781496706006    -0.383579664857     1.007825032070
           H          4.834482362203    -0.942911913669    -0.153121369073     1.007825032070
           H          4.279025506921     0.047831570671     1.194684456837     1.007825032070
           C         -4.181491569906     0.114449682053    -0.120110283128    12.000000000000
           H         -4.279069056037    -0.047599564919    -1.194586768577     1.007825032070
           H         -4.834471688824     0.942916684261     0.153406631549     1.007825032070
           H         -4.546833032113    -0.781532267192     0.383559007018     1.007825032070
           C          2.729907803532    -0.392394579377    -0.253409894155    12.000000000000
           H          2.402745310507    -1.313940564703     0.231579212823     1.007825032070
           H          2.651192843554    -0.563801642455    -1.331236266987     1.007825032070
           C         -2.729898869632     0.392363609587     0.253530580468    12.000000000000
           H         -2.402743182151     1.313984898933    -0.231317141357     1.007825032070
           H         -2.651149508245     0.563593496315     1.331381396450     1.007825032070
           C          1.806847925541     0.758083053615     0.135640316886    12.000000000000
           H          2.210487276781     1.683611776043    -0.285901468188     1.007825032070
           H          1.827462224917     0.883049800754     1.223609414247     1.007825032070
           C          0.359810690252     0.589498912596    -0.324768653892    12.000000000000
           H          0.339364109673     0.465212679775    -1.413331586345     1.007825032070
           H         -0.185523299444     1.510679149946    -0.108592910231     1.007825032070
           C         -0.359796926460    -0.589538665876     0.324608235090    12.000000000000
           H          0.185501430129    -1.510725118807     0.108368319408     1.007825032070
           H         -0.339289195789    -0.465294727229     1.413175468745     1.007825032070
           C         -1.806863875087    -0.758062127955    -0.135730168697    12.000000000000
           H         -1.827548403564    -0.882888508312    -1.223714156738     1.007825032070
           H         -2.210478924717    -1.683643952135     0.285717126858     1.007825032070

  Running in c1 symmetry.

  Rotational constants: A =      0.26093  B =      0.01944  C =      0.01886 [cm^-1]
  Rotational constants: A =   7822.50489  B =    582.68977  C =    565.33786 [MHz]
  Nuclear repulsion =  384.794113525584578

  Charge       = 0
  Multiplicity = 1
  Electrons    = 66
  Nalpha       = 33
  Nbeta        = 33

  ==> Algorithm <==

  SCF Algorithm Type is DF.
  DIIS enabled.
  MOM disabled.
  Fractional occupation disabled.
  Guess Type is READ.
  Energy threshold   = 1.00e-10
  Density threshold  = 1.00e-10
  Integral threshold = 0.00e+00

  ==> Primary Basis <==

  Basis Set: AUG-CC-PVTZ
    Number of shells: 274
    Number of basis function: 782
    Number of Cartesian functions: 890
    Spherical Harmonics?: true
    Max angular momentum: 3

  ==> Pre-Iterations <==

   -------------------------------------------------------
    Irrep   Nso     Nmo     Nalpha   Nbeta   Ndocc  Nsocc
   -------------------------------------------------------
     A        782     782       0       0       0       0
   -------------------------------------------------------
    Total     782     782      33      33      33       0
   -------------------------------------------------------

  ==> Integral Setup <==

  ==> DFJK: Density-Fitted J/K Matrices <==

    J tasked:                  Yes
    K tasked:                  Yes
    wK tasked:                  No
    OpenMP threads:             12
    Integrals threads:          12
    Memory (MB):             21457
    Algorithm:                Core
    Integral Cache:           NONE
    Schwarz Cutoff:          1E-12
    Fitting Condition:       1E-12

   => Auxiliary Basis Set <=

  Basis Set: 
    Number of shells: 492
    Number of basis function: 1660
    Number of Cartesian functions: 2038
    Spherical Harmonics?: true
    Max angular momentum: 4

  Minimum eigenvalue in the overlap matrix is 1.8471609085E-06.
  Using Symmetric Orthogonalization.
  SCF Guess: Reading in previously saved MOs, projecting if necessary.

  Using orbitals from previous SCF, no projection.
  Recomputing DOCC and SOCC from number of alpha and beta electrons from previous calculation.
              A 
    DOCC [    33 ]

  ==> Iterations <==

                           Total Energy        Delta E     RMS |[F,P]|

   @DF-RHF iter   0:  -313.49130496435151   -3.13491e+02   6.97299e-05 
   @DF-RHF iter   1:  -313.54373561039966   -5.24306e-02   1.80619e-05 
   @DF-RHF iter   2:  -313.54385903380086   -1.23423e-04   8.79038e-06 DIIS
   @DF-RHF iter   3:  -313.54388444108139   -2.54073e-05   1.77591e-06 DIIS
   @DF-RHF iter   4:  -313.54388698248664   -2.54141e-06   3.42735e-07 DIIS
   @DF-RHF iter   5:  -313.54388705979130   -7.73047e-08   1.13100e-07 DIIS
   @DF-RHF iter   6:  -313.54388706656454   -6.77323e-09   2.34199e-08 DIIS
   @DF-RHF iter   7:  -313.54388706693425   -3.69710e-10   5.78753e-09 DIIS
   @DF-RHF iter   8:  -313.54388706695232   -1.80762e-11   1.57991e-09 DIIS
   @DF-RHF iter   9:  -313.54388706695312   -7.95808e-13   3.09923e-10 DIIS
   @DF-RHF iter  10:  -313.54388706695357   -4.54747e-13   7.18195e-11 DIIS

  ==> Post-Iterations <==

    Orbital Energies (a.u.)
    -----------------------

    Doubly Occupied:                                                      

       1A    -11.212051     2A    -11.212050     3A    -11.210781  
       4A    -11.210677     5A    -11.210144     6A    -11.209626  
       7A    -11.207047     8A    -11.207047     9A     -1.093282  
      10A     -1.060592    11A     -1.009610    12A     -0.950143  
      13A     -0.873933    14A     -0.832227    15A     -0.790673  
      16A     -0.761838    17A     -0.633285    18A     -0.633224  
      19A     -0.616450    20A     -0.591715    21A     -0.578486  
      22A     -0.553816    23A     -0.545215    24A     -0.540916  
      25A     -0.510300    26A     -0.503608    27A     -0.478466  
      28A     -0.477328    29A     -0.468461    30A     -0.458196  
      31A     -0.453597    32A     -0.439182    33A     -0.433050  

    Virtual:                                                              

      34A      0.031537    35A      0.032652    36A      0.034124  
      37A      0.036946    38A      0.043995    39A      0.046995  
      40A      0.048812    41A      0.054106    42A      0.058518  
      43A      0.063335    44A      0.064399    45A      0.066597  
      46A      0.071587    47A      0.085980    48A      0.089628  
      49A      0.094594    50A      0.094667    51A      0.100325  
      52A      0.112556    53A      0.115894    54A      0.122602  
      55A      0.124026    56A      0.125603    57A      0.126323  
      58A      0.132638    59A      0.139408    60A      0.142252  
      61A      0.142608    62A      0.144421    63A      0.148690  
      64A      0.156124    65A      0.157616    66A      0.158605  
      67A      0.165089    68A      0.168190    69A      0.175754  
      70A      0.178348    71A      0.179776    72A      0.184138  
      73A      0.190804    74A      0.198647    75A      0.204235  
      76A      0.213441    77A      0.226243    78A      0.227667  
      79A      0.229707    80A      0.232634    81A      0.241124  
      82A      0.243571    83A      0.254150    84A      0.264714  
      85A      0.264808    86A      0.271645    87A      0.273001  
      88A      0.280246    89A      0.281442    90A      0.287510  
      91A      0.293247    92A      0.294588    93A      0.305083  
      94A      0.306714    95A      0.317089    96A      0.319179  
      97A      0.324397    98A      0.325746    99A      0.336592  
     100A      0.340395   101A      0.342704   102A      0.347085  
     103A      0.349187   104A      0.354842   105A      0.357249  
     106A      0.360967   107A      0.362883   108A      0.362939  
     109A      0.368633   110A      0.370756   111A      0.372027  
     112A      0.375984   113A      0.377133   114A      0.386550  
     115A      0.389096   116A      0.393702   117A      0.396552  
     118A      0.397877   119A      0.401149   120A      0.403200  
     121A      0.408028   122A      0.411618   123A      0.416124  
     124A      0.427201   125A      0.430476   126A      0.434074  
     127A      0.441826   128A      0.441996   129A      0.444887  
     130A      0.445488   131A      0.452617   132A      0.455408  
     133A      0.462546   134A      0.463665   135A      0.466162  
     136A      0.469961   137A      0.470851   138A      0.472110  
     139A      0.474050   140A      0.478253   141A      0.489062  
     142A      0.493013   143A      0.494917   144A      0.495471  
     145A      0.504044   146A      0.506685   147A      0.509081  
     148A      0.512177   149A      0.514953   150A      0.516964  
     151A      0.523142   152A      0.526969   153A      0.530723  
     154A      0.532758   155A      0.532792   156A      0.539313  
     157A      0.545500   158A      0.545894   159A      0.552799  
     160A      0.557042   161A      0.569073   162A      0.571934  
     163A      0.575038   164A      0.577291   165A      0.583896  
     166A      0.586039   167A      0.597192   168A      0.599497  
     169A      0.605282   170A      0.606282   171A      0.613705  
     172A      0.618170   173A      0.622204   174A      0.624841  
     175A      0.632660   176A      0.643553   177A      0.648084  
     178A      0.656663   179A      0.658279   180A      0.660655  
     181A      0.666090   182A      0.671561   183A      0.677431  
     184A      0.679736   185A      0.684947   186A      0.692584  
     187A      0.693742   188A      0.707997   189A      0.712979  
     190A      0.717742   191A      0.719392   192A      0.724089  
     193A      0.728726   194A      0.733072   195A      0.752756  
     196A      0.764289   197A      0.776183   198A      0.781704  
     199A      0.794624   200A      0.794737   201A      0.808169  
     202A      0.816232   203A      0.820124   204A      0.833234  
     205A      0.836966   206A      0.837578   207A      0.840817  
     208A      0.841841   209A      0.856191   210A      0.856903  
     211A      0.865127   212A      0.868568   213A      0.868773  
     214A      0.876489   215A      0.880407   216A      0.880908  
     217A      0.890967   218A      0.894833   219A      0.904049  
     220A      0.907086   221A      0.908888   222A      0.910017  
     223A      0.913555   224A      0.915589   225A      0.923262  
     226A      0.933045   227A      0.934305   228A      0.935826  
     229A      0.943350   230A      0.949689   231A      0.958873  
     232A      0.959420   233A      0.960141   234A      0.960175  
     235A      0.968550   236A      0.977578   237A      0.977828  
     238A      0.988239   239A      0.992073   240A      0.994567  
     241A      1.000093   242A      1.009638   243A      1.011224  
     244A      1.017186   245A      1.019303   246A      1.028921  
     247A      1.030083   248A      1.031150   249A      1.043969  
     250A      1.047288   251A      1.058897   252A      1.060478  
     253A      1.070262   254A      1.081664   255A      1.084075  
     256A      1.090004   257A      1.091199   258A      1.094245  
     259A      1.095418   260A      1.108011   261A      1.113637  
     262A      1.115591   263A      1.125126   264A      1.125398  
     265A      1.134083   266A      1.140569   267A      1.143284  
     268A      1.147986   269A      1.150647   270A      1.151373  
     271A      1.157146   272A      1.171439   273A      1.171919  
     274A      1.177112   275A      1.183781   276A      1.184763  
     277A      1.187811   278A      1.188797   279A      1.200758  
     280A      1.202787   281A      1.208024   282A      1.219960  
     283A      1.226423   284A      1.233536   285A      1.239472  
[...]
	 D(13,12,24,25)   =        -1.051427	     -60.242304
	 D(13,12,24,26)   =        -3.066734	    -175.710919
	 D(14,12,24,21)   =        -0.945506	     -54.173481
	 D(14,12,24,25)   =        -3.085343	    -176.777122
	 D(14,12,24,26)   =         1.182535	      67.754263
	 D(15,18,21,22)   =        -1.016842	     -58.260767
	 D(15,18,21,23)   =         1.010590	      57.902526
	 D(15,18,21,24)   =         3.141593	     180.000000
	 D(16,15,18,19)   =         1.128961	      64.684689
	 D(16,15,18,20)   =        -0.893789	     -51.210359
	 D(16,15,18,21)   =        -3.025207	    -173.331568
	 D(17,15,18,19)   =        -3.131766	    -179.436973
	 D(17,15,18,20)   =         1.128669	      64.667979
	 D(17,15,18,21)   =        -1.002748	     -57.453229
	 D(18,21,24,25)   =         1.002741	      57.452831
	 D(18,21,24,26)   =         3.025200	     173.331179
	 D(19,18,21,22)   =         1.114160	      63.836653
	 D(19,18,21,23)   =         3.141593	     180.000000
	 D(19,18,21,24)   =        -1.010592	     -57.902629
	 D(20,18,21,22)   =         3.141593	     180.000000
	 D(20,18,21,23)   =        -1.114162	     -63.836788
	 D(20,18,21,24)   =         1.016840	      58.260638
	 D(22,21,24,25)   =        -1.128675	     -64.668340
	 D(22,21,24,26)   =         0.893783	      51.210008
	 D(23,21,24,25)   =         3.131759	     179.436589
	 D(23,21,24,26)   =        -1.128967	     -64.685063

	Current energy   :      -314.9835080871

	Energy change for the previous step:
		Projected    :        -0.0000000001
		Actual       :        -0.0000000001
	Energy ratio indicates good step: Trust radius increased to 1.000e+00.


	Performing BFGS update.
	Previous computed or guess Hessian on step 1.
	Denominators (dg)(dq) or (dq)(dq) are very small.
	 Skipping Hessian update for step 9.
	Denominators (dg)(dq) or (dq)(dq) are very small.
	 Skipping Hessian update for step 8.
	Denominators (dg)(dq) or (dq)(dq) are very small.
	 Skipping Hessian update for step 7.
	Denominators (dg)(dq) or (dq)(dq) are very small.
	 Skipping Hessian update for step 6.
	Denominators (dg)(dq) or (dq)(dq) are very small.
	 Skipping Hessian update for step 5.
	Steps to be used in Hessian update: 4 3
	Taking RFO optimization step.
	Going to follow RFO solution 1.
	Using RFO vector 1.
	Norm of target step-size    0.00002
	Projected energy change by RFO approximation:        -0.0000000000

	Back-transformation to cartesian coordinates...
	Successfully converged to displaced geometry.
	First geometry is closer to target in internal coordinates, so am using that one.
	First geometry has RMS(Delta(q)) = 4.53e-08

	--- Internal Coordinate Step in ANG or DEG, aJ/ANG or AJ/DEG ---
	 ---------------------------------------------------------------------------
	   Coordinate                Previous        Force       Change         New 
	   ----------                --------       ------       ------       ------
	    1 R(1,2)          =      1.090701     0.000000     0.000000     1.090701
	    2 R(1,3)          =      1.089713     0.000001     0.000000     1.089713
	    3 R(1,4)          =      1.090797     0.000001     0.000000     1.090797
	    4 R(1,9)          =      1.524056    -0.000000    -0.000000     1.524056
	    5 R(5,6)          =      1.090797     0.000001     0.000000     1.090797
	    6 R(5,7)          =      1.089713     0.000001     0.000000     1.089713
	    7 R(5,8)          =      1.090701     0.000001     0.000000     1.090701
	    8 R(5,12)         =      1.524057     0.000000     0.000000     1.524057
	    9 R(9,10)         =      1.091448     0.000000     0.000000     1.091448
	   10 R(9,11)         =      1.093861     0.000000     0.000000     1.093861
	   11 R(9,15)         =      1.524775     0.000001     0.000000     1.524775
	   12 R(12,13)        =      1.091448     0.000001     0.000000     1.091448
	   13 R(12,14)        =      1.093861     0.000002     0.000000     1.093861
	   14 R(12,24)        =      1.524775     0.000002     0.000000     1.524775
	   15 R(15,16)        =      1.094053    -0.000001    -0.000000     1.094053
	   16 R(15,17)        =      1.095114    -0.000001    -0.000000     1.095114
	   17 R(15,18)        =      1.527392    -0.000002    -0.000000     1.527391
	   18 R(18,19)        =      1.095499    -0.000002    -0.000000     1.095498
	   19 R(18,20)        =      1.091999    -0.000002    -0.000000     1.091999
	   20 R(18,21)        =      1.525479    -0.000001    -0.000000     1.525479
	   21 R(21,22)        =      1.091999    -0.000001    -0.000000     1.091999
	   22 R(21,23)        =      1.095499    -0.000001    -0.000000     1.095499
	   23 R(21,24)        =      1.527392    -0.000000     0.000000     1.527392
	   24 R(24,25)        =      1.095114     0.000002     0.000000     1.095114
	   25 R(24,26)        =      1.094053     0.000002     0.000000     1.094053
	   26 B(1,9,10)       =    109.320008    -0.000000    -0.000003   109.320006
	   27 B(1,9,11)       =    109.775845     0.000000     0.000017   109.775862
	   28 B(1,9,15)       =    111.994720     0.000000     0.000019   111.994739
	   29 B(2,1,3)        =    107.964549     0.000000     0.000003   107.964552
	   30 B(2,1,4)        =    107.682824     0.000000     0.000008   107.682832
	   31 B(2,1,9)        =    110.777601    -0.000000    -0.000005   110.777596
	   32 B(3,1,4)        =    107.895425    -0.000000    -0.000005   107.895420
	   33 B(3,1,9)        =    111.686698    -0.000000    -0.000009   111.686689
	   34 B(4,1,9)        =    110.680733     0.000000     0.000008   110.680741
	   35 B(5,12,13)      =    109.320004    -0.000000    -0.000025   109.319979
	   36 B(5,12,14)      =    109.775865    -0.000000     0.000001   109.775867
	   37 B(5,12,24)      =    111.994708     0.000000     0.000047   111.994755
	   38 B(6,5,7)        =    107.895426     0.000000     0.000000   107.895427
	   39 B(6,5,8)        =    107.682824     0.000000     0.000006   107.682831
	   40 B(6,5,12)       =    110.680742    -0.000000    -0.000008   110.680734
	   41 B(7,5,8)        =    107.964550     0.000000     0.000002   107.964552
	   42 B(7,5,12)       =    111.686690     0.000000    -0.000000   111.686690
	   43 B(8,5,12)       =    110.777598     0.000000    -0.000000   110.777597
	   44 B(9,15,16)      =    108.473795     0.000000    -0.000005   108.473790
	   45 B(9,15,17)      =    109.148591     0.000000     0.000040   109.148631
	   46 B(9,15,18)      =    114.213213    -0.000000    -0.000046   114.213167
	   47 B(10,9,11)      =    106.585651     0.000000     0.000019   106.585670
	   48 B(10,9,15)      =    110.031358    -0.000000    -0.000035   110.031323
	   49 B(11,9,15)      =    108.985413    -0.000000    -0.000017   108.985395
	   50 B(12,24,21)     =    114.213207     0.000000     0.000004   114.213211
	   51 B(12,24,25)     =    109.148586     0.000000     0.000032   109.148618
	   52 B(12,24,26)     =    108.473795    -0.000000    -0.000038   108.473757
	   53 B(13,12,14)     =    106.585646     0.000000    -0.000004   106.585642
	   54 B(13,12,24)     =    110.031355    -0.000000    -0.000046   110.031308
	   55 B(14,12,24)     =    108.985418    -0.000000     0.000025   108.985443
	   56 B(15,18,19)     =    109.237908     0.000000     0.000004   109.237912
	   57 B(15,18,20)     =    108.736831     0.000000     0.000017   108.736848
	   58 B(15,18,21)     =    113.628700    -0.000000    -0.000033   113.628667
	   59 B(16,15,17)     =    106.340866    -0.000000     0.000031   106.340897
	   60 B(16,15,18)     =    109.117702     0.000000    -0.000004   109.117698
	   61 B(17,15,18)     =    109.250588     0.000000    -0.000010   109.250578
	   62 B(18,21,22)     =    109.424815    -0.000000    -0.000069   109.424746
	   63 B(18,21,23)     =    109.032873     0.000000    -0.000004   109.032869
	   64 B(18,21,24)     =    113.628708    -0.000000    -0.000030   113.628678
	   65 B(19,18,20)     =    106.537613     0.000000     0.000035   106.537648
	   66 B(19,18,21)     =    109.032864     0.000000     0.000007   109.032871
	   67 B(20,18,21)     =    109.424840    -0.000000    -0.000025   109.424814
	   68 B(21,24,25)     =    109.250581    -0.000000    -0.000038   109.250543
	   69 B(21,24,26)     =    109.117715     0.000000     0.000004   109.117719
	   70 B(22,21,23)     =    106.537641     0.000000     0.000037   106.537679
	   71 B(22,21,24)     =    108.736816     0.000000     0.000039   108.736855
	   72 B(23,21,24)     =    109.237904     0.000000     0.000031   109.237934
	   73 B(25,24,26)     =    106.340871     0.000000     0.000040   106.340911
	   74 D(1,9,15,16)    =     53.904151     0.000000     0.000132    53.904283
	   75 D(1,9,15,17)    =    -61.564460    -0.000000     0.000077   -61.564384
	   76 D(1,9,15,18)    =    175.831882     0.000000     0.000092   175.831973
	   77 D(2,1,9,10)     =    178.026532     0.000000     0.000000   178.026532
	   78 D(2,1,9,11)     =     61.443638    -0.000000    -0.000031    61.443607
	   79 D(2,1,9,15)     =    -59.759974    -0.000000    -0.000034   -59.760008
	   80 D(3,1,9,10)     =     57.635604     0.000000     0.000005    57.635609
	   81 D(3,1,9,11)     =    -58.947290    -0.000000    -0.000026   -58.947316
	   82 D(3,1,9,15)     =    179.849098    -0.000000    -0.000028   179.849069
	   83 D(4,1,9,10)     =    -62.601605     0.000000     0.000012   -62.601593
	   84 D(4,1,9,11)     =   -179.184499    -0.000000    -0.000019  -179.184518
	   85 D(4,1,9,15)     =     59.611889    -0.000000    -0.000021    59.611868
	   86 D(5,12,24,21)   =   -175.832090    -0.000000    -0.000130  -175.832220
	   87 D(5,12,24,25)   =     61.564268     0.000000    -0.000107    61.564161
	   88 D(5,12,24,26)   =    -53.904347    -0.000000    -0.000151   -53.904498
	   89 D(6,5,12,13)    =     62.601576    -0.000000     0.000007    62.601583
	   90 D(6,5,12,14)    =    179.184472    -0.000000    -0.000011   179.184461
	   91 D(6,5,12,24)    =    -59.611903     0.000000     0.000052   -59.611850
	   92 D(7,5,12,13)    =    -57.635635     0.000000     0.000012   -57.635623
	   93 D(7,5,12,14)    =     58.947262    -0.000000    -0.000006    58.947256
	   94 D(7,5,12,24)    =   -179.849113     0.000000     0.000057  -179.849056
	   95 D(8,5,12,13)    =   -178.026557    -0.000000     0.000010  -178.026547
	   96 D(8,5,12,14)    =    -61.443661    -0.000000    -0.000008   -61.443669
	   97 D(8,5,12,24)    =     59.759964     0.000000     0.000055    59.760020
	   98 D(9,15,18,19)   =    -56.888905     0.000000     0.000062   -56.888844
	   99 D(9,15,18,20)   =   -172.783953    -0.000000     0.000009  -172.783944
	  100 D(9,15,18,21)   =     65.094838     0.000000     0.000051    65.094889
	  101 D(10,9,15,16)   =    175.710740     0.000000     0.000117   175.710857
	  102 D(10,9,15,17)   =     60.242129    -0.000000     0.000061    60.242190
	  103 D(10,9,15,18)   =    -62.361529     0.000000     0.000077   -62.361453
	  104 D(11,9,15,16)   =    -67.754437     0.000000     0.000110   -67.754327
	  105 D(11,9,15,17)   =    176.776952    -0.000000     0.000054   176.777006
	  106 D(11,9,15,18)   =     54.173294    -0.000000     0.000069    54.173363
	  107 D(12,24,21,18)  =    -65.095221    -0.000000    -0.000289   -65.095510
	  108 D(12,24,21,22)  =    172.783607     0.000000    -0.000209   172.783398
	  109 D(12,24,21,23)  =     56.888536    -0.000000    -0.000292    56.888244
	  110 D(13,12,24,21)  =     62.361337    -0.000000    -0.000097    62.361240
	  111 D(13,12,24,25)  =    -60.242304     0.000000    -0.000075   -60.242379
	  112 D(13,12,24,26)  =   -175.710919    -0.000000    -0.000118  -175.711037
	  113 D(14,12,24,21)  =    -54.173481    -0.000000    -0.000081   -54.173561
	  114 D(14,12,24,25)  =   -176.777122     0.000000    -0.000058  -176.777180
	  115 D(14,12,24,26)  =     67.754263     0.000000    -0.000102    67.754161
	  116 D(15,18,21,22)  =    -58.260767     0.000000    -0.000021   -58.260788
	  117 D(15,18,21,23)  =     57.902526    -0.000000    -0.000017    57.902508
	  118 D(15,18,21,24)  =    180.000000     0.000000     0.000000   180.000000
	  119 D(16,15,18,19)  =     64.684689     0.000000     0.000020    64.684709
	  120 D(16,15,18,20)  =    -51.210359    -0.000000    -0.000032   -51.210392
	  121 D(16,15,18,21)  =   -173.331568    -0.000000     0.000009  -173.331558
	  122 D(17,15,18,19)  =   -179.436973     0.000000     0.000049  -179.436924
	  123 D(17,15,18,20)  =     64.667979    -0.000000    -0.000003    64.667976
	  124 D(17,15,18,21)  =    -57.453229     0.000000     0.000039   -57.453191
	  125 D(18,21,24,25)  =     57.452831    -0.000000    -0.000273    57.452558
	  126 D(18,21,24,26)  =    173.331179    -0.000000    -0.000245   173.330935
	  127 D(19,18,21,22)  =     63.836653    -0.000000    -0.000034    63.836619
	  128 D(19,18,21,23)  =    180.000000    -0.000000     0.000000   180.000000
	  129 D(19,18,21,24)  =    -57.902629    -0.000000    -0.000014   -57.902643
	  130 D(20,18,21,22)  =    180.000000     0.000000     0.000000   180.000000
	  131 D(20,18,21,23)  =    -63.836788    -0.000000     0.000001   -63.836787
	  132 D(20,18,21,24)  =     58.260638     0.000000     0.000017    58.260655
	  133 D(22,21,24,25)  =    -64.668340     0.000000    -0.000194   -64.668534
	  134 D(22,21,24,26)  =     51.210008     0.000000    -0.000165    51.209843
	  135 D(23,21,24,25)  =    179.436589    -0.000000    -0.000276   179.436312
	  136 D(23,21,24,26)  =    -64.685063    -0.000000    -0.000248   -64.685311
	 ---------------------------------------------------------------------------

  ==> Convergence Check <==

  Measures of convergence in internal coordinates in au.
  Criteria marked as inactive (o), active & met (*), and active & unmet ( ).
  ---------------------------------------------------------------------------------------------
   Step     Total Energy     Delta E     MAX Force     RMS Force      MAX Disp      RMS Disp   
  ---------------------------------------------------------------------------------------------
    Convergence Criteria             o    2.00e-06 *    1.00e-06 *    6.00e-06 *    4.00e-06 *
  ---------------------------------------------------------------------------------------------
     10    -314.98350809   -7.33e-11 o    2.57e-07 *    6.85e-08 *    5.10e-06 *    1.34e-06 *  ~
  ---------------------------------------------------------------------------------------------


  **** Optimization is complete! (in 10 steps) ****

  ==> Optimization Summary <==

  Measures of convergence in internal coordinates in au.
  --------------------------------------------------------------------------------------------------------------- ~
   Step         Total Energy             Delta E       MAX Force       RMS Force        MAX Disp        RMS Disp  ~
  --------------------------------------------------------------------------------------------------------------- ~
      1    -314.983237426132   -314.983237426132      0.00443731      0.00111182      0.02179665      0.00849742  ~
      2    -314.983489837682     -0.000252411550      0.00072544      0.00021234      0.01647211      0.00557296  ~
      3    -314.983504802988     -0.000014965306      0.00020670      0.00007200      0.00968915      0.00327809  ~
      4    -314.983507856651     -0.000003053664      0.00006214      0.00002019      0.00228841      0.00078825  ~
      5    -314.983508076880     -0.000000220229      0.00001612      0.00000525      0.00030436      0.00011050  ~
      6    -314.983508088582     -0.000000011702      0.00000346      0.00000111      0.00005870      0.00002627  ~
      7    -314.983508088266      0.000000000316      0.00000147      0.00000032      0.00001902      0.00000564  ~
      8    -314.983508086355      0.000000001911      0.00000162      0.00000049      0.00001947      0.00000735  ~
      9    -314.983508087069     -0.000000000714      0.00000114      0.00000033      0.00001303      0.00000427  ~
     10    -314.983508087142     -0.000000000073      0.00000026      0.00000007      0.00000510      0.00000134  ~
  --------------------------------------------------------------------------------------------------------------- ~

	Writing optimization data to binary file.
	Final energy is   -314.9835080871420
	Final (previous) structure:
	Cartesian Geometry (in Angstrom)
	    C     4.1732902385  -0.1172352648   0.1261801698
	    H     4.5434165649   0.7842903296  -0.3636022856
	    H     4.8270235706  -0.9434594267  -0.1521378384
	    H     4.2607258335   0.0311889318   1.2032885718
	    C    -4.1732904387   0.1172349137  -0.1261785907
	    H    -4.2607247038  -0.0311795902  -1.2032884271
	    H    -4.8270248062   0.9434559784   0.1521462000
	    H    -4.5434164851  -0.7842954711   0.3635952904
	    C     2.7252467837  -0.3887688451  -0.2639323768
	    H     2.3906886056  -1.3130184057   0.2105061613
	    H     2.6567786733  -0.5495512624  -1.3437439102
	    C    -2.7252476287   0.3887663562   0.2639382650
	    H    -2.3906896527   1.3130203136  -0.2104919240
	    H    -2.6567807033   0.5495395435   1.3437512706
	    C     1.8035072177   0.7616686457   0.1257195105
	    H     2.2045774683   1.6864970959  -0.2994702000
	    H     1.8260411289   0.8874461048   1.2133532023
	    C     0.3565190157   0.5873522880  -0.3311878797
	    H     0.3350536865   0.4514912145  -1.4180173648
	    H    -0.1907363253   1.5089423306  -0.1222732378
	    C    -0.3565183648  -0.5873511397   0.3311836137
	    H     0.1907366019  -1.5089412876   0.1222675028
	    H    -0.3350522629  -0.4514906886   1.4180133268
	    C    -1.8035068316  -0.7616669414  -0.1257227362
	    H    -1.8260420469  -0.8874368864  -1.2133572629
	    H    -2.2045750503  -1.6864989756   0.2994612154
	Saving final (previous) structure.
			--------------------------
			 OPTKING Finished Execution 
			--------------------------

    Final optimized geometry and variables:
    Molecular point group: c1
    Full point group: C1

    Geometry (in Angstrom), charge = 0, multiplicity = 1:

    C            4.173290238529    -0.117235264765     0.126180169825
    H            4.543416564889     0.784290329623    -0.363602285635
    H            4.827023570646    -0.943459426696    -0.152137838390
    H            4.260725833460     0.031188931823     1.203288571817
    C           -4.173290438737     0.117234913726    -0.126178590694
    H           -4.260724703787    -0.031179590246    -1.203288427133
    H           -4.827024806183     0.943455978423     0.152146199994
    H           -4.543416485120    -0.784295471068     0.363595290428
    C            2.725246783732    -0.388768845052    -0.263932376801
    H            2.390688605550    -1.313018405727     0.210506161305
    H            2.656778673307    -0.549551262404    -1.343743910215
    C           -2.725247628694     0.388766356227     0.263938265035
    H           -2.390689652741     1.313020313639    -0.210491923954
    H           -2.656780703302     0.549539543456     1.343751270618
    C            1.803507217674     0.761668645664     0.125719510490
    H            2.204577468263     1.686497095888    -0.299470199954
    H            1.826041128868     0.887446104753     1.213353202296
    C            0.356519015698     0.587352288033    -0.331187879701
    H            0.335053686487     0.451491214456    -1.418017364793
    H           -0.190736325304     1.508942330598    -0.122273237776
    C           -0.356518364768    -0.587351139653     0.331183613652
    H            0.190736601918    -1.508941287620     0.122267502810
    H           -0.335052262898    -0.451490688566     1.418013326764
    C           -1.803506831569    -0.761666941445    -0.125722736217
    H           -1.826042046891    -0.887436886439    -1.213357262929
    H           -2.204575050292    -1.686498975553     0.299461215412

	Cleaning optimization helper files.

*** Psi4 exiting successfully. Buy a developer a beer!
