    -----------------------------------------------------------------------
          Psi4: An Open-Source Ab Initio Electronic Structure Package
                              Psi4 1.0.0 Driver

                          Git: Rev {master} 6a9a71b dirty

    J. M. Turney, A. C. Simmonett, R. M. Parrish, E. G. Hohenstein,
    F. A. Evangelista, J. T. Fermann, B. J. Mintz, L. A. Burns, J. J. Wilke,
    M. L. Abrams, N. J. Russ, M. L. Leininger, C. L. Janssen, E. T. Seidl,
    W. D. Allen, H. F. Schaefer, R. A. King, E. F. Valeev, C. D. Sherrill,
    and T. D. Crawford, WIREs Comput. Mol. Sci. 2, 556-565 (2012)
    (doi: 10.1002/wcms.93)

                         Additional Contributions by
    A. E. DePrince, U. Bozkaya, A. Yu. Sokolov, D. G. A. Smith, R. Di Remigio,
    R. M. Richard, J. F. Gonthier, H. R. McAlexander, M. Saitow, and
    B. P. Pritchard
    -----------------------------------------------------------------------


    Psi4 started on: Wed Sep 21 04:57:33 2016

    Process ID:  35597
    PSI4DATADIR: /usr/local/hpc5/psi4conda/share/psi4
    Memory level set to 256.000 MB

  ==> Input File <==

--------------------------------------------------------------------------
memory 60 Gb

molecule molecule_82_psi {
0 1
C            3.157193231426    -1.075119602430    -0.552822100032
H            4.077579614149    -0.635767787400    -0.165351264021
H            2.921096405878    -0.574062271457    -1.491706531235
H            3.354171195633    -2.122998441390    -0.778248605812
C           -3.429956491976    -1.203385928048     0.025960900623
H           -4.511864535023    -1.095265843638     0.098748136681
H           -3.091541868116    -1.779254087718     0.888245184136
H           -3.210672341941    -1.786829629579    -0.869151051832
C            2.026795311029    -0.927683318887     0.460207202247
H            2.304086280128    -1.447456435348     1.380255949103
H            1.129175350176    -1.420249503364     0.082029865878
C           -2.730823725069     0.149357330100    -0.027268710553
H           -3.100000323825     0.723629208041    -0.881130318137
H           -2.978565585934     0.729012053110     0.866077174391
C            1.718889459979     0.536464793589     0.781762002603
H            2.663410502680     1.032669722235     1.020910340138
H            1.106942741057     0.595987856352     1.686735587447
C            1.003975490918     1.293474558736    -0.347945949609
H            1.230186986459     0.822740461062    -1.309106700036
H            1.390899884194     2.312563764474    -0.411755922025
C           -0.512489539936     1.368391236673    -0.172850638295
H           -0.735063822406     1.911595803549     0.751471756254
H           -0.938047129843     1.960144776690    -0.988955199532
C           -1.216280703754     0.017508214144    -0.130789807295
H           -0.964008851417    -0.553548963366    -1.030913004062
H           -0.853808746928    -0.566183170833     0.720187536766
}

set globals {
  reference rhf
  g_convergence gau_verytight
  basis aug-cc-pvtz
  freeze_core true
  scf_type df
  mp_type df
}
optimize('mp2')
--------------------------------------------------------------------------
/usr/local/hpc5/psi4conda/lib/python2.7/site-packages/v2rdm_casscf/v2rdm_casscf.so loaded.

  Memory set to  60.000 GiB by Python script.
gradient() will perform analytic gradient computation.

*** tstart() called on wr36
*** at Wed Sep 21 04:57:34 2016


         ---------------------------------------------------------
                                   SCF
            by Justin Turney, Rob Parrish, and Andy Simmonett
                              RHF Reference
                       12 Threads,  60000 MiB Core
         ---------------------------------------------------------

  ==> Geometry <==

    Molecular point group: c1
    Full point group: C1

    Geometry (in Angstrom), charge = 0, multiplicity = 1:

       Center              X                  Y                   Z               Mass       
    ------------   -----------------  -----------------  -----------------  -----------------
           C          3.157193231426    -1.075119602430    -0.552822100032    12.000000000000
           H          4.077579614149    -0.635767787400    -0.165351264021     1.007825032070
           H          2.921096405878    -0.574062271457    -1.491706531235     1.007825032070
           H          3.354171195633    -2.122998441390    -0.778248605812     1.007825032070
           C         -3.429956491976    -1.203385928048     0.025960900623    12.000000000000
           H         -4.511864535023    -1.095265843638     0.098748136681     1.007825032070
           H         -3.091541868116    -1.779254087718     0.888245184136     1.007825032070
           H         -3.210672341941    -1.786829629579    -0.869151051832     1.007825032070
           C          2.026795311029    -0.927683318887     0.460207202247    12.000000000000
           H          2.304086280128    -1.447456435348     1.380255949103     1.007825032070
           H          1.129175350176    -1.420249503364     0.082029865878     1.007825032070
           C         -2.730823725069     0.149357330100    -0.027268710553    12.000000000000
           H         -3.100000323825     0.723629208041    -0.881130318137     1.007825032070
           H         -2.978565585934     0.729012053110     0.866077174391     1.007825032070
           C          1.718889459979     0.536464793589     0.781762002603    12.000000000000
           H          2.663410502680     1.032669722235     1.020910340138     1.007825032070
           H          1.106942741057     0.595987856352     1.686735587447     1.007825032070
           C          1.003975490918     1.293474558736    -0.347945949609    12.000000000000
           H          1.230186986459     0.822740461062    -1.309106700036     1.007825032070
           H          1.390899884194     2.312563764474    -0.411755922025     1.007825032070
           C         -0.512489539936     1.368391236673    -0.172850638295    12.000000000000
           H         -0.735063822406     1.911595803549     0.751471756254     1.007825032070
           H         -0.938047129843     1.960144776690    -0.988955199532     1.007825032070
           C         -1.216280703754     0.017508214144    -0.130789807295    12.000000000000
           H         -0.964008851417    -0.553548963366    -1.030913004062     1.007825032070
           H         -0.853808746928    -0.566183170833     0.720187536766     1.007825032070

  Running in c1 symmetry.

  Rotational constants: A =      0.10941  B =      0.02728  C =      0.02384 [cm^-1]
  Rotational constants: A =   3280.05859  B =    817.88725  C =    714.63945 [MHz]
  Nuclear repulsion =  394.192345561109960

  Charge       = 0
  Multiplicity = 1
  Electrons    = 66
  Nalpha       = 33
  Nbeta        = 33

  ==> Algorithm <==

  SCF Algorithm Type is DF.
  DIIS enabled.
  MOM disabled.
  Fractional occupation disabled.
  Guess Type is SAD.
  Energy threshold   = 1.00e-10
  Density threshold  = 1.00e-10
  Integral threshold = 0.00e+00

  ==> Primary Basis <==

  Basis Set: AUG-CC-PVTZ
    Number of shells: 274
    Number of basis function: 782
    Number of Cartesian functions: 890
    Spherical Harmonics?: true
    Max angular momentum: 3

  ==> Pre-Iterations <==

   -------------------------------------------------------
    Irrep   Nso     Nmo     Nalpha   Nbeta   Ndocc  Nsocc
   -------------------------------------------------------
     A        782     782       0       0       0       0
   -------------------------------------------------------
    Total     782     782      33      33      33       0
   -------------------------------------------------------

  ==> Integral Setup <==

  ==> DFJK: Density-Fitted J/K Matrices <==

    J tasked:                  Yes
    K tasked:                  Yes
    wK tasked:                  No
    OpenMP threads:             12
    Integrals threads:          12
    Memory (MB):             42915
    Algorithm:                Core
    Integral Cache:           NONE
    Schwarz Cutoff:          1E-12
    Fitting Condition:       1E-12

   => Auxiliary Basis Set <=

  Basis Set: 
    Number of shells: 492
    Number of basis function: 1660
    Number of Cartesian functions: 2038
    Spherical Harmonics?: true
    Max angular momentum: 4

  Minimum eigenvalue in the overlap matrix is 2.2854524491E-06.
  Using Symmetric Orthogonalization.
  SCF Guess: Superposition of Atomic Densities via on-the-fly atomic UHF.

  ==> Iterations <==

                           Total Energy        Delta E     RMS |[F,P]|

   @DF-RHF iter   0:  -316.97364583779290   -3.16974e+02   7.02381e-03 
   @DF-RHF iter   1:  -313.28972674986801    3.68392e+00   7.15771e-04 
   @DF-RHF iter   2:  -313.50717573765144   -2.17449e-01   2.56357e-04 DIIS
   @DF-RHF iter   3:  -313.53378212037990   -2.66064e-02   1.01257e-04 DIIS
   @DF-RHF iter   4:  -313.53882468705172   -5.04257e-03   1.65466e-05 DIIS
   @DF-RHF iter   5:  -313.53900043224644   -1.75745e-04   4.70305e-06 DIIS
   @DF-RHF iter   6:  -313.53901258973269   -1.21575e-05   1.34666e-06 DIIS
   @DF-RHF iter   7:  -313.53901363956845   -1.04984e-06   2.85223e-07 DIIS
   @DF-RHF iter   8:  -313.53901369415416   -5.45857e-08   7.42501e-08 DIIS
   @DF-RHF iter   9:  -313.53901369796381   -3.80965e-09   2.17046e-08 DIIS
   @DF-RHF iter  10:  -313.53901369825621   -2.92403e-10   6.96262e-09 DIIS
   @DF-RHF iter  11:  -313.53901369828657   -3.03544e-11   1.64595e-09 DIIS
   @DF-RHF iter  12:  -313.53901369828770   -1.13687e-12   4.01720e-10 DIIS
   @DF-RHF iter  13:  -313.53901369828804   -3.41061e-13   1.27509e-10 DIIS
   @DF-RHF iter  14:  -313.53901369828770    3.41061e-13   3.50275e-11 DIIS

  ==> Post-Iterations <==

    Orbital Energies (a.u.)
    -----------------------

    Doubly Occupied:                                                      

       1A    -11.212571     2A    -11.211727     3A    -11.210856  
       4A    -11.210476     5A    -11.209924     6A    -11.209721  
       7A    -11.207324     8A    -11.206232     9A     -1.093995  
      10A     -1.059347    11A     -1.009989    12A     -0.944919  
      13A     -0.887866    14A     -0.822976    15A     -0.787186  
      16A     -0.763847    17A     -0.648488    18A     -0.627236  
      19A     -0.614646    20A     -0.589222    21A     -0.571063  
      22A     -0.565744    23A     -0.545297    24A     -0.529729  
      25A     -0.515735    26A     -0.498523    27A     -0.486505  
      28A     -0.475276    29A     -0.468294    30A     -0.462109  
      31A     -0.449582    32A     -0.436899    33A     -0.432545  

    Virtual:                                                              

      34A      0.029088    35A      0.032672    36A      0.034050  
      37A      0.035050    38A      0.046445    39A      0.047980  
      40A      0.050141    41A      0.054341    42A      0.055494  
      43A      0.064118    44A      0.069376    45A      0.070819  
      46A      0.074953    47A      0.077846    48A      0.086195  
      49A      0.088738    50A      0.091502    51A      0.103264  
      52A      0.112772    53A      0.115902    54A      0.120489  
      55A      0.126168    56A      0.128672    57A      0.131955  
      58A      0.136257    59A      0.136889    60A      0.142309  
      61A      0.144995    62A      0.147692    63A      0.151563  
      64A      0.152158    65A      0.155887    66A      0.157461  
      67A      0.163433    68A      0.168116    69A      0.171791  
      70A      0.176634    71A      0.182535    72A      0.188245  
      73A      0.190996    74A      0.192764    75A      0.196061  
      76A      0.204329    77A      0.216972    78A      0.223913  
      79A      0.229324    80A      0.231840    81A      0.242878  
      82A      0.245666    83A      0.247243    84A      0.256891  
      85A      0.261479    86A      0.267730    87A      0.273617  
      88A      0.281578    89A      0.290836    90A      0.294439  
      91A      0.297580    92A      0.302116    93A      0.304596  
      94A      0.313520    95A      0.317188    96A      0.321702  
      97A      0.325117    98A      0.327598    99A      0.329534  
     100A      0.336836   101A      0.338886   102A      0.343255  
     103A      0.346367   104A      0.349902   105A      0.359367  
     106A      0.362164   107A      0.362496   108A      0.367869  
     109A      0.369359   110A      0.373868   111A      0.374615  
     112A      0.381793   113A      0.386538   114A      0.388526  
     115A      0.395896   116A      0.397115   117A      0.399195  
     118A      0.401966   119A      0.403739   120A      0.407519  
     121A      0.409861   122A      0.416884   123A      0.422695  
     124A      0.425976   125A      0.430334   126A      0.441814  
     127A      0.443713   128A      0.444133   129A      0.447937  
     130A      0.450786   131A      0.456650   132A      0.458185  
     133A      0.464252   134A      0.465981   135A      0.467266  
     136A      0.474782   137A      0.476628   138A      0.479163  
     139A      0.482293   140A      0.485725   141A      0.488194  
     142A      0.490173   143A      0.494705   144A      0.499051  
     145A      0.507843   146A      0.509890   147A      0.516725  
     148A      0.518946   149A      0.520663   150A      0.522898  
     151A      0.527256   152A      0.529387   153A      0.535542  
     154A      0.540461   155A      0.541918   156A      0.552445  
     157A      0.554828   158A      0.559660   159A      0.564785  
     160A      0.568877   161A      0.572486   162A      0.577403  
     163A      0.588167   164A      0.588500   165A      0.594492  
     166A      0.599367   167A      0.605863   168A      0.608466  
     169A      0.611946   170A      0.616944   171A      0.621874  
     172A      0.626144   173A      0.632415   174A      0.635173  
     175A      0.641010   176A      0.646526   177A      0.650649  
     178A      0.655351   179A      0.658256   180A      0.665376  
     181A      0.671381   182A      0.674232   183A      0.676100  
     184A      0.688638   185A      0.693783   186A      0.696520  
     187A      0.700999   188A      0.704152   189A      0.710084  
     190A      0.716037   191A      0.719491   192A      0.729687  
     193A      0.741852   194A      0.744658   195A      0.754480  
     196A      0.760991   197A      0.767303   198A      0.770491  
     199A      0.783114   200A      0.787838   201A      0.797762  
     202A      0.802688   203A      0.813869   204A      0.814583  
     205A      0.829326   206A      0.841722   207A      0.843787  
     208A      0.846958   209A      0.850892   210A      0.858662  
     211A      0.865391   212A      0.875801   213A      0.877986  
     214A      0.882508   215A      0.885467   216A      0.892642  
     217A      0.895813   218A      0.899279   219A      0.904372  
     220A      0.913913   221A      0.915675   222A      0.919050  
     223A      0.925651   224A      0.928360   225A      0.933417  
     226A      0.938026   227A      0.943753   228A      0.950124  
     229A      0.953589   230A      0.957403   231A      0.963972  
     232A      0.966153   233A      0.972862   234A      0.975454  
     235A      0.984217   236A      0.985839   237A      0.997006  
     238A      1.002881   239A      1.003585   240A      1.008048  
     241A      1.012880   242A      1.019923   243A      1.023585  
     244A      1.025218   245A      1.034143   246A      1.038410  
     247A      1.041996   248A      1.046378   249A      1.056613  
     250A      1.060033   251A      1.074055   252A      1.076733  
     253A      1.078708   254A      1.080274   255A      1.091849  
     256A      1.097383   257A      1.100624   258A      1.111704  
     259A      1.113821   260A      1.117833   261A      1.123143  
     262A      1.128573   263A      1.131585   264A      1.135885  
     265A      1.141826   266A      1.144139   267A      1.149372  
     268A      1.159337   269A      1.160018   270A      1.165931  
     271A      1.176633   272A      1.178638   273A      1.184014  
     274A      1.186944   275A      1.195197   276A      1.198356  
     277A      1.204408   278A      1.211407   279A      1.214548  
     280A      1.217817   281A      1.223280   282A      1.230956  
     283A      1.232733   284A      1.241980   285A      1.247410  
     286A      1.253646   287A      1.258275   288A      1.261373  
     289A      1.268372   290A      1.270719   291A      1.278969  
     292A      1.283566   293A      1.286940   294A      1.293841  
     295A      1.296281   296A      1.302472   297A      1.309719  
     298A      1.316449   299A      1.320866   300A      1.325262  
     301A      1.330362   302A      1.341058   303A      1.346144  
     304A      1.353209   305A      1.355455   306A      1.364186  
     307A      1.367675   308A      1.380673   309A      1.391899  
     310A      1.394626   311A      1.404035   312A      1.408790  
     313A      1.411945   314A      1.417848   315A      1.422864  
     316A      1.433578   317A      1.440084   318A      1.452600  
     319A      1.457193   320A      1.462749   321A      1.474731  
     322A      1.483473   323A      1.496184   324A      1.500357  
     325A      1.505673   326A      1.523790   327A      1.527573  
     328A      1.534803   329A      1.540200   330A      1.549390  
     331A      1.560118   332A      1.565257   333A      1.571955  
     334A      1.581013   335A      1.584169   336A      1.584625  
     337A      1.596803   338A      1.603779   339A      1.608514  
     340A      1.619797   341A      1.627408   342A      1.633275  
     343A      1.648644   344A      1.650746   345A      1.653304  
     346A      1.663854   347A      1.668602   348A      1.672458  
     349A      1.678893   350A      1.682072   351A      1.691838  
     352A      1.698700   353A      1.709038   354A      1.715192  
     355A      1.718204   356A      1.723321   357A      1.726747  
     358A      1.731388   359A      1.738517   360A      1.740712  
     361A      1.750047   362A      1.752917   363A      1.758468  
     364A      1.764246   365A      1.773810   366A      1.776422  
     367A      1.782562   368A      1.784651   369A      1.786631  
     370A      1.793882   371A      1.797795   372A      1.809111  
     373A      1.816528   374A      1.818378   375A      1.820025  
     376A      1.827325   377A      1.839273   378A      1.841752  
     379A      1.854764   380A      1.859809   381A      1.870518  
     382A      1.877748   383A      1.880837   384A      1.884177  
     385A      1.892277   386A      1.895374   387A      1.905999  
     388A      1.910532   389A      1.917595   390A      1.920286  
     391A      1.923644   392A      1.934491   393A      1.943081  
     394A      1.946018   395A      1.953756   396A      1.964684  
     397A      1.984598   398A      1.988414   399A      1.995269  
     400A      1.996874   401A      2.004812   402A      2.009730  
     403A      2.015520   404A      2.026965   405A      2.030178  
     406A      2.034261   407A      2.041642   408A      2.047365  
     409A      2.049741   410A      2.063147   411A      2.072307  
     412A      2.082762   413A      2.089715   414A      2.092891  
     415A      2.099815   416A      2.106843   417A      2.116448  
     418A      2.120977   419A      2.137448   420A      2.142904  
     421A      2.152576   422A      2.161075   423A      2.162985  
     424A      2.177799   425A      2.187489   426A      2.192481  
     427A      2.195895   428A      2.215422   429A      2.219104  
     430A      2.232123   431A      2.241878   432A      2.248512  
     433A      2.256908   434A      2.260947   435A      2.267455  
     436A      2.273301   437A      2.276436   438A      2.292494  
     439A      2.302283   440A      2.318180   441A      2.320648  
     442A      2.327475   443A      2.334168   444A      2.344345  
     445A      2.349656   446A      2.353142   447A      2.360755  
     448A      2.372092   449A      2.379089   450A      2.388577  
     451A      2.399041   452A      2.402360   453A      2.409479  
     454A      2.430859   455A      2.443963   456A      2.448502  
     457A      2.465543   458A      2.473409   459A      2.477274  
     460A      2.481162   461A      2.490479   462A      2.516688  
     463A      2.523395   464A      2.527917   465A      2.531890  
     466A      2.557156   467A      2.565279   468A      2.576369  
     469A      2.588190   470A      2.598388   471A      2.608314  
     472A      2.622653   473A      2.643108   474A      2.652038  
     475A      2.668355   476A      2.694779   477A      2.703263  
     478A      2.714104   479A      2.733956   480A      2.758673  
     481A      2.802997   482A      2.845130   483A      2.875112  
     484A      2.892928   485A      2.926787   486A      2.953169  
     487A      3.008619   488A      3.017729   489A      3.055547  
     490A      3.108871   491A      3.177565   492A      3.209990  
     493A      3.273696   494A      3.320715   495A      3.326487  
     496A      3.412631   497A      3.438513   498A      3.452104  
     499A      3.457231   500A      3.463046   501A      3.473421  
     502A      3.500837   503A      3.513073   504A      3.518584  
     505A      3.543712   506A      3.549831   507A      3.565898  
     508A      3.578541   509A      3.588621   510A      3.596308  
     511A      3.608490   512A      3.619688   513A      3.631898  
     514A      3.641561   515A      3.645697   516A      3.660698  
     517A      3.678797   518A      3.682387   519A      3.686737  
     520A      3.695245   521A      3.704703   522A      3.707400  
     523A      3.711671   524A      3.720714   525A      3.734803  
     526A      3.741595   527A      3.742427   528A      3.758571  
     529A      3.762994   530A      3.776393   531A      3.783462  
     532A      3.792698   533A      3.797264   534A      3.807787  
     535A      3.819446   536A      3.822556   537A      3.836803  
     538A      3.842800   539A      3.848647   540A      3.860227  
     541A      3.867421   542A      3.873540   543A      3.884536  
     544A      3.895822   545A      3.906157   546A      3.907868  
     547A      3.924239   548A      3.927164   549A      3.935491  
     550A      3.941081   551A      3.950786   552A      3.956721  
     553A      3.964999   554A      3.969517   555A      3.979285  
     556A      3.987057   557A      3.992218   558A      3.999271  
     559A      4.004555   560A      4.010936   561A      4.015094  
     562A      4.026333   563A      4.034620   564A      4.039128  
     565A      4.049084   566A      4.059071   567A      4.065927  
     568A      4.069493   569A      4.077600   570A      4.091441  
     571A      4.092932   572A      4.105023   573A      4.110486  
     574A      4.116888   575A      4.120345   576A      4.150189  
     577A      4.151763   578A      4.164398   579A      4.167858  
     580A      4.171608   581A      4.184890   582A      4.198467  
     583A      4.217641   584A      4.227671   585A      4.233845  
     586A      4.237123   587A      4.245888   588A      4.250225  
     589A      4.255657   590A      4.270789   591A      4.281979  
     592A      4.296975   593A      4.303813   594A      4.315051  
     595A      4.318374   596A      4.331728   597A      4.347986  
     598A      4.356154   599A      4.372767   600A      4.378719  
     601A      4.396152   602A      4.399085   603A      4.413562  
     604A      4.419837   605A      4.421905   606A      4.438275  
     607A      4.444031   608A      4.453170   609A      4.474105  
     610A      4.481288   611A      4.497759   612A      4.514927  
     613A      4.521953   614A      4.529969   615A      4.562837  
     616A      4.569723   617A      4.581270   618A      4.589339  
     619A      4.594843   620A      4.608058   621A      4.632880  
     622A      4.641657   623A      4.662246   624A      4.678553  
     625A      4.682212   626A      4.692498   627A      4.701073  
     628A      4.715769   629A      4.720989   630A      4.736214  
     631A      4.745792   632A      4.753282   633A      4.765579  
     634A      4.773715   635A      4.781781   636A      4.807013  
     637A      4.815450   638A      4.826873   639A      4.833274  
     640A      4.844774   641A      4.855965   642A      4.864827  
     643A      4.870850   644A      4.880396   645A      4.885194  
     646A      4.889965   647A      4.905582   648A      4.914270  
     649A      4.923094   650A      4.936032   651A      4.950259  
     652A      4.954443   653A      4.968760   654A      4.973062  
     655A      4.989836   656A      4.993009   657A      5.007863  
     658A      5.016338   659A      5.050482   660A      5.056948  
     661A      5.083966   662A      5.093347   663A      5.097806  
     664A      5.114665   665A      5.136169   666A      5.139541  
     667A      5.153429   668A      5.162795   669A      5.166975  
     670A      5.179431   671A      5.190734   672A      5.209020  
     673A      5.224852   674A      5.236549   675A      5.245438  
     676A      5.252395   677A      5.263199   678A      5.270638  
     679A      5.274325   680A      5.294629   681A      5.306237  
     682A      5.310896   683A      5.316428   684A      5.327543  
     685A      5.342451   686A      5.352794   687A      5.368904  
     688A      5.378701   689A      5.389242   690A      5.393082  
     691A      5.404715   692A      5.418980   693A      5.427212  
     694A      5.432905   695A      5.447380   696A      5.454499  
     697A      5.460752   698A      5.481709   699A      5.494714  
     700A      5.505180   701A      5.506943   702A      5.527475  
     703A      5.531685   704A      5.536719   705A      5.554158  
     706A      5.570157   707A      5.582386   708A      5.598046  
     709A      5.615136   710A      5.641812   711A      5.650060  
     712A      5.662328   713A      5.663550   714A      5.695980  
     715A      5.706825   716A      5.710442   717A      5.719736  
     718A      5.734419   719A      5.737741   720A      5.750174  
     721A      5.765914   722A      5.791338   723A      5.797719  
     724A      5.814060   725A      5.819053   726A      5.829533  
     727A      5.844539   728A      5.850146   729A      5.869972  
     730A      5.881783   731A      5.914683   732A      5.930571  
     733A      5.964985   734A      5.991688   735A      6.014065  
     736A      6.049031   737A      6.061610   738A      6.072870  
     739A      6.092707   740A      6.128714   741A      6.143496  
     742A      6.160458   743A      6.188425   744A      6.209010  
     745A      6.217707   746A      6.230747   747A      6.252141  
     748A      6.274784   749A      6.282711   750A      6.292929  
     751A      6.308660   752A      6.319827   753A      6.328856  
     754A      6.351700   755A      6.373104   756A      6.405469  
     757A      6.424125   758A      6.462404   759A      6.560915  
     760A      6.644013   761A      6.669431   762A      6.703890  
     763A      6.719151   764A      6.782491   765A      6.793995  
     766A      6.825076   767A      6.854934   768A      6.888584  
     769A      6.910495   770A      6.958316   771A      7.006588  
     772A      7.042370   773A      7.101889   774A      7.126337  
     775A     17.959432   776A     18.204169   777A     18.411246  
     778A     18.474543   779A     18.668250   780A     18.969792  
     781A     19.431664   782A     19.868974  

    Final Occupation by Irrep:
              A 
    DOCC [    33 ]

  Energy converged.

  @DF-RHF Final Energy:  -313.53901369828770

   => Energetics <=

    Nuclear Repulsion Energy =            394.1923455611099598
    One-Electron Energy =               -1203.5310198833728919
    Two-Electron Energy =                 495.7996606239748303
    DFT Exchange-Correlation Energy =       0.0000000000000000
    Empirical Dispersion Energy =           0.0000000000000000
    PCM Polarization Energy =               0.0000000000000000
    EFP Energy =                            0.0000000000000000
    Total Energy =                       -313.5390136982881018


  Saving occupied orbitals to File 180.

*** tstop() called on wr36 at Wed Sep 21 04:58:50 2016
Module time:
	user time   =     825.54 seconds =      13.76 minutes
	system time =       9.47 seconds =       0.16 minutes
	total time  =         76 seconds =       1.27 minutes
Total time:
	user time   =     825.54 seconds =      13.76 minutes
	system time =       9.47 seconds =       0.16 minutes
	total time  =         76 seconds =       1.27 minutes


Properties will be evaluated at   0.000000,   0.000000,   0.000000 Bohr

Properties computed using the SCF density matrix

  Nuclear Dipole Moment: (a.u.)
     X:    -0.1931      Y:    -1.7749      Z:    -0.4047

  Electronic Dipole Moment: (a.u.)
     X:     0.1787      Y:     1.7995      Z:     0.4189

  Dipole Moment: (a.u.)
     X:    -0.0144      Y:     0.0246      Z:     0.0143     Total:     0.0319

  Dipole Moment: (Debye)
     X:    -0.0367      Y:     0.0625      Z:     0.0363     Total:     0.0811


  //>>>>>>>>>>>>>>>>>>>>>>>>>>>>>>>>>>>//
  //               DFMP2               //
  //<<<<<<<<<<<<<<<<<<<<<<<<<<<<<<<<<<<//


*** tstart() called on wr36
*** at Wed Sep 21 04:58:50 2016


*** tstop() called on wr36 at Wed Sep 21 04:58:51 2016
Module time:
	user time   =       5.13 seconds =       0.09 minutes
	system time =       0.28 seconds =       0.00 minutes
	total time  =          1 seconds =       0.02 minutes
Total time:
	user time   =     831.95 seconds =      13.87 minutes
	system time =       9.83 seconds =       0.16 minutes
	total time  =         77 seconds =       1.28 minutes
	 --------------------------------------------------------
	                          DF-MP2                         
	      2nd-Order Density-Fitted Moller-Plesset Theory     
	              RMP2 Wavefunction,  12 Threads             
	                                                         
	        Rob Parrish, Justin Turney, Andy Simmonett,      
	           Ed Hohenstein, and C. David Sherrill          
	 --------------------------------------------------------

   => Auxiliary Basis Set <=

  Basis Set: 
    Number of shells: 476
    Number of basis function: 1676
    Number of Cartesian functions: 2078
    Spherical Harmonics?: true
    Max angular momentum: 4

	 --------------------------------------------------------
	                 NBF =   782, NAUX =  1676
	 --------------------------------------------------------
	   CLASS    FOCC     OCC    AOCC    AVIR     VIR    FVIR
	   PAIRS       8      33      25     749     749       0
	 --------------------------------------------------------

DGAS Warning! /src/lib/libfock/apps.cc:80 is not currently checking restricted

         ------------------------------------------------------------
                                     CPHF                           
                                  Rob Parrish                       
         ------------------------------------------------------------

  ==> Geometry <==

    Molecular point group: c1
    Full point group: C1

    Geometry (in Angstrom), charge = 0, multiplicity = 1:

       Center              X                  Y                   Z               Mass       
    ------------   -----------------  -----------------  -----------------  -----------------
           C          3.157193231426    -1.075119602430    -0.552822100032    12.000000000000
           H          4.077579614149    -0.635767787400    -0.165351264021     1.007825032070
           H          2.921096405878    -0.574062271457    -1.491706531235     1.007825032070
           H          3.354171195633    -2.122998441390    -0.778248605812     1.007825032070
           C         -3.429956491976    -1.203385928048     0.025960900623    12.000000000000
           H         -4.511864535023    -1.095265843638     0.098748136681     1.007825032070
           H         -3.091541868116    -1.779254087718     0.888245184136     1.007825032070
           H         -3.210672341941    -1.786829629579    -0.869151051832     1.007825032070
           C          2.026795311029    -0.927683318887     0.460207202247    12.000000000000
           H          2.304086280128    -1.447456435348     1.380255949103     1.007825032070
           H          1.129175350176    -1.420249503364     0.082029865878     1.007825032070
           C         -2.730823725069     0.149357330100    -0.027268710553    12.000000000000
           H         -3.100000323825     0.723629208041    -0.881130318137     1.007825032070
           H         -2.978565585934     0.729012053110     0.866077174391     1.007825032070
           C          1.718889459979     0.536464793589     0.781762002603    12.000000000000
           H          2.663410502680     1.032669722235     1.020910340138     1.007825032070
           H          1.106942741057     0.595987856352     1.686735587447     1.007825032070
           C          1.003975490918     1.293474558736    -0.347945949609    12.000000000000
           H          1.230186986459     0.822740461062    -1.309106700036     1.007825032070
           H          1.390899884194     2.312563764474    -0.411755922025     1.007825032070
           C         -0.512489539936     1.368391236673    -0.172850638295    12.000000000000
           H         -0.735063822406     1.911595803549     0.751471756254     1.007825032070
           H         -0.938047129843     1.960144776690    -0.988955199532     1.007825032070
           C         -1.216280703754     0.017508214144    -0.130789807295    12.000000000000
           H         -0.964008851417    -0.553548963366    -1.030913004062     1.007825032070
           H         -0.853808746928    -0.566183170833     0.720187536766     1.007825032070

  Nuclear repulsion =  394.192345561109960
  Reference energy  = -313.539013698287704

  ==> Basis Set <==

  Basis Set: AUG-CC-PVTZ
    Number of shells: 274
    Number of basis function: 782
    Number of Cartesian functions: 890
    Spherical Harmonics?: true
    Max angular momentum: 3

  ==> CGRSolver (by Rob Parrish) <==

   Number of roots    =         1
   Preconditioning    =    JACOBI
   Convergence cutoff =     1E-06
   Maximum iterations =       100

  ==> CPHFRHamiltonian (by Rob Parrish) <== 

  ==> DFJK: Density-Fitted J/K Matrices <==

    J tasked:                  Yes
    K tasked:                  Yes
    wK tasked:                  No
    OpenMP threads:             12
    Integrals threads:          12
    Memory (MB):             42915
    Algorithm:                Core
    Integral Cache:           NONE
    Schwarz Cutoff:          1E-12
    Fitting Condition:       1E-12

   => Auxiliary Basis Set <=

  Basis Set: 
    Number of shells: 492
    Number of basis function: 1660
    Number of Cartesian functions: 2038
    Spherical Harmonics?: true
    Max angular momentum: 4

  ==> CPHF Iterations <==

  => Iterations <=

             Iter  Converged  Remaining    Residual
  CGR           1          0          1   9.061E-02
  CGR           2          0          1   1.298E-02
  CGR           3          0          1   3.737E-03
  CGR           4          0          1   8.656E-04
  CGR           5          0          1   1.994E-04
  CGR           6          0          1   4.712E-05
  CGR           7          0          1   1.379E-05
  CGR           8          0          1   3.625E-06
  CGR           9          1          0   9.587E-07

    CGRSolver converged.

  ==> DFCorrGrad: Density-Fitted Correlated Gradients <==

    OpenMP threads:             12
    Integrals threads:          12
    Memory (MB):             42915
    Schwarz Cutoff:          0E+00
    Fitting Condition:       1E-12

   => Auxiliary Basis Set <=

  Basis Set: 
    Number of shells: 492
    Number of basis function: 1660
    Number of Cartesian functions: 2038
    Spherical Harmonics?: true
    Max angular momentum: 4

	-----------------------------------------------------------
	 ==================> DF-MP2 Energies <==================== 
	-----------------------------------------------------------
	 Reference Energy          =    -313.5390136982877038 [Eh]
	 Singles Energy            =      -0.0000000000000001 [Eh]
	 Same-Spin Energy          =      -0.3162370976673328 [Eh]
	 Opposite-Spin Energy      =      -1.1254896515660082 [Eh]
	 Correlation Energy        =      -1.4417267492333410 [Eh]
	 Total Energy              =    -314.9807404475210433 [Eh]
	-----------------------------------------------------------
	 ================> DF-SCS-MP2 Energies <================== 
	-----------------------------------------------------------
	 SCS Same-Spin Scale       =       0.3333333333333333 [-]
	 SCS Opposite-Spin Scale   =       1.2000000000000000 [-]
	 SCS Same-Spin Energy      =      -0.1054123658891109 [Eh]
	 SCS Opposite-Spin Energy  =      -1.3505875818792099 [Eh]
	 SCS Correlation Energy    =      -1.4559999477683208 [Eh]
	 SCS Total Energy          =    -314.9950136460560088 [Eh]
	-----------------------------------------------------------


  -Total Gradient:
     Atom            X                  Y                   Z
    ------   -----------------  -----------------  -----------------
       1        0.000000196312    -0.000000032564    -0.000000154022
       2       -0.000000369078    -0.000000161895    -0.000000176941
       3        0.000000146474    -0.000000214637     0.000000350509
       4       -0.000000044361     0.000000409945    -0.000000020304
       5        0.000000039189     0.000000224033    -0.000000056002
       6       -0.000000028049    -0.000000043104    -0.000000009694
       7       -0.000000020658    -0.000000027911    -0.000000045441
       8       -0.000000031372    -0.000000066924     0.000000018362
       9       -0.000000927454    -0.000000221221    -0.000000026549
      10       -0.000000225940     0.000000145635    -0.000000388670
      11        0.000000715715     0.000000238147     0.000000239400
      12        0.000000264176    -0.000000708663     0.000000017938
      13       -0.000000175048     0.000000157117    -0.000000074617
      14       -0.000000063094     0.000000144311     0.000000125132
      15        0.000000236871     0.000000168108     0.000000335005
      16       -0.000000476252    -0.000000023493    -0.000000074346
      17        0.000000411758     0.000000018743    -0.000000410111
      18        0.000000266862    -0.000000291967    -0.000000225098
      19        0.000000082109     0.000000116294     0.000000396467
      20       -0.000000029299    -0.000000054126    -0.000000018151
      21       -0.000000105019    -0.000000247778     0.000000033227
      22       -0.000000027527    -0.000000055150     0.000000058627
      23       -0.000000005375     0.000000096088    -0.000000007095
      24       -0.000000054241     0.000000801386     0.000000144670
      25        0.000000186502    -0.000000223514    -0.000000063205
      26        0.000000036799    -0.000000146862     0.000000030913


			-----------------------------------------
			 OPTKING 2.0: for geometry optimizations 
			  - R.A. King,  Bethel University        
			-----------------------------------------

	Internal coordinates to be generated automatically.
	Detected frag 1 with atoms:  1 2 3 4 5 6 7 8 9 10 11 12 13 14 15 16 17 18 19 20
	 21 22 23 24 25 26
	---Fragment 1 Bond Connectivity---
	 1 : 2 3 4 9
	 2 : 1
	 3 : 1
	 4 : 1
	 5 : 6 7 8 12
	 6 : 5
	 7 : 5
	 8 : 5
	 9 : 1 10 11 15
	 10 : 9
	 11 : 9
	 12 : 5 13 14 24
	 13 : 12
	 14 : 12
	 15 : 9 16 17 18
	 16 : 15
	 17 : 15
	 18 : 15 19 20 21
	 19 : 18
	 20 : 18
	 21 : 18 22 23 24
	 22 : 21
	 23 : 21
	 24 : 12 21 25 26
	 25 : 24
	 26 : 24

	---Fragment 1 Geometry and Gradient---
	 C           5.9662305560       -2.0316816087       -1.0446823693
	 H           7.7055087558       -1.2014270023       -0.3124686047
	 H           5.5200722149       -1.0848204763       -2.8189168147
	 H           6.3384649626       -4.0118856348       -1.4706767283
	 C          -6.4816784175       -2.2740698362        0.0490589923
	 H          -8.5261883199       -2.0697524872        0.1866069345
	 H          -5.8421674591       -3.3623029466        1.6785401369
	 H          -6.0672914287       -3.3766186460       -1.6424574561
	 C           3.8300880653       -1.7530674107        0.8696655766
	 H           4.3540920560       -2.7352962521        2.6083057371
	 H           2.1338321678       -2.6838826017        0.1550139812
	 C          -5.1605089576        0.2822444498       -0.0515303949
	 H          -5.8581516239        1.3674610250       -1.6650949887
	 H          -5.6286732263        1.3776331280        1.6366486695
	 C           3.2482303321        1.0137715398        1.4773160860
	 H           5.0331164295        1.9514629607        1.9292409491
	 H           2.0918186254        1.1262538270        3.1874683189
	 C           1.8972387220        2.4443126759       -0.6575225538
	 H           2.3247164966        1.5547541499       -2.4738531418
	 H           2.6284198594        4.3701121797       -0.7781059262
	 C          -0.9684648764        2.5858846800       -0.3266403683
	 H          -1.3890693145        3.6123925455        1.4200758159
	 H          -1.7726521751        3.7041368088       -1.8688544848
	 C          -2.2984374308        0.0330857298       -0.2471569168
	 H          -1.8217127189       -1.0460559419       -1.9481432445
	 H          -1.6134647016       -1.0699311339        1.3609572088
	             0.0000001963       -0.0000000326       -0.0000001540
	            -0.0000003691       -0.0000001619       -0.0000001769
	             0.0000001465       -0.0000002146        0.0000003505
	            -0.0000000444        0.0000004099       -0.0000000203
	             0.0000000392        0.0000002240       -0.0000000560
	            -0.0000000280       -0.0000000431       -0.0000000097
	            -0.0000000207       -0.0000000279       -0.0000000454
	            -0.0000000314       -0.0000000669        0.0000000184
	            -0.0000009275       -0.0000002212       -0.0000000265
	            -0.0000002259        0.0000001456       -0.0000003887
	             0.0000007157        0.0000002381        0.0000002394
	             0.0000002642       -0.0000007087        0.0000000179
	            -0.0000001750        0.0000001571       -0.0000000746
	            -0.0000000631        0.0000001443        0.0000001251
	             0.0000002369        0.0000001681        0.0000003350
	            -0.0000004763       -0.0000000235       -0.0000000743
	             0.0000004118        0.0000000187       -0.0000004101
	             0.0000002669       -0.0000002920       -0.0000002251
	             0.0000000821        0.0000001163        0.0000003965
	            -0.0000000293       -0.0000000541       -0.0000000182
	            -0.0000001050       -0.0000002478        0.0000000332
	            -0.0000000275       -0.0000000552        0.0000000586
	            -0.0000000054        0.0000000961       -0.0000000071
	            -0.0000000542        0.0000008014        0.0000001447
	             0.0000001865       -0.0000002235       -0.0000000632
	             0.0000000368       -0.0000001469        0.0000000309

	Previous optimization step data not found.  Starting new optimization.

	---Fragment 1 Intrafragment Coordinates---
	 - Coordinate -           - BOHR/RAD -       - ANG/DEG -
	 R(1,2)           =         2.061686	       1.090997
	 R(1,3)           =         2.059978	       1.090094
	 R(1,4)           =         2.059427	       1.089802
	 R(1,9)           =         2.881919	       1.525046
	 R(5,6)           =         2.059293	       1.089731
	 R(5,7)           =         2.061173	       1.090726
	 R(5,8)           =         2.061203	       1.090742
	 R(5,12)          =         2.879297	       1.523658
	 R(9,10)          =         2.064515	       1.092494
	 R(9,11)          =         2.062626	       1.091495
	 R(9,15)          =         2.891919	       1.530338
	 R(12,13)         =         2.065912	       1.093233
	 R(12,14)         =         2.066157	       1.093363
	 R(12,24)         =         2.879549	       1.523792
	 R(15,16)         =         2.066233	       1.093404
	 R(15,17)         =         2.067501	       1.094074
	 R(15,18)         =         2.903302	       1.536361
	 R(18,19)         =         2.067150	       1.093889
	 R(18,20)         =         2.063461	       1.091936
	 R(18,21)         =         2.888214	       1.528377
	 R(21,22)         =         2.069213	       1.094981
	 R(21,23)         =         2.067760	       1.094211
	 R(21,24)         =         2.879571	       1.523803
	 R(24,25)         =         2.070065	       1.095431
	 R(24,26)         =         2.066849	       1.093729
	 B(1,9,10)        =         1.902106	     108.982663
	 B(1,9,11)        =         1.913235	     109.620277
	 B(1,9,15)        =         1.961895	     112.408329
	 B(2,1,3)         =         1.879161	     107.667992
	 B(2,1,4)         =         1.884094	     107.950643
	 B(2,1,9)         =         1.928861	     110.515619
	 B(3,1,4)         =         1.878586	     107.635052
	 B(3,1,9)         =         1.946736	     111.539740
	 B(4,1,9)         =         1.943714	     111.366612
	 B(5,12,13)       =         1.916339	     109.798142
	 B(5,12,14)       =         1.915772	     109.765634
	 B(5,12,24)       =         1.962343	     112.433997
	 B(6,5,7)         =         1.883484	     107.915697
	 B(6,5,8)         =         1.883344	     107.907669
	 B(6,5,12)        =         1.949594	     111.703493
	 B(7,5,8)         =         1.879664	     107.696824
	 B(7,5,12)        =         1.932637	     110.731942
	 B(8,5,12)        =         1.932625	     110.731267
	 B(9,15,16)       =         1.882143	     107.838861
	 B(9,15,17)       =         1.916004	     109.778947
	 B(9,15,18)       =         1.993841	     114.238652
	 B(10,9,11)       =         1.860653	     106.607578
	 B(10,9,15)       =         1.906363	     109.226527
	 B(11,9,15)       =         1.916753	     109.821851
	 B(12,24,21)      =         1.965169	     112.595873
	 B(12,24,25)      =         1.906918	     109.258332
	 B(12,24,26)      =         1.899394	     108.827288
	 B(13,12,14)      =         1.857877	     106.448518
	 B(13,12,24)      =         1.905018	     109.149479
	 B(14,12,24)      =         1.903493	     109.062119
	 B(15,18,19)      =         1.915406	     109.744688
	 B(15,18,20)      =         1.915523	     109.751359
	 B(15,18,21)      =         1.984076	     113.679180
	 B(16,15,17)      =         1.852052	     106.114767
	 B(16,15,18)      =         1.916849	     109.827330
	 B(17,15,18)      =         1.897732	     108.732057
	 B(18,21,22)      =         1.899385	     108.826768
	 B(18,21,23)      =         1.903870	     109.083712
	 B(18,21,24)      =         2.002009	     114.706656
	 B(19,18,20)      =         1.851464	     106.081094
	 B(19,18,21)      =         1.903860	     109.083143
	 B(20,18,21)      =         1.888655	     108.211945
	 B(21,24,25)      =         1.910390	     109.457304
	 B(21,24,26)      =         1.919330	     109.969513
	 B(22,21,23)      =         1.856941	     106.394902
	 B(22,21,24)      =         1.899280	     108.820703
	 B(23,21,24)      =         1.896941	     108.686726
	 B(25,24,26)      =         1.859595	     106.546968
	 D(1,9,15,16)     =        -0.869349	     -49.810035
	 D(1,9,15,17)     =        -2.879756	    -164.997889
	 D(1,9,15,18)     =         1.266732	      72.578380
	 D(2,1,9,10)      =        -1.056560	     -60.536449
	 D(2,1,9,11)      =        -3.086867	    -176.864475
	 D(2,1,9,15)      =         1.059362	      60.696994
	 D(3,1,9,10)      =         3.136747	     179.722379
	 D(3,1,9,11)      =         1.106440	      63.394353
	 D(3,1,9,15)      =        -1.030515	     -59.044178
	 D(4,1,9,10)      =         1.037545	      59.446945
	 D(4,1,9,11)      =        -0.992762	     -56.881080
	 D(4,1,9,15)      =        -3.129718	    -179.319612
	 D(5,12,24,21)    =        -3.133451	    -179.533489
	 D(5,12,24,25)    =         1.023178	      58.623766
	 D(5,12,24,26)    =        -1.000837	     -57.343709
	 D(6,5,12,13)     =        -1.016034	     -58.214449
	 D(6,5,12,14)     =         1.020566	      58.474143
	 D(6,5,12,24)     =        -3.140500	    -179.937389
	 D(7,5,12,13)     =        -3.115823	    -178.523497
	 D(7,5,12,14)     =        -1.079223	     -61.834906
	 D(7,5,12,24)     =         1.042896	      59.753563
	 D(8,5,12,13)     =         1.083569	      62.083956
	 D(8,5,12,14)     =         3.120170	     178.772548
	 D(8,5,12,24)     =        -1.040897	     -59.638984
	 D(9,15,18,19)    =        -0.439577	     -25.185892
	 D(9,15,18,20)    =        -2.467728	    -141.390387
	 D(9,15,18,21)    =         1.697741	      97.273400
	 D(10,9,15,16)    =         1.244136	      71.283736
	 D(10,9,15,17)    =        -0.766271	     -43.904119
	 D(10,9,15,18)    =        -2.902969	    -166.327849
	 D(11,9,15,16)    =        -3.004316	    -172.134626
	 D(11,9,15,17)    =         1.268462	      72.677520
	 D(11,9,15,18)    =        -0.868235	     -49.746210
	 D(12,24,21,18)   =        -3.090059	    -177.047327
	 D(12,24,21,22)   =         1.061247	      60.804955
	 D(12,24,21,23)   =        -0.954122	     -54.667144
	 D(13,12,24,21)   =         1.018839	      58.375171
	 D(13,12,24,25)   =        -1.107718	     -63.467573
	 D(13,12,24,26)   =        -3.131732	    -179.435048
	 D(14,12,24,21)   =        -1.004349	     -57.544955
	 D(14,12,24,25)   =        -3.130906	    -179.387699
	 D(14,12,24,26)   =         1.128265	      64.644825
	 D(15,18,21,22)   =         1.076412	      61.673839
	 D(15,18,21,23)   =         3.095591	     177.364277
	 D(15,18,21,24)   =        -1.055411	     -60.470590
	 D(16,15,18,19)   =         1.677443	      96.110406
	 D(16,15,18,20)   =        -0.350708	     -20.094090
	 D(16,15,18,21)   =        -2.468424	    -141.430302
	 D(17,15,18,19)   =        -2.586213	    -148.179090
	 D(17,15,18,20)   =         1.668821	      95.616414
	 D(17,15,18,21)   =        -0.448895	     -25.719798
	 D(18,21,24,25)   =        -0.965471	     -55.317386
	 D(18,21,24,26)   =         1.071805	      61.409926
	 D(19,18,21,22)   =        -3.063103	    -175.502882
	 D(19,18,21,23)   =        -1.043924	     -59.812444
	 D(19,18,21,24)   =         1.088260	      62.352689
	 D(20,18,21,22)   =        -1.056232	     -60.517628
	 D(20,18,21,23)   =         0.962947	      55.172810
	 D(20,18,21,24)   =         3.095131	     177.337944
	 D(22,21,24,25)   =        -3.097350	    -177.465105
	 D(22,21,24,26)   =        -1.060074	     -60.737792
	 D(23,21,24,25)   =         1.170467	      67.062796
	 D(23,21,24,26)   =        -3.075443	    -176.209892
	 R(9,24)          =         6.480468	       3.429316

	Current energy   :      -314.9807404475

	Generating empirical Hessian (Schlegel '84) for each fragment.
	Taking RFO optimization step.
	Going to follow RFO solution 1.
	Using RFO vector 1.
	Norm of target step-size    0.00015
	Projected energy change by RFO approximation:        -0.0000000001

	Back-transformation to cartesian coordinates...
	Successfully converged to displaced geometry.

	--- Internal Coordinate Step in ANG or DEG, aJ/ANG or AJ/DEG ---
	 ---------------------------------------------------------------------------
	   Coordinate                Previous        Force       Change         New 
	   ----------                --------       ------       ------       ------
	    1 R(1,2)          =      1.090997     0.000004     0.000001     1.090998
	    2 R(1,3)          =      1.090094     0.000004     0.000001     1.090094
	    3 R(1,4)          =      1.089802     0.000003     0.000001     1.089802
	    4 R(1,9)          =      1.525046     0.000001     0.000000     1.525046
	    5 R(5,6)          =      1.089731    -0.000000    -0.000000     1.089731
	    6 R(5,7)          =      1.090726     0.000000     0.000000     1.090726
	    7 R(5,8)          =      1.090742    -0.000000    -0.000000     1.090742
	    8 R(5,12)         =      1.523658     0.000001     0.000000     1.523658
	    9 R(9,10)         =      1.092494     0.000004     0.000001     1.092495
	   10 R(9,11)         =      1.091495     0.000006     0.000001     1.091496
	   11 R(9,15)         =      1.530338     0.000001     0.000000     1.530338
	   12 R(12,13)        =      1.093233    -0.000002    -0.000000     1.093233
	   13 R(12,14)        =      1.093363    -0.000002    -0.000000     1.093363
	   14 R(12,24)        =      1.523792     0.000000     0.000000     1.523792
	   15 R(15,16)        =      1.093404     0.000004     0.000001     1.093404
	   16 R(15,17)        =      1.094074     0.000005     0.000001     1.094075
	   17 R(15,18)        =      1.536361     0.000003     0.000000     1.536362
	   18 R(18,19)        =      1.093889     0.000003     0.000001     1.093889
	   19 R(18,20)        =      1.091936     0.000001     0.000000     1.091936
	   20 R(18,21)        =      1.528377    -0.000002    -0.000001     1.528377
	   21 R(21,22)        =      1.094981    -0.000000    -0.000000     1.094981
	   22 R(21,23)        =      1.094211    -0.000001    -0.000000     1.094211
	   23 R(21,24)        =      1.523803     0.000001     0.000000     1.523803
	   24 R(24,25)        =      1.095431    -0.000002    -0.000000     1.095431
	   25 R(24,26)        =      1.093729    -0.000001    -0.000000     1.093729
	   26 B(1,9,10)       =    108.982663    -0.000000    -0.000019   108.982644
	   27 B(1,9,11)       =    109.620277     0.000000     0.000036   109.620313
	   28 B(1,9,15)       =    112.408329     0.000000    -0.000001   112.408328
	   29 B(2,1,3)        =    107.667992     0.000000     0.000020   107.668012
	   30 B(2,1,4)        =    107.950643     0.000000     0.000000   107.950643
	   31 B(2,1,9)        =    110.515619     0.000000     0.000002   110.515621
	   32 B(3,1,4)        =    107.635052     0.000000     0.000036   107.635088
	   33 B(3,1,9)        =    111.539740    -0.000000    -0.000015   111.539724
	   34 B(4,1,9)        =    111.366612    -0.000000    -0.000040   111.366573
	   35 B(5,12,13)      =    109.798142     0.000000     0.000032   109.798174
	   36 B(5,12,14)      =    109.765634     0.000000    -0.000007   109.765626
	   37 B(5,12,24)      =    112.433997    -0.000000    -0.000057   112.433940
	   38 B(6,5,7)        =    107.915697     0.000000     0.000013   107.915710
	   39 B(6,5,8)        =    107.907669     0.000000     0.000018   107.907688
	   40 B(6,5,12)       =    111.703493    -0.000000    -0.000011   111.703481
	   41 B(7,5,8)        =    107.696824     0.000000     0.000025   107.696849
	   42 B(7,5,12)       =    110.731942    -0.000000    -0.000008   110.731934
	   43 B(8,5,12)       =    110.731267    -0.000000    -0.000034   110.731232
	   44 B(9,15,16)      =    107.838861    -0.000000    -0.000111   107.838750
	   45 B(9,15,17)      =    109.778947    -0.000000    -0.000012   109.778935
	   46 B(9,15,18)      =    114.238652     0.000000     0.000045   114.238697
	   47 B(10,9,11)      =    106.607578     0.000000     0.000055   106.607633
	   48 B(10,9,15)      =    109.226527    -0.000000    -0.000020   109.226507
	   49 B(11,9,15)      =    109.821851    -0.000000    -0.000048   109.821803
	   50 B(12,24,21)     =    112.595873    -0.000000    -0.000136   112.595737
	   51 B(12,24,25)     =    109.258332     0.000000    -0.000022   109.258311
	   52 B(12,24,26)     =    108.827288     0.000000     0.000030   108.827318
	   53 B(13,12,14)     =    106.448518     0.000000     0.000066   106.448583
	   54 B(13,12,24)     =    109.149479    -0.000000    -0.000037   109.149441
	   55 B(14,12,24)     =    109.062119     0.000000     0.000010   109.062129
	   56 B(15,18,19)     =    109.744688     0.000000     0.000061   109.744749
	   57 B(15,18,20)     =    109.751359     0.000000     0.000028   109.751387
	   58 B(15,18,21)     =    113.679180    -0.000000    -0.000058   113.679123
	   59 B(16,15,17)     =    106.114767     0.000000     0.000053   106.114820
	   60 B(16,15,18)     =    109.827330     0.000000     0.000029   109.827360
	   61 B(17,15,18)     =    108.732057    -0.000000    -0.000003   108.732054
	   62 B(18,21,22)     =    108.826768    -0.000000    -0.000020   108.826748
	   63 B(18,21,23)     =    109.083712     0.000000     0.000035   109.083747
	   64 B(18,21,24)     =    114.706656    -0.000000    -0.000038   114.706617
	   65 B(19,18,20)     =    106.081094    -0.000000     0.000023   106.081117
	   66 B(19,18,21)     =    109.083143    -0.000000    -0.000073   109.083070
	   67 B(20,18,21)     =    108.211945     0.000000     0.000022   108.211968
	   68 B(21,24,25)     =    109.457304     0.000000     0.000026   109.457330
	   69 B(21,24,26)     =    109.969513     0.000000     0.000001   109.969514
	   70 B(22,21,23)     =    106.394902    -0.000000     0.000008   106.394910
	   71 B(22,21,24)     =    108.820703     0.000000     0.000018   108.820721
	   72 B(23,21,24)     =    108.686726    -0.000000     0.000001   108.686727
	   73 B(25,24,26)     =    106.546968     0.000000     0.000113   106.547081
	   74 D(1,9,15,16)    =    -49.810035    -0.000000    -0.001661   -49.811696
	   75 D(1,9,15,17)    =   -164.997889     0.000000    -0.001657  -164.999546
	   76 D(1,9,15,18)    =     72.578380    -0.000000    -0.001676    72.576704
	   77 D(2,1,9,10)     =    -60.536449     0.000000    -0.000177   -60.536626
	   78 D(2,1,9,11)     =   -176.864475    -0.000000    -0.000252  -176.864727
	   79 D(2,1,9,15)     =     60.696994     0.000000    -0.000216    60.696778
	   80 D(3,1,9,10)     =    179.722379     0.000000    -0.000193   179.722185
	   81 D(3,1,9,11)     =     63.394353    -0.000000    -0.000269    63.394084
	   82 D(3,1,9,15)     =    -59.044178     0.000000    -0.000232   -59.044410
	   83 D(4,1,9,10)     =     59.446945     0.000000    -0.000202    59.446744
	   84 D(4,1,9,11)     =    -56.881080    -0.000000    -0.000277   -56.881357
	   85 D(4,1,9,15)     =   -179.319612    -0.000000    -0.000240  -179.319852
	   86 D(5,12,24,21)   =   -179.533489     0.000000     0.000528  -179.532962
	   87 D(5,12,24,25)   =     58.623766     0.000000     0.000601    58.624367
	   88 D(5,12,24,26)   =    -57.343709    -0.000000     0.000460   -57.343249
	   89 D(6,5,12,13)    =    -58.214449    -0.000000    -0.000106   -58.214555
	   90 D(6,5,12,14)    =     58.474143     0.000000    -0.000012    58.474130
	   91 D(6,5,12,24)    =   -179.937389     0.000000    -0.000043  -179.937432
	   92 D(7,5,12,13)    =   -178.523497    -0.000000    -0.000110  -178.523607
	   93 D(7,5,12,14)    =    -61.834906     0.000000    -0.000016   -61.834921
	   94 D(7,5,12,24)    =     59.753563     0.000000    -0.000046    59.753516
	   95 D(8,5,12,13)    =     62.083956    -0.000000    -0.000114    62.083842
	   96 D(8,5,12,14)    =    178.772548     0.000000    -0.000020   178.772528
	   97 D(8,5,12,24)    =    -59.638984     0.000000    -0.000050   -59.639034
	   98 D(9,15,18,19)   =    -25.185892     0.000000     0.001747   -25.184144
	   99 D(9,15,18,20)   =   -141.390387     0.000000     0.001668  -141.388719
	  100 D(9,15,18,21)   =     97.273400     0.000000     0.001658    97.275059
	  101 D(10,9,15,16)   =     71.283736    -0.000000    -0.001700    71.282036
	  102 D(10,9,15,17)   =    -43.904119    -0.000000    -0.001695   -43.905814
	  103 D(10,9,15,18)   =   -166.327849    -0.000000    -0.001714  -166.329563
	  104 D(11,9,15,16)   =   -172.134626    -0.000000    -0.001672  -172.136298
	  105 D(11,9,15,17)   =     72.677520    -0.000000    -0.001668    72.675853
	  106 D(11,9,15,18)   =    -49.746210    -0.000000    -0.001687   -49.747897
	  107 D(12,24,21,18)  =   -177.047327    -0.000000    -0.000617  -177.047943
	  108 D(12,24,21,22)  =     60.804955     0.000000    -0.000578    60.804377
	  109 D(12,24,21,23)  =    -54.667144     0.000000    -0.000597   -54.667741
	  110 D(13,12,24,21)  =     58.375171     0.000000     0.000551    58.375723
	  111 D(13,12,24,25)  =    -63.467573     0.000000     0.000624   -63.466949
	  112 D(13,12,24,26)  =   -179.435048    -0.000000     0.000484  -179.434564
	  113 D(14,12,24,21)  =    -57.544955    -0.000000     0.000488   -57.544467
	  114 D(14,12,24,25)  =   -179.387699     0.000000     0.000561  -179.387139
	  115 D(14,12,24,26)  =     64.644825    -0.000000     0.000421    64.645246
	  116 D(15,18,21,22)  =     61.673839     0.000000     0.001283    61.675122
	  117 D(15,18,21,23)  =    177.364277     0.000000     0.001301   177.365578
	  118 D(15,18,21,24)  =    -60.470590    -0.000000     0.001302   -60.469287
	  119 D(16,15,18,19)  =     96.110406     0.000000     0.001656    96.112062
	  120 D(16,15,18,20)  =    -20.094090    -0.000000     0.001577   -20.092513
	  121 D(16,15,18,21)  =   -141.430302    -0.000000     0.001567  -141.428735
	  122 D(17,15,18,19)  =   -148.179090     0.000000     0.001734  -148.177355
	  123 D(17,15,18,20)  =     95.616414    -0.000000     0.001655    95.618069
	  124 D(17,15,18,21)  =    -25.719798     0.000000     0.001645   -25.718153
	  125 D(18,21,24,25)  =    -55.317386    -0.000000    -0.000717   -55.318103
	  126 D(18,21,24,26)  =     61.409926     0.000000    -0.000564    61.409362
	  127 D(19,18,21,22)  =   -175.502882     0.000000     0.001268  -175.501614
	  128 D(19,18,21,23)  =    -59.812444     0.000000     0.001286   -59.811158
	  129 D(19,18,21,24)  =     62.352689     0.000000     0.001287    62.353976
	  130 D(20,18,21,22)  =    -60.517628     0.000000     0.001269   -60.516358
	  131 D(20,18,21,23)  =     55.172810     0.000000     0.001287    55.174097
	  132 D(20,18,21,24)  =    177.337944     0.000000     0.001288   177.339232
	  133 D(22,21,24,25)  =   -177.465105    -0.000000    -0.000678  -177.465783
	  134 D(22,21,24,26)  =    -60.737792     0.000000    -0.000525   -60.738317
	  135 D(23,21,24,25)  =     67.062796    -0.000000    -0.000697    67.062099
	  136 D(23,21,24,26)  =   -176.209892     0.000000    -0.000544  -176.210436
	  137 R(9,24)         =      3.429316     0.000002     0.000017     3.429333
	 ---------------------------------------------------------------------------

  ==> Convergence Check <==

  Measures of convergence in internal coordinates in au.
  Criteria marked as inactive (o), active & met (*), and active & unmet ( ).
  --------------------------------------------------------------------------------------------- ~
   Step     Total Energy     Delta E     MAX Force     RMS Force      MAX Disp      RMS Disp    ~
  --------------------------------------------------------------------------------------------- ~
    Convergence Criteria             o    2.00e-06 *    1.00e-06 *    6.00e-06 *    4.00e-06 *  ~
  --------------------------------------------------------------------------------------------- ~
      1    -314.98074045   -3.15e+02 o    7.79e-07 *    1.51e-07 *    3.28e-05      1.29e-05    ~
  ---------------------------------------------------------------------------------------------

	Writing optimization data to binary file.
	Structure for next step:
	Cartesian Geometry (in Angstrom)
	    C     3.1572093440  -1.0750967567  -0.5528312821
	    H     4.0775859314  -0.6357271214  -0.1653554906
	    H     2.9211005384  -0.5740351983  -1.4917112237
	    H     3.3542117229  -2.1229694784  -0.7782677687
	    C    -3.4299653189  -1.2033734498   0.0259805997
	    H    -4.5118729400  -1.0952471969   0.0987643640
	    H    -3.0915539513  -1.7792255345   0.8882769498
	    H    -3.2106822678  -1.7868355879  -0.8691195905
	    C     2.0268076031  -0.9276972484   0.4601992968
	    H     2.3041096178  -1.4474763872   1.3802421303
	    H     1.1291966671  -1.4202770489   0.0820148384
	    C    -2.7308268162   0.1493659533  -0.0272755043
	    H    -3.0999981721   0.7236216656  -0.8811498498
	    H    -2.9785675154   0.7290395672   0.8660580815
	    C     1.7188709732   0.5364403428   0.7817729569
	    H     2.6633795155   1.0326532045   1.0209572779
	    H     1.1068972689   0.5959371343   1.6867310841
	    C     1.0039779555   1.2934621568  -0.3479408443
	    H     1.2301980073   0.8227319722  -1.3091021523
	    H     1.3909100639   2.3125492342  -0.4117396400
	    C    -0.5124883331   1.3683873385  -0.1728652971
	    H    -0.7350714613   1.9116075736   0.7514457213
	    H    -0.9380343395   1.9601290128  -0.9889843695
	    C    -1.2162842688   0.0175069610  -0.1307910833
	    H    -0.9640137390  -0.5535607203  -1.0309075882
	    H    -0.8538172979  -0.5661755928   0.7201942177
			--------------------------
			 OPTKING Finished Execution 
			--------------------------

    Structure for next step:
    Molecular point group: c1
    Full point group: C1

    Geometry (in Angstrom), charge = 0, multiplicity = 1:

    C            3.157209526404    -1.075095602379    -0.552830891387
    H            4.077586113769    -0.635725967080    -0.165355099897
    H            2.921100720765    -0.574034044004    -1.491710832922
    H            3.354211905310    -2.122968324072    -0.778267377901
    C           -3.429965136527    -1.203372295510     0.025980990455
    H           -4.511872757607    -1.095246042543     0.098764754781
    H           -3.091553768913    -1.779224380139     0.888277340553
    H           -3.210682085450    -1.786834433599    -0.869119199766
    C            2.026807785474    -0.927696094077     0.460199687552
    H            2.304109800221    -1.447475232889     1.380242521038
    H            1.129196849535    -1.420275894546     0.082015229183
    C           -2.730826633797     0.149367107665    -0.027275113561
    H           -3.099997989689     0.723622819923    -0.881149459042
    H           -2.978567332996     0.729040721551     0.866058472220
    C            1.718871155554     0.536441497140     0.781773347610
    H            2.663379697879     1.032654358843     1.020957668654
    H            1.106897451264     0.595938288626     1.686731474872
    C            1.003978137916     1.293463311089    -0.347940453531
    H            1.230198189724     0.822733126492    -1.309101761591
    H            1.390910246297     2.312550388492    -0.411739249287
    C           -0.512488150753     1.368388492851    -0.172864906379
    H           -0.735071278949     1.911608727937     0.751446112013
    H           -0.938034157076     1.960130167150    -0.988983978758
    C           -1.216284086451     0.017508115378    -0.130790692555
    H           -0.964013556596    -0.553559565981    -1.030907197482
    H           -0.853817115508    -0.566174438489     0.720194608491

gradient() will perform analytic gradient computation.

*** tstart() called on wr36
*** at Wed Sep 21 05:04:04 2016


         ---------------------------------------------------------
                                   SCF
            by Justin Turney, Rob Parrish, and Andy Simmonett
                              RHF Reference
                       12 Threads,  60000 MiB Core
         ---------------------------------------------------------

  ==> Geometry <==

    Molecular point group: c1
    Full point group: C1

    Geometry (in Angstrom), charge = 0, multiplicity = 1:

       Center              X                  Y                   Z               Mass       
    ------------   -----------------  -----------------  -----------------  -----------------
           C          3.157209526404    -1.075095602379    -0.552830891387    12.000000000000
           H          4.077586113769    -0.635725967080    -0.165355099897     1.007825032070
           H          2.921100720765    -0.574034044004    -1.491710832922     1.007825032070
           H          3.354211905310    -2.122968324072    -0.778267377901     1.007825032070
           C         -3.429965136527    -1.203372295510     0.025980990455    12.000000000000
           H         -4.511872757607    -1.095246042543     0.098764754781     1.007825032070
           H         -3.091553768913    -1.779224380139     0.888277340553     1.007825032070
           H         -3.210682085450    -1.786834433599    -0.869119199766     1.007825032070
           C          2.026807785474    -0.927696094077     0.460199687552    12.000000000000
           H          2.304109800221    -1.447475232889     1.380242521038     1.007825032070
           H          1.129196849535    -1.420275894546     0.082015229183     1.007825032070
           C         -2.730826633797     0.149367107665    -0.027275113561    12.000000000000
           H         -3.099997989689     0.723622819923    -0.881149459042     1.007825032070
           H         -2.978567332996     0.729040721551     0.866058472220     1.007825032070
           C          1.718871155554     0.536441497140     0.781773347610    12.000000000000
           H          2.663379697879     1.032654358843     1.020957668654     1.007825032070
           H          1.106897451264     0.595938288626     1.686731474872     1.007825032070
           C          1.003978137916     1.293463311089    -0.347940453531    12.000000000000
           H          1.230198189724     0.822733126492    -1.309101761591     1.007825032070
           H          1.390910246297     2.312550388492    -0.411739249287     1.007825032070
           C         -0.512488150753     1.368388492851    -0.172864906379    12.000000000000
           H         -0.735071278949     1.911608727937     0.751446112013     1.007825032070
           H         -0.938034157076     1.960130167150    -0.988983978758     1.007825032070
           C         -1.216284086451     0.017508115378    -0.130790692555    12.000000000000
           H         -0.964013556596    -0.553559565981    -1.030907197482     1.007825032070
           H         -0.853817115508    -0.566174438489     0.720194608491     1.007825032070

  Running in c1 symmetry.

  Rotational constants: A =      0.10941  B =      0.02728  C =      0.02384 [cm^-1]
  Rotational constants: A =   3280.08862  B =    817.88330  C =    714.63857 [MHz]
  Nuclear repulsion =  394.192292548974024

  Charge       = 0
  Multiplicity = 1
  Electrons    = 66
  Nalpha       = 33
  Nbeta        = 33

  ==> Algorithm <==

  SCF Algorithm Type is DF.
  DIIS enabled.
  MOM disabled.
  Fractional occupation disabled.
  Guess Type is READ.
  Energy threshold   = 1.00e-10
  Density threshold  = 1.00e-10
  Integral threshold = 0.00e+00

  ==> Primary Basis <==

  Basis Set: AUG-CC-PVTZ
    Number of shells: 274
    Number of basis function: 782
    Number of Cartesian functions: 890
    Spherical Harmonics?: true
    Max angular momentum: 3

  ==> Pre-Iterations <==

   -------------------------------------------------------
    Irrep   Nso     Nmo     Nalpha   Nbeta   Ndocc  Nsocc
   -------------------------------------------------------
     A        782     782       0       0       0       0
   -------------------------------------------------------
    Total     782     782      33      33      33       0
   -------------------------------------------------------

  ==> Integral Setup <==

  ==> DFJK: Density-Fitted J/K Matrices <==

    J tasked:                  Yes
    K tasked:                  Yes
    wK tasked:                  No
    OpenMP threads:             12
    Integrals threads:          12
    Memory (MB):             42915
    Algorithm:                Core
    Integral Cache:           NONE
    Schwarz Cutoff:          1E-12
    Fitting Condition:       1E-12

   => Auxiliary Basis Set <=

  Basis Set: 
    Number of shells: 492
    Number of basis function: 1660
    Number of Cartesian functions: 2038
    Spherical Harmonics?: true
    Max angular momentum: 4

  Minimum eigenvalue in the overlap matrix is 2.2854374360E-06.
  Using Symmetric Orthogonalization.
  SCF Guess: Reading in previously saved MOs, projecting if necessary.

  Using orbitals from previous SCF, no projection.
  Recomputing DOCC and SOCC from number of alpha and beta electrons from previous calculation.
              A 
    DOCC [    33 ]

  ==> Iterations <==

                           Total Energy        Delta E     RMS |[F,P]|

   @DF-RHF iter   0:  -313.53900933857244   -3.13539e+02   8.53766e-08 
   @DF-RHF iter   1:  -313.53901362033332   -4.28176e-06   1.69969e-08 
   @DF-RHF iter   2:  -313.53901362050271   -1.69393e-10   6.33013e-09 DIIS
   @DF-RHF iter   3:  -313.53901362052579   -2.30784e-11   2.79803e-09 DIIS
   @DF-RHF iter   4:  -313.53901362052977   -3.97904e-12   3.39374e-10 DIIS
   @DF-RHF iter   5:  -313.53901362053068   -9.09495e-13   1.03935e-10 DIIS
   @DF-RHF iter   6:  -313.53901362053057    1.13687e-13   2.97506e-11 DIIS

  ==> Post-Iterations <==

    Orbital Energies (a.u.)
    -----------------------

    Doubly Occupied:                                                      

       1A    -11.212571     2A    -11.211728     3A    -11.210856  
       4A    -11.210477     5A    -11.209924     6A    -11.209721  
       7A    -11.207324     8A    -11.206232     9A     -1.093995  
      10A     -1.059347    11A     -1.009989    12A     -0.944918  
      13A     -0.887866    14A     -0.822976    15A     -0.787187  
      16A     -0.763846    17A     -0.648488    18A     -0.627237  
      19A     -0.614646    20A     -0.589222    21A     -0.571063  
      22A     -0.565744    23A     -0.545297    24A     -0.529729  
      25A     -0.515735    26A     -0.498523    27A     -0.486504  
      28A     -0.475276    29A     -0.468294    30A     -0.462109  
      31A     -0.449581    32A     -0.436900    33A     -0.432545  

    Virtual:                                                              

      34A      0.029088    35A      0.032673    36A      0.034050  
      37A      0.035050    38A      0.046445    39A      0.047980  
      40A      0.050140    41A      0.054341    42A      0.055494  
      43A      0.064118    44A      0.069376    45A      0.070819  
      46A      0.074953    47A      0.077846    48A      0.086195  
      49A      0.088738    50A      0.091502    51A      0.103265  
      52A      0.112772    53A      0.115902    54A      0.120488  
      55A      0.126168    56A      0.128671    57A      0.131954  
      58A      0.136256    59A      0.136889    60A      0.142309  
      61A      0.144995    62A      0.147692    63A      0.151563  
      64A      0.152157    65A      0.155887    66A      0.157461  
      67A      0.163434    68A      0.168116    69A      0.171790  
      70A      0.176634    71A      0.182536    72A      0.188245  
      73A      0.190996    74A      0.192764    75A      0.196061  
      76A      0.204329    77A      0.216972    78A      0.223912  
      79A      0.229324    80A      0.231841    81A      0.242878  
      82A      0.245666    83A      0.247242    84A      0.256891  
      85A      0.261479    86A      0.267730    87A      0.273617  
      88A      0.281578    89A      0.290836    90A      0.294439  
      91A      0.297580    92A      0.302116    93A      0.304595  
      94A      0.313520    95A      0.317187    96A      0.321701  
      97A      0.325117    98A      0.327597    99A      0.329534  
     100A      0.336836   101A      0.338886   102A      0.343255  
     103A      0.346367   104A      0.349903   105A      0.359366  
     106A      0.362164   107A      0.362496   108A      0.367868  
     109A      0.369359   110A      0.373868   111A      0.374614  
     112A      0.381793   113A      0.386538   114A      0.388526  
     115A      0.395896   116A      0.397115   117A      0.399196  
     118A      0.401967   119A      0.403739   120A      0.407519  
     121A      0.409861   122A      0.416885   123A      0.422696  
     124A      0.425976   125A      0.430333   126A      0.441815  
     127A      0.443713   128A      0.444133   129A      0.447937  
     130A      0.450786   131A      0.456650   132A      0.458186  
     133A      0.464253   134A      0.465981   135A      0.467266  
     136A      0.474782   137A      0.476627   138A      0.479162  
     139A      0.482293   140A      0.485725   141A      0.488194  
     142A      0.490173   143A      0.494704   144A      0.499050  
     145A      0.507844   146A      0.509891   147A      0.516725  
     148A      0.518945   149A      0.520664   150A      0.522897  
     151A      0.527257   152A      0.529387   153A      0.535542  
     154A      0.540461   155A      0.541917   156A      0.552446  
     157A      0.554828   158A      0.559660   159A      0.564785  
     160A      0.568876   161A      0.572488   162A      0.577404  
     163A      0.588167   164A      0.588500   165A      0.594493  
     166A      0.599368   167A      0.605863   168A      0.608466  
     169A      0.611946   170A      0.616943   171A      0.621873  
     172A      0.626142   173A      0.632415   174A      0.635172  
     175A      0.641009   176A      0.646527   177A      0.650647  
     178A      0.655351   179A      0.658255   180A      0.665377  
     181A      0.671382   182A      0.674233   183A      0.676100  
     184A      0.688638   185A      0.693783   186A      0.696518  
     187A      0.700999   188A      0.704152   189A      0.710082  
     190A      0.716039   191A      0.719490   192A      0.729687  
     193A      0.741852   194A      0.744657   195A      0.754480  
     196A      0.760990   197A      0.767301   198A      0.770490  
     199A      0.783115   200A      0.787837   201A      0.797763  
     202A      0.802688   203A      0.813867   204A      0.814583  
     205A      0.829326   206A      0.841721   207A      0.843786  
     208A      0.846959   209A      0.850892   210A      0.858663  
     211A      0.865389   212A      0.875800   213A      0.877987  
     214A      0.882509   215A      0.885470   216A      0.892642  
     217A      0.895814   218A      0.899280   219A      0.904372  
     220A      0.913912   221A      0.915674   222A      0.919050  
     223A      0.925651   224A      0.928360   225A      0.933416  
     226A      0.938025   227A      0.943752   228A      0.950124  
     229A      0.953588   230A      0.957403   231A      0.963971  
     232A      0.966156   233A      0.972861   234A      0.975451  
     235A      0.984218   236A      0.985838   237A      0.997006  
     238A      1.002883   239A      1.003585   240A      1.008048  
     241A      1.012881   242A      1.019921   243A      1.023585  
     244A      1.025219   245A      1.034143   246A      1.038410  
     247A      1.041995   248A      1.046379   249A      1.056613  
     250A      1.060033   251A      1.074055   252A      1.076733  
     253A      1.078706   254A      1.080273   255A      1.091848  
     256A      1.097383   257A      1.100624   258A      1.111703  
     259A      1.113820   260A      1.117832   261A      1.123142  
     262A      1.128575   263A      1.131586   264A      1.135885  
     265A      1.141824   266A      1.144137   267A      1.149374  
     268A      1.159337   269A      1.160018   270A      1.165931  
     271A      1.176632   272A      1.178636   273A      1.184014  
     274A      1.186944   275A      1.195200   276A      1.198355  
     277A      1.204410   278A      1.211406   279A      1.214548  
     280A      1.217817   281A      1.223282   282A      1.230957  
     283A      1.232734   284A      1.241979   285A      1.247411  
     286A      1.253645   287A      1.258276   288A      1.261373  
     289A      1.268372   290A      1.270717   291A      1.278968  
     292A      1.283566   293A      1.286940   294A      1.293839  
[...]
	 D(19,18,21,22)   =        -3.063097	    -175.502518
	 D(19,18,21,23)   =        -1.043918	     -59.812085
	 D(19,18,21,24)   =         1.088265	      62.352997
	 D(20,18,21,22)   =        -1.056227	     -60.517341
	 D(20,18,21,23)   =         0.962952	      55.173092
	 D(20,18,21,24)   =         3.095135	     177.338174
	 D(22,21,24,25)   =        -3.097364	    -177.465864
	 D(22,21,24,26)   =        -1.060086	     -60.738434
	 D(23,21,24,25)   =         1.170454	      67.062047
	 D(23,21,24,26)   =        -3.075454	    -176.210523
	 R(9,24)          =         6.480490	       3.429327

	Current energy   :      -314.9807404469

	Energy change for the previous step:
		Projected    :        -0.0000000000
		Actual       :         0.0000000001

	Performing BFGS update.
	Previous computed or guess Hessian on step 1.
	Denominators (dg)(dq) or (dq)(dq) are very small.
	 Skipping Hessian update for step 12.
	Denominators (dg)(dq) or (dq)(dq) are very small.
	 Skipping Hessian update for step 11.
	Denominators (dg)(dq) or (dq)(dq) are very small.
	 Skipping Hessian update for step 10.
	Denominators (dg)(dq) or (dq)(dq) are very small.
	 Skipping Hessian update for step 9.
	Denominators (dg)(dq) or (dq)(dq) are very small.
	 Skipping Hessian update for step 8.
	Denominators (dg)(dq) or (dq)(dq) are very small.
	 Skipping Hessian update for step 7.
	Denominators (dg)(dq) or (dq)(dq) are very small.
	 Skipping Hessian update for step 6.
	Denominators (dg)(dq) or (dq)(dq) are very small.
	 Skipping Hessian update for step 5.
	Denominators (dg)(dq) or (dq)(dq) are very small.
	 Skipping Hessian update for step 4.
	Denominators (dg)(dq) or (dq)(dq) are very small.
	 Skipping Hessian update for step 3.
	Denominators (dg)(dq) or (dq)(dq) are very small.
	 Skipping Hessian update for step 2.
	Steps to be used in Hessian update: 1
	Taking RFO optimization step.
	Going to follow RFO solution 1.
	Rejecting RFO root 1 because normalization gives large value.
	Using RFO vector 2.
	Norm of target step-size    0.00002
	Projected energy change by RFO approximation:         0.0000000000

	Back-transformation to cartesian coordinates...
	Successfully converged to displaced geometry.

	--- Internal Coordinate Step in ANG or DEG, aJ/ANG or AJ/DEG ---
	 ---------------------------------------------------------------------------
	   Coordinate                Previous        Force       Change         New 
	   ----------                --------       ------       ------       ------
	    1 R(1,2)          =      1.090998     0.000001     0.000000     1.090998
	    2 R(1,3)          =      1.090094     0.000001     0.000000     1.090094
	    3 R(1,4)          =      1.089802     0.000001     0.000000     1.089802
	    4 R(1,9)          =      1.525046     0.000000     0.000000     1.525046
	    5 R(5,6)          =      1.089731     0.000004     0.000000     1.089731
	    6 R(5,7)          =      1.090726     0.000004     0.000000     1.090727
	    7 R(5,8)          =      1.090742     0.000005     0.000000     1.090742
	    8 R(5,12)         =      1.523659     0.000001     0.000000     1.523659
	    9 R(9,10)         =      1.092495     0.000001     0.000000     1.092495
	   10 R(9,11)         =      1.091497     0.000001     0.000000     1.091497
	   11 R(9,15)         =      1.530338     0.000002     0.000000     1.530338
	   12 R(12,13)        =      1.093234     0.000007     0.000000     1.093234
	   13 R(12,14)        =      1.093363     0.000006     0.000000     1.093363
	   14 R(12,24)        =      1.523793     0.000001    -0.000000     1.523793
	   15 R(15,16)        =      1.093405    -0.000000     0.000000     1.093405
	   16 R(15,17)        =      1.094076     0.000001     0.000000     1.094076
	   17 R(15,18)        =      1.536362    -0.000000    -0.000000     1.536362
	   18 R(18,19)        =      1.093890     0.000000    -0.000000     1.093889
	   19 R(18,20)        =      1.091937     0.000000    -0.000000     1.091936
	   20 R(18,21)        =      1.528377     0.000002    -0.000000     1.528377
	   21 R(21,22)        =      1.094981     0.000003    -0.000000     1.094981
	   22 R(21,23)        =      1.094211     0.000004     0.000000     1.094211
	   23 R(21,24)        =      1.523804    -0.000001    -0.000000     1.523803
	   24 R(24,25)        =      1.095432     0.000007     0.000000     1.095432
	   25 R(24,26)        =      1.093730     0.000006    -0.000000     1.093730
	   26 B(1,9,10)       =    108.982652    -0.000000    -0.000016   108.982635
	   27 B(1,9,11)       =    109.620327    -0.000000    -0.000009   109.620318
	   28 B(1,9,15)       =    112.408406     0.000000     0.000034   112.408441
	   29 B(2,1,3)        =    107.668028    -0.000000     0.000003   107.668031
	   30 B(2,1,4)        =    107.950644    -0.000000    -0.000009   107.950635
	   31 B(2,1,9)        =    110.515612     0.000000     0.000008   110.515620
	   32 B(3,1,4)        =    107.635096    -0.000000     0.000007   107.635102
	   33 B(3,1,9)        =    111.539766     0.000000    -0.000005   111.539760
	   34 B(4,1,9)        =    111.366517    -0.000000    -0.000003   111.366514
	   35 B(5,12,13)      =    109.798188    -0.000000    -0.000015   109.798174
	   36 B(5,12,14)      =    109.765606    -0.000000     0.000002   109.765608
	   37 B(5,12,24)      =    112.433917     0.000000     0.000048   112.433965
	   38 B(6,5,7)        =    107.915710    -0.000000    -0.000004   107.915706
	   39 B(6,5,8)        =    107.907693    -0.000000    -0.000007   107.907686
	   40 B(6,5,12)       =    111.703461    -0.000000    -0.000008   111.703453
	   41 B(7,5,8)        =    107.696862    -0.000000    -0.000004   107.696859
	   42 B(7,5,12)       =    110.731922     0.000000     0.000004   110.731926
	   43 B(8,5,12)       =    110.731248     0.000000     0.000018   110.731266
	   44 B(9,15,16)      =    107.838651     0.000000     0.000029   107.838681
	   45 B(9,15,17)      =    109.778862    -0.000000    -0.000010   109.778852
	   46 B(9,15,18)      =    114.238909     0.000000     0.000028   114.238937
	   47 B(10,9,11)      =    106.607655     0.000000    -0.000005   106.607650
	   48 B(10,9,15)      =    109.226398    -0.000000    -0.000012   109.226385
	   49 B(11,9,15)      =    109.821787    -0.000000     0.000006   109.821793
	   50 B(12,24,21)     =    112.595737     0.000000    -0.000028   112.595709
	   51 B(12,24,25)     =    109.258332     0.000000     0.000041   109.258373
	   52 B(12,24,26)     =    108.827369    -0.000000     0.000012   108.827380
	   53 B(13,12,14)     =    106.448597    -0.000000    -0.000020   106.448577
	   54 B(13,12,24)     =    109.149448    -0.000000    -0.000013   109.149436
	   55 B(14,12,24)     =    109.062139    -0.000000    -0.000006   109.062133
	   56 B(15,18,19)     =    109.744796    -0.000000     0.000039   109.744835
	   57 B(15,18,20)     =    109.751290    -0.000000    -0.000023   109.751267
	   58 B(15,18,21)     =    113.679245    -0.000000    -0.000067   113.679178
	   59 B(16,15,17)     =    106.114820    -0.000000    -0.000006   106.114814
	   60 B(16,15,18)     =    109.827340    -0.000000    -0.000005   109.827336
	   61 B(17,15,18)     =    108.732018    -0.000000    -0.000039   108.731979
	   62 B(18,21,22)     =    108.826748     0.000000     0.000004   108.826752
	   63 B(18,21,23)     =    109.083699     0.000000     0.000017   109.083716
	   64 B(18,21,24)     =    114.706719    -0.000000    -0.000039   114.706681
	   65 B(19,18,20)     =    106.081067    -0.000000     0.000005   106.081072
	   66 B(19,18,21)     =    109.083086     0.000000     0.000024   109.083111
	   67 B(20,18,21)     =    108.211916     0.000000     0.000025   108.211941
	   68 B(21,24,25)     =    109.457334    -0.000000    -0.000032   109.457302
	   69 B(21,24,26)     =    109.969431    -0.000000     0.000014   109.969444
	   70 B(22,21,23)     =    106.394913    -0.000000     0.000002   106.394916
	   71 B(22,21,24)     =    108.820725     0.000000    -0.000004   108.820721
	   72 B(23,21,24)     =    108.686660     0.000000     0.000021   108.686682
	   73 B(25,24,26)     =    106.547090    -0.000000    -0.000004   106.547086
	   74 D(1,9,15,16)    =    -49.811054    -0.000000     0.000007   -49.811047
	   75 D(1,9,15,17)    =   -164.998812    -0.000000     0.000003  -164.998808
	   76 D(1,9,15,18)    =     72.577390     0.000000     0.000042    72.577432
	   77 D(2,1,9,10)     =    -60.536927    -0.000000     0.000233   -60.536694
	   78 D(2,1,9,11)     =   -176.865067     0.000000     0.000253  -176.864813
	   79 D(2,1,9,15)     =     60.696395     0.000000     0.000228    60.696624
	   80 D(3,1,9,10)     =    179.721842    -0.000000     0.000228   179.722070
	   81 D(3,1,9,11)     =     63.393703     0.000000     0.000248    63.393951
	   82 D(3,1,9,15)     =    -59.044835    -0.000000     0.000223   -59.044612
	   83 D(4,1,9,10)     =     59.446401    -0.000000     0.000225    59.446626
	   84 D(4,1,9,11)     =    -56.881739     0.000000     0.000245   -56.881493
	   85 D(4,1,9,15)     =   -179.320277    -0.000000     0.000220  -179.320056
	   86 D(5,12,24,21)   =   -179.532671     0.000000    -0.000260  -179.532931
	   87 D(5,12,24,25)   =     58.624638    -0.000000    -0.000229    58.624409
	   88 D(5,12,24,26)   =    -57.343027     0.000000    -0.000253   -57.343281
	   89 D(6,5,12,13)    =    -58.214553     0.000000     0.000095   -58.214458
	   90 D(6,5,12,14)    =     58.474146    -0.000000     0.000063    58.474209
	   91 D(6,5,12,24)    =   -179.937434    -0.000000     0.000089  -179.937345
	   92 D(7,5,12,13)    =   -178.523583     0.000000     0.000103  -178.523480
	   93 D(7,5,12,14)    =    -61.834884    -0.000000     0.000070   -61.834813
	   94 D(7,5,12,24)    =     59.753537     0.000000     0.000097    59.753634
	   95 D(8,5,12,13)    =     62.083848     0.000000     0.000093    62.083942
	   96 D(8,5,12,14)    =    178.772548    -0.000000     0.000061   178.772608
	   97 D(8,5,12,24)    =    -59.639032    -0.000000     0.000087   -59.638945
	   98 D(9,15,18,19)   =    -25.185673    -0.000000     0.000037   -25.185636
	   99 D(9,15,18,20)   =   -141.390159    -0.000000     0.000022  -141.390137
	  100 D(9,15,18,21)   =     97.273672    -0.000000     0.000051    97.273724
	  101 D(10,9,15,16)   =     71.282664     0.000000     0.000000    71.282664
	  102 D(10,9,15,17)   =    -43.905094     0.000000    -0.000004   -43.905098
	  103 D(10,9,15,18)   =   -166.328892     0.000000     0.000035  -166.328857
	  104 D(11,9,15,16)   =   -172.135715    -0.000000    -0.000009  -172.135725
	  105 D(11,9,15,17)   =     72.676527    -0.000000    -0.000013    72.676513
	  106 D(11,9,15,18)   =    -49.747271    -0.000000     0.000025   -49.747246
	  107 D(12,24,21,18)  =   -177.047982    -0.000000    -0.000182  -177.048164
	  108 D(12,24,21,22)  =     60.804266    -0.000000    -0.000158    60.804108
	  109 D(12,24,21,23)  =    -54.667823    -0.000000    -0.000170   -54.667992
	  110 D(13,12,24,21)  =     58.376006    -0.000000    -0.000264    58.375742
	  111 D(13,12,24,25)  =    -63.466686    -0.000000    -0.000233   -63.466919
	  112 D(13,12,24,26)  =   -179.434351     0.000000    -0.000258  -179.434608
	  113 D(14,12,24,21)  =    -57.544210     0.000000    -0.000230   -57.544440
	  114 D(14,12,24,25)  =   -179.386902    -0.000000    -0.000199  -179.387101
	  115 D(14,12,24,26)  =     64.645433     0.000000    -0.000223    64.645210
	  116 D(15,18,21,22)  =     61.674060    -0.000000    -0.000223    61.673837
	  117 D(15,18,21,23)  =    177.364493    -0.000000    -0.000208   177.364285
	  118 D(15,18,21,24)  =    -60.470425    -0.000000    -0.000194   -60.470619
	  119 D(16,15,18,19)  =     96.110538    -0.000000     0.000091    96.110630
	  120 D(16,15,18,20)  =    -20.093948     0.000000     0.000076   -20.093872
	  121 D(16,15,18,21)  =   -141.430116     0.000000     0.000105  -141.430011
	  122 D(17,15,18,19)  =   -148.178911    -0.000000     0.000060  -148.178850
	  123 D(17,15,18,20)  =     95.616603    -0.000000     0.000044    95.616648
	  124 D(17,15,18,21)  =    -25.719565    -0.000000     0.000074   -25.719491
	  125 D(18,21,24,25)  =    -55.318112     0.000000    -0.000172   -55.318284
	  126 D(18,21,24,26)  =     61.409318    -0.000000    -0.000187    61.409130
	  127 D(19,18,21,22)  =   -175.502518    -0.000000    -0.000200  -175.502718
	  128 D(19,18,21,23)  =    -59.812085    -0.000000    -0.000186   -59.812271
	  129 D(19,18,21,24)  =     62.352997    -0.000000    -0.000172    62.352826
	  130 D(20,18,21,22)  =    -60.517341     0.000000    -0.000168   -60.517509
	  131 D(20,18,21,23)  =     55.173092     0.000000    -0.000153    55.172939
	  132 D(20,18,21,24)  =    177.338174     0.000000    -0.000139   177.338035
	  133 D(22,21,24,25)  =   -177.465864     0.000000    -0.000147  -177.466012
	  134 D(22,21,24,26)  =    -60.738434    -0.000000    -0.000163   -60.738597
	  135 D(23,21,24,25)  =     67.062047     0.000000    -0.000160    67.061888
	  136 D(23,21,24,26)  =   -176.210523    -0.000000    -0.000175  -176.210698
	  137 R(9,24)         =      3.429327    -0.000003    -0.000000     3.429327
	 ---------------------------------------------------------------------------

  ==> Convergence Check <==

  Measures of convergence in internal coordinates in au.
  Criteria marked as inactive (o), active & met (*), and active & unmet ( ).
  ---------------------------------------------------------------------------------------------
   Step     Total Energy     Delta E     MAX Force     RMS Force      MAX Disp      RMS Disp   
  ---------------------------------------------------------------------------------------------
    Convergence Criteria             o    2.00e-06 *    1.00e-06 *    6.00e-06 *    4.00e-06 *
  ---------------------------------------------------------------------------------------------
     13    -314.98074045    8.53e-11 o    8.43e-07 *    1.87e-07 *    4.62e-06 *    1.95e-06 *  ~
  ---------------------------------------------------------------------------------------------


  **** Optimization is complete! (in 13 steps) ****

  ==> Optimization Summary <==

  Measures of convergence in internal coordinates in au.
  --------------------------------------------------------------------------------------------------------------- ~
   Step         Total Energy             Delta E       MAX Force       RMS Force        MAX Disp        RMS Disp  ~
  --------------------------------------------------------------------------------------------------------------- ~
      1    -314.980740447521   -314.980740447521      0.00000078      0.00000015      0.00003278      0.00001293  ~
      2    -314.980740448969     -0.000000001448      0.00000056      0.00000017      0.00003797      0.00001152  ~
      3    -314.980740444481      0.000000004488      0.00000168      0.00000035      0.00002452      0.00000643  ~
      4    -314.980740450002     -0.000000005521      0.00000077      0.00000017      0.00002412      0.00000748  ~
      5    -314.980740447498      0.000000002504      0.00000195      0.00000045      0.00100951      0.00026982  ~
      6    -314.980740420428      0.000000027070      0.00004609      0.00000864      0.00099934      0.00027090  ~
      7    -314.980740446548     -0.000000026120      0.00000141      0.00000038      0.00001644      0.00000594  ~
      8    -314.980740446268      0.000000000280      0.00000131      0.00000033      0.00001876      0.00000503  ~
      9    -314.980740447587     -0.000000001318      0.00000102      0.00000029      0.00005347      0.00002204  ~
     10    -314.980740448404     -0.000000000817      0.00000141      0.00000040      0.00004751      0.00001699  ~
     11    -314.980740444164      0.000000004240      0.00000100      0.00000024      0.00001036      0.00000399  ~
     12    -314.980740447034     -0.000000002870      0.00000068      0.00000017      0.00000922      0.00000312  ~
     13    -314.980740446948      0.000000000085      0.00000084      0.00000019      0.00000462      0.00000195  ~
  --------------------------------------------------------------------------------------------------------------- ~

	Writing optimization data to binary file.
	Final energy is   -314.9807404469483
	Final (previous) structure:
	Cartesian Geometry (in Angstrom)
	    C     3.1571941912  -1.0751149661  -0.5528258310
	    H     4.0775777482  -0.6357453831  -0.1653660538
	    H     2.9210817768  -0.5740700787  -1.4917137778
	    H     3.3541858484  -2.1229939671  -0.7782429933
	    C    -3.4299595610  -1.2033818385   0.0259685489
	    H    -4.5118673595  -1.0952593389   0.0987611323
	    H    -3.0915406452  -1.7792446702   0.8882554560
	    H    -3.2106808513  -1.7868316307  -0.8691413902
	    C     2.0268025744  -0.9276871399   0.4602114673
	    H     2.3041058944  -1.4474557256   1.3802600499
	    H     1.1291820291  -1.4202618006   0.0820413565
	    C    -2.7308251613   0.1493608199  -0.0272738087
	    H    -3.1000040326   0.7236276279  -0.8811381510
	    H    -2.9785616369   0.7290213595   0.8660700400
	    C     1.7188853965   0.5364582658   0.7817684790
	    H     2.6634041816   1.0326646312   1.0209273979
	    H     1.1069302257   0.5959732621   1.6867385216
	    C     1.0039769963   1.2934741057  -0.3479404425
	    H     1.2301940144   0.8227466471  -1.3091043228
	    H     1.3909016526   2.3125641677  -0.4117414305
	    C    -0.5124892498   1.3683900255  -0.1728548676
	    H    -0.7350694276   1.9115936008   0.7514671835
	    H    -0.9380415903   1.9601446522  -0.9889616364
	    C    -1.2162821125   0.0175070172  -0.1308014448
	    H    -0.9640154075  -0.5535440318  -1.0309306557
	    H    -0.8538071563  -0.5661899726   0.7201717233
	Saving final (previous) structure.
			--------------------------
			 OPTKING Finished Execution 
			--------------------------

    Final optimized geometry and variables:
    Molecular point group: c1
    Full point group: C1

    Geometry (in Angstrom), charge = 0, multiplicity = 1:

    C            3.157194191241    -1.075114966061    -0.552825831029
    H            4.077577748152    -0.635745383054    -0.165366053799
    H            2.921081776799    -0.574070078723    -1.491713777776
    H            3.354185848390    -2.122993967053    -0.778242993277
    C           -3.429959560995    -1.203381838524     0.025968548882
    H           -4.511867359497    -1.095259338856     0.098761132277
    H           -3.091540645176    -1.779244670217     0.888255455963
    H           -3.210680851325    -1.786831630685    -0.869141390196
    C            2.026802574426    -0.927687139945     0.460211467305
    H            2.304105894445    -1.447455725637     1.380260049932
    H            1.129182029145    -1.420261800572     0.082041356537
    C           -2.730825161336     0.149360819884    -0.027273808730
    H           -3.100004032617     0.723627627853    -0.881138150969
    H           -2.978561636873     0.729021359496     0.866070040011
    C            1.718885396487     0.536458265830     0.781768479035
    H            2.663404181570     1.032664631181     1.020927397860
    H            1.106930225665     0.595973262117     1.686738521610
    C            1.003976996341     1.293474105718    -0.347940442502
    H            1.230194014435     0.822746647143    -1.309104322793
    H            1.390901652563     2.312564167743    -0.411741430487
    C           -0.512489249848     1.368390025550    -0.172854867593
    H           -0.735069427592     1.911593600804     0.751467183462
    H           -0.938041590331     1.960144652160    -0.988961636376
    C           -1.216282112468     0.017507017220    -0.130801444837
    H           -0.964015407453    -0.553544031830    -1.030930655749
    H           -0.853807156296    -0.566189972635     0.720171723303

	Cleaning optimization helper files.

*** Psi4 exiting successfully. Buy a developer a beer!
