    -----------------------------------------------------------------------
          Psi4: An Open-Source Ab Initio Electronic Structure Package
                              Psi4 1.0.0 Driver

                          Git: Rev {master} 6a9a71b dirty

    J. M. Turney, A. C. Simmonett, R. M. Parrish, E. G. Hohenstein,
    F. A. Evangelista, J. T. Fermann, B. J. Mintz, L. A. Burns, J. J. Wilke,
    M. L. Abrams, N. J. Russ, M. L. Leininger, C. L. Janssen, E. T. Seidl,
    W. D. Allen, H. F. Schaefer, R. A. King, E. F. Valeev, C. D. Sherrill,
    and T. D. Crawford, WIREs Comput. Mol. Sci. 2, 556-565 (2012)
    (doi: 10.1002/wcms.93)

                         Additional Contributions by
    A. E. DePrince, U. Bozkaya, A. Yu. Sokolov, D. G. A. Smith, R. Di Remigio,
    R. M. Richard, J. F. Gonthier, H. R. McAlexander, M. Saitow, and
    B. P. Pritchard
    -----------------------------------------------------------------------


    Psi4 started on: Wed Sep 21 04:57:33 2016

    Process ID:   5005
    PSI4DATADIR: /usr/local/hpc5/psi4conda/share/psi4
    Memory level set to 256.000 MB

  ==> Input File <==

--------------------------------------------------------------------------
memory 60 Gb

molecule molecule_87_psi {
0 1
C           -2.871805666773    -0.284463360927     1.084648327330
H           -2.272286609690    -0.010980168481     1.954429503659
H           -2.572515729951    -1.285794810096     0.775000849362
H           -3.914279102527    -0.333249812790     1.399065462655
C            3.533216114752     0.734311431425     0.258334412587
H            3.788539988189     1.770433079879     0.479124939946
H            3.958752939094     0.483838933188    -0.714341266912
H            4.016883264250     0.102340732089     1.004240333822
C           -2.688549185173     0.726383348289    -0.041916846600
H           -3.062511313915     1.699860819006     0.284136005426
H           -3.302397213546     0.429046279816    -0.896845365999
C            2.025212826850     0.513361592644     0.258496709891
H            1.611686340835     0.786742326456     1.233512684183
H            1.560246700316     1.177012123959    -0.473987917273
C           -1.241985717024     0.880161711673    -0.510403036441
H           -0.633953717295     1.250758774421     0.318500829513
H           -1.212562690807     1.651339373047    -1.283806612734
C           -0.636781055458    -0.423557565497    -1.055133466642
H            0.017475484823    -0.202647839673    -1.903260940589
H           -1.450089653151    -1.033516997788    -1.458572672993
C            0.167472226412    -1.240561996941    -0.031853039050
H           -0.222257447084    -1.060056235539     0.972857355415
H            0.034158601728    -2.307325363154    -0.227216612680
C            1.664326579746    -0.934356410908    -0.053361273161
H            2.174774706745    -1.584587874156     0.663746641040
H            2.062506465132    -1.191234333971    -1.040820796551
}

set globals {
  reference rhf
  g_convergence gau_verytight
  basis aug-cc-pvtz
  freeze_core true
  scf_type df
  mp_type df
}
optimize('mp2')
--------------------------------------------------------------------------
/usr/local/hpc5/psi4conda/lib/python2.7/site-packages/v2rdm_casscf/v2rdm_casscf.so loaded.

  Memory set to  60.000 GiB by Python script.
gradient() will perform analytic gradient computation.

*** tstart() called on wr33
*** at Wed Sep 21 04:57:34 2016


         ---------------------------------------------------------
                                   SCF
            by Justin Turney, Rob Parrish, and Andy Simmonett
                              RHF Reference
                       12 Threads,  60000 MiB Core
         ---------------------------------------------------------

  ==> Geometry <==

    Molecular point group: c1
    Full point group: C1

    Geometry (in Angstrom), charge = 0, multiplicity = 1:

       Center              X                  Y                   Z               Mass       
    ------------   -----------------  -----------------  -----------------  -----------------
           C         -2.871805666773    -0.284463360927     1.084648327330    12.000000000000
           H         -2.272286609690    -0.010980168481     1.954429503659     1.007825032070
           H         -2.572515729951    -1.285794810096     0.775000849362     1.007825032070
           H         -3.914279102527    -0.333249812790     1.399065462655     1.007825032070
           C          3.533216114752     0.734311431425     0.258334412587    12.000000000000
           H          3.788539988189     1.770433079879     0.479124939946     1.007825032070
           H          3.958752939094     0.483838933188    -0.714341266912     1.007825032070
           H          4.016883264250     0.102340732089     1.004240333822     1.007825032070
           C         -2.688549185173     0.726383348289    -0.041916846600    12.000000000000
           H         -3.062511313915     1.699860819006     0.284136005426     1.007825032070
           H         -3.302397213546     0.429046279816    -0.896845365999     1.007825032070
           C          2.025212826850     0.513361592644     0.258496709891    12.000000000000
           H          1.611686340835     0.786742326456     1.233512684183     1.007825032070
           H          1.560246700316     1.177012123959    -0.473987917273     1.007825032070
           C         -1.241985717024     0.880161711673    -0.510403036441    12.000000000000
           H         -0.633953717295     1.250758774421     0.318500829513     1.007825032070
           H         -1.212562690807     1.651339373047    -1.283806612734     1.007825032070
           C         -0.636781055458    -0.423557565497    -1.055133466642    12.000000000000
           H          0.017475484823    -0.202647839673    -1.903260940589     1.007825032070
           H         -1.450089653151    -1.033516997788    -1.458572672993     1.007825032070
           C          0.167472226412    -1.240561996941    -0.031853039050    12.000000000000
           H         -0.222257447084    -1.060056235539     0.972857355415     1.007825032070
           H          0.034158601728    -2.307325363154    -0.227216612680     1.007825032070
           C          1.664326579746    -0.934356410908    -0.053361273161    12.000000000000
           H          2.174774706745    -1.584587874156     0.663746641040     1.007825032070
           H          2.062506465132    -1.191234333971    -1.040820796551     1.007825032070

  Running in c1 symmetry.

  Rotational constants: A =      0.12338  B =      0.02776  C =      0.02643 [cm^-1]
  Rotational constants: A =   3698.86953  B =    832.08791  C =    792.39665 [MHz]
  Nuclear repulsion =  399.707421575039234

  Charge       = 0
  Multiplicity = 1
  Electrons    = 66
  Nalpha       = 33
  Nbeta        = 33

  ==> Algorithm <==

  SCF Algorithm Type is DF.
  DIIS enabled.
  MOM disabled.
  Fractional occupation disabled.
  Guess Type is SAD.
  Energy threshold   = 1.00e-10
  Density threshold  = 1.00e-10
  Integral threshold = 0.00e+00

  ==> Primary Basis <==

  Basis Set: AUG-CC-PVTZ
    Number of shells: 274
    Number of basis function: 782
    Number of Cartesian functions: 890
    Spherical Harmonics?: true
    Max angular momentum: 3

  ==> Pre-Iterations <==

   -------------------------------------------------------
    Irrep   Nso     Nmo     Nalpha   Nbeta   Ndocc  Nsocc
   -------------------------------------------------------
     A        782     782       0       0       0       0
   -------------------------------------------------------
    Total     782     782      33      33      33       0
   -------------------------------------------------------

  ==> Integral Setup <==

  ==> DFJK: Density-Fitted J/K Matrices <==

    J tasked:                  Yes
    K tasked:                  Yes
    wK tasked:                  No
    OpenMP threads:             12
    Integrals threads:          12
    Memory (MB):             42915
    Algorithm:                Core
    Integral Cache:           NONE
    Schwarz Cutoff:          1E-12
    Fitting Condition:       1E-12

   => Auxiliary Basis Set <=

  Basis Set: 
    Number of shells: 492
    Number of basis function: 1660
    Number of Cartesian functions: 2038
    Spherical Harmonics?: true
    Max angular momentum: 4

  Minimum eigenvalue in the overlap matrix is 1.5427213691E-06.
  Using Symmetric Orthogonalization.
  SCF Guess: Superposition of Atomic Densities via on-the-fly atomic UHF.

  ==> Iterations <==

                           Total Energy        Delta E     RMS |[F,P]|

   @DF-RHF iter   0:  -316.91548002594993   -3.16915e+02   6.97891e-03 
   @DF-RHF iter   1:  -313.28787675550552    3.62760e+00   7.22591e-04 
   @DF-RHF iter   2:  -313.50182213960875   -2.13945e-01   2.64971e-04 DIIS
   @DF-RHF iter   3:  -313.52946491788452   -2.76428e-02   1.01121e-04 DIIS
   @DF-RHF iter   4:  -313.53459412086306   -5.12920e-03   1.70854e-05 DIIS
   @DF-RHF iter   5:  -313.53477890941917   -1.84789e-04   5.40774e-06 DIIS
   @DF-RHF iter   6:  -313.53479468847559   -1.57791e-05   1.35593e-06 DIIS
   @DF-RHF iter   7:  -313.53479592388987   -1.23541e-06   2.72734e-07 DIIS
   @DF-RHF iter   8:  -313.53479598014542   -5.62555e-08   8.18768e-08 DIIS
   @DF-RHF iter   9:  -313.53479598415959   -4.01417e-09   2.47060e-08 DIIS
   @DF-RHF iter  10:  -313.53479598456886   -4.09273e-10   6.49254e-09 DIIS
   @DF-RHF iter  11:  -313.53479598459751   -2.86491e-11   1.55969e-09 DIIS
   @DF-RHF iter  12:  -313.53479598460035   -2.84217e-12   4.17370e-10 DIIS
   @DF-RHF iter  13:  -313.53479598459944    9.09495e-13   1.36174e-10 DIIS
   @DF-RHF iter  14:  -313.53479598459887    5.68434e-13   3.63720e-11 DIIS

  ==> Post-Iterations <==

    Orbital Energies (a.u.)
    -----------------------

    Doubly Occupied:                                                      

       1A    -11.212727     2A    -11.212067     3A    -11.210566  
       4A    -11.210335     5A    -11.209641     6A    -11.209442  
       7A    -11.206922     8A    -11.206693     9A     -1.093774  
      10A     -1.058858    11A     -1.005805    12A     -0.948579  
      13A     -0.886675    14A     -0.829563    15A     -0.778686  
      16A     -0.766171    17A     -0.647294    18A     -0.617477  
      19A     -0.614965    20A     -0.599158    21A     -0.577584  
      22A     -0.556631    23A     -0.547923    24A     -0.522506  
      25A     -0.514936    26A     -0.510288    27A     -0.486960  
      28A     -0.478727    29A     -0.463741    30A     -0.459491  
      31A     -0.446267    32A     -0.435328    33A     -0.432203  

    Virtual:                                                              

      34A      0.029622    35A      0.033025    36A      0.034507  
      37A      0.035499    38A      0.045397    39A      0.048348  
      40A      0.049577    41A      0.053717    42A      0.054186  
      43A      0.066933    44A      0.067775    45A      0.072964  
      46A      0.074082    47A      0.077018    48A      0.086270  
      49A      0.090025    50A      0.093404    51A      0.100810  
      52A      0.115023    53A      0.118124    54A      0.120841  
      55A      0.124168    56A      0.128920    57A      0.133065  
      58A      0.134979    59A      0.138267    60A      0.139061  
      61A      0.142269    62A      0.147584    63A      0.149477  
      64A      0.154576    65A      0.155676    66A      0.161518  
      67A      0.163964    68A      0.167805    69A      0.173293  
      70A      0.176014    71A      0.180295    72A      0.185317  
      73A      0.186956    74A      0.190846    75A      0.198793  
      76A      0.210878    77A      0.214381    78A      0.223252  
      79A      0.226138    80A      0.228980    81A      0.235411  
      82A      0.240512    83A      0.255944    84A      0.262306  
      85A      0.267800    86A      0.271279    87A      0.272773  
      88A      0.282120    89A      0.287220    90A      0.292134  
      91A      0.294387    92A      0.301936    93A      0.306175  
      94A      0.314668    95A      0.317053    96A      0.319676  
      97A      0.328971    98A      0.331792    99A      0.336811  
     100A      0.338627   101A      0.340983   102A      0.344628  
     103A      0.348922   104A      0.354140   105A      0.355595  
     106A      0.359455   107A      0.363258   108A      0.364875  
     109A      0.370815   110A      0.374702   111A      0.377240  
     112A      0.380787   113A      0.382296   114A      0.388238  
     115A      0.391958   116A      0.395785   117A      0.397380  
     118A      0.402669   119A      0.406548   120A      0.412473  
     121A      0.418909   122A      0.420523   123A      0.423233  
     124A      0.426110   125A      0.435293   126A      0.439115  
     127A      0.440851   128A      0.443802   129A      0.447105  
     130A      0.448790   131A      0.450874   132A      0.456292  
     133A      0.460599   134A      0.467838   135A      0.470742  
     136A      0.474828   137A      0.480736   138A      0.484226  
     139A      0.487096   140A      0.491574   141A      0.495202  
     142A      0.500926   143A      0.504266   144A      0.505807  
     145A      0.506581   146A      0.514166   147A      0.514840  
     148A      0.523530   149A      0.525001   150A      0.530347  
     151A      0.535280   152A      0.542374   153A      0.542862  
     154A      0.544358   155A      0.550661   156A      0.553679  
     157A      0.558133   158A      0.558624   159A      0.568159  
     160A      0.576483   161A      0.585572   162A      0.588950  
     163A      0.590819   164A      0.598236   165A      0.601574  
     166A      0.604872   167A      0.606575   168A      0.612736  
     169A      0.617061   170A      0.618006   171A      0.622685  
     172A      0.628776   173A      0.634253   174A      0.635686  
     175A      0.638334   176A      0.644653   177A      0.651154  
     178A      0.660648   179A      0.663692   180A      0.668126  
     181A      0.675111   182A      0.679801   183A      0.680902  
     184A      0.682489   185A      0.692626   186A      0.695168  
     187A      0.706117   188A      0.711403   189A      0.713441  
     190A      0.724572   191A      0.728779   192A      0.734032  
     193A      0.738064   194A      0.744806   195A      0.747936  
     196A      0.758319   197A      0.768688   198A      0.774011  
     199A      0.781744   200A      0.785576   201A      0.796446  
     202A      0.803288   203A      0.815286   204A      0.832507  
     205A      0.839468   206A      0.842457   207A      0.846601  
     208A      0.848099   209A      0.853127   210A      0.862284  
     211A      0.864951   212A      0.871984   213A      0.880034  
     214A      0.885462   215A      0.892089   216A      0.897041  
     217A      0.902046   218A      0.902947   219A      0.908476  
     220A      0.910866   221A      0.916107   222A      0.919871  
     223A      0.926132   224A      0.930521   225A      0.933677  
     226A      0.936086   227A      0.943770   228A      0.951339  
     229A      0.955438   230A      0.963243   231A      0.970550  
     232A      0.983294   233A      0.985158   234A      0.987749  
     235A      0.989212   236A      0.992837   237A      1.006000  
     238A      1.006683   239A      1.009185   240A      1.016802  
     241A      1.024691   242A      1.027179   243A      1.031757  
     244A      1.035099   245A      1.039092   246A      1.048765  
     247A      1.051163   248A      1.060536   249A      1.062947  
     250A      1.065943   251A      1.075741   252A      1.077693  
     253A      1.091462   254A      1.093869   255A      1.097651  
     256A      1.104244   257A      1.108144   258A      1.116316  
     259A      1.122460   260A      1.122861   261A      1.129373  
     262A      1.132940   263A      1.135467   264A      1.141372  
     265A      1.143727   266A      1.146361   267A      1.152483  
     268A      1.159554   269A      1.169448   270A      1.173112  
     271A      1.179259   272A      1.180042   273A      1.189320  
     274A      1.190535   275A      1.194098   276A      1.209943  
     277A      1.210774   278A      1.214831   279A      1.218397  
     280A      1.219298   281A      1.230387   282A      1.235024  
     283A      1.241486   284A      1.243960   285A      1.252007  
     286A      1.256657   287A      1.261486   288A      1.266454  
     289A      1.276132   290A      1.281408   291A      1.283409  
     292A      1.288551   293A      1.292282   294A      1.296392  
     295A      1.307454   296A      1.312366   297A      1.319563  
     298A      1.329623   299A      1.334866   300A      1.337628  
     301A      1.342444   302A      1.347536   303A      1.358337  
     304A      1.367198   305A      1.373199   306A      1.374887  
     307A      1.390219   308A      1.393952   309A      1.402145  
     310A      1.407044   311A      1.413495   312A      1.418121  
     313A      1.422552   314A      1.436214   315A      1.439464  
     316A      1.443563   317A      1.453944   318A      1.457223  
     319A      1.478304   320A      1.487627   321A      1.490466  
     322A      1.495371   323A      1.505370   324A      1.516937  
     325A      1.519348   326A      1.521740   327A      1.533149  
     328A      1.544066   329A      1.547885   330A      1.561096  
     331A      1.563224   332A      1.571965   333A      1.581651  
     334A      1.586166   335A      1.593482   336A      1.599901  
     337A      1.611412   338A      1.614533   339A      1.625561  
     340A      1.634616   341A      1.638996   342A      1.641741  
     343A      1.650243   344A      1.659310   345A      1.662680  
     346A      1.665445   347A      1.671181   348A      1.677657  
     349A      1.692237   350A      1.692758   351A      1.694909  
     352A      1.704091   353A      1.711079   354A      1.717066  
     355A      1.720288   356A      1.725709   357A      1.730501  
     358A      1.733979   359A      1.744903   360A      1.753107  
     361A      1.755270   362A      1.761518   363A      1.767582  
     364A      1.773133   365A      1.773763   366A      1.781836  
     367A      1.789812   368A      1.796380   369A      1.801848  
     370A      1.806316   371A      1.814874   372A      1.821271  
     373A      1.823949   374A      1.837260   375A      1.840579  
     376A      1.843478   377A      1.846371   378A      1.859463  
     379A      1.866976   380A      1.868713   381A      1.880573  
     382A      1.881642   383A      1.884444   384A      1.894431  
     385A      1.904110   386A      1.912579   387A      1.919184  
     388A      1.928008   389A      1.930763   390A      1.944453  
     391A      1.950577   392A      1.951653   393A      1.963392  
     394A      1.972658   395A      1.980138   396A      1.984389  
     397A      1.988872   398A      1.999812   399A      2.008182  
     400A      2.015775   401A      2.025204   402A      2.028710  
     403A      2.031610   404A      2.046545   405A      2.053340  
     406A      2.061353   407A      2.067174   408A      2.072326  
     409A      2.072473   410A      2.081020   411A      2.087236  
     412A      2.090317   413A      2.098926   414A      2.104502  
     415A      2.113348   416A      2.124467   417A      2.127243  
     418A      2.140194   419A      2.150194   420A      2.154314  
     421A      2.162268   422A      2.167482   423A      2.168705  
     424A      2.174622   425A      2.181503   426A      2.197757  
     427A      2.211488   428A      2.222374   429A      2.226777  
     430A      2.236765   431A      2.243075   432A      2.255760  
     433A      2.262273   434A      2.271133   435A      2.274921  
     436A      2.278675   437A      2.288020   438A      2.292941  
     439A      2.306063   440A      2.316488   441A      2.326150  
     442A      2.335168   443A      2.336597   444A      2.351033  
     445A      2.357829   446A      2.364437   447A      2.378963  
     448A      2.381788   449A      2.394047   450A      2.401031  
     451A      2.410139   452A      2.419137   453A      2.435144  
     454A      2.441567   455A      2.443821   456A      2.457018  
     457A      2.471854   458A      2.480960   459A      2.493059  
     460A      2.500507   461A      2.508979   462A      2.516966  
     463A      2.536826   464A      2.552701   465A      2.565495  
     466A      2.569898   467A      2.570091   468A      2.582214  
     469A      2.615994   470A      2.621679   471A      2.635426  
     472A      2.642853   473A      2.646918   474A      2.672759  
     475A      2.691037   476A      2.702058   477A      2.712145  
     478A      2.726711   479A      2.734001   480A      2.754189  
     481A      2.785558   482A      2.793440   483A      2.846591  
     484A      2.866519   485A      2.936115   486A      2.952561  
     487A      3.021625   488A      3.043442   489A      3.110400  
     490A      3.178801   491A      3.180051   492A      3.261053  
     493A      3.289539   494A      3.337818   495A      3.402792  
     496A      3.431273   497A      3.446445   498A      3.469405  
     499A      3.476515   500A      3.493361   501A      3.499920  
     502A      3.510428   503A      3.516178   504A      3.548093  
     505A      3.566145   506A      3.571456   507A      3.579154  
     508A      3.582019   509A      3.601355   510A      3.606805  
     511A      3.613650   512A      3.629567   513A      3.635755  
     514A      3.650594   515A      3.668114   516A      3.683220  
     517A      3.687461   518A      3.694348   519A      3.706175  
     520A      3.712880   521A      3.719651   522A      3.720342  
     523A      3.731332   524A      3.736576   525A      3.748599  
     526A      3.761800   527A      3.771122   528A      3.775333  
     529A      3.785602   530A      3.794046   531A      3.808004  
     532A      3.811013   533A      3.820140   534A      3.832204  
     535A      3.840115   536A      3.842440   537A      3.852680  
     538A      3.858436   539A      3.867983   540A      3.876953  
     541A      3.885018   542A      3.894753   543A      3.902530  
     544A      3.904615   545A      3.918309   546A      3.922279  
     547A      3.929756   548A      3.936224   549A      3.940492  
     550A      3.955074   551A      3.959843   552A      3.963410  
     553A      3.972855   554A      3.991125   555A      3.995939  
     556A      3.999138   557A      4.003882   558A      4.011779  
     559A      4.019504   560A      4.030275   561A      4.036427  
     562A      4.043572   563A      4.053727   564A      4.056249  
     565A      4.065513   566A      4.075704   567A      4.082219  
     568A      4.096908   569A      4.101218   570A      4.103603  
     571A      4.110938   572A      4.117382   573A      4.125567  
     574A      4.147240   575A      4.149153   576A      4.161409  
     577A      4.170980   578A      4.177285   579A      4.185101  
     580A      4.193652   581A      4.197076   582A      4.208938  
     583A      4.217735   584A      4.231942   585A      4.235053  
     586A      4.246171   587A      4.260073   588A      4.263267  
     589A      4.280075   590A      4.293776   591A      4.296065  
     592A      4.300829   593A      4.317192   594A      4.322121  
     595A      4.339587   596A      4.348044   597A      4.362039  
     598A      4.365231   599A      4.372451   600A      4.384807  
     601A      4.389909   602A      4.413762   603A      4.420885  
     604A      4.433578   605A      4.446352   606A      4.451709  
     607A      4.454866   608A      4.462509   609A      4.483481  
     610A      4.485990   611A      4.497016   612A      4.517786  
     613A      4.528634   614A      4.542638   615A      4.557586  
     616A      4.585211   617A      4.591554   618A      4.605876  
     619A      4.616706   620A      4.630653   621A      4.640118  
     622A      4.652237   623A      4.659705   624A      4.675845  
     625A      4.695631   626A      4.705042   627A      4.707492  
     628A      4.720623   629A      4.725023   630A      4.742740  
     631A      4.753775   632A      4.767468   633A      4.777729  
     634A      4.792133   635A      4.793874   636A      4.801363  
     637A      4.810391   638A      4.818592   639A      4.837683  
     640A      4.848494   641A      4.863557   642A      4.864713  
     643A      4.874081   644A      4.884461   645A      4.901538  
     646A      4.906048   647A      4.915900   648A      4.931549  
     649A      4.946158   650A      4.958956   651A      4.959748  
     652A      4.970104   653A      4.977233   654A      4.983846  
     655A      5.002002   656A      5.018302   657A      5.021929  
     658A      5.036156   659A      5.049795   660A      5.067460  
     661A      5.093075   662A      5.095677   663A      5.113124  
     664A      5.126128   665A      5.134586   666A      5.147212  
     667A      5.165802   668A      5.178464   669A      5.183641  
     670A      5.190893   671A      5.198943   672A      5.212574  
     673A      5.229067   674A      5.242235   675A      5.244520  
     676A      5.254831   677A      5.264870   678A      5.283335  
     679A      5.293232   680A      5.305151   681A      5.316560  
     682A      5.328679   683A      5.346728   684A      5.357451  
     685A      5.368188   686A      5.369922   687A      5.380964  
     688A      5.389347   689A      5.397198   690A      5.408731  
     691A      5.417045   692A      5.418069   693A      5.444297  
     694A      5.449985   695A      5.455709   696A      5.469001  
     697A      5.476460   698A      5.489823   699A      5.507844  
     700A      5.515324   701A      5.522975   702A      5.531741  
     703A      5.552896   704A      5.566156   705A      5.568037  
     706A      5.587935   707A      5.603601   708A      5.613575  
     709A      5.621002   710A      5.640548   711A      5.642286  
     712A      5.676937   713A      5.687133   714A      5.697116  
     715A      5.701718   716A      5.708765   717A      5.717767  
     718A      5.734185   719A      5.737659   720A      5.742044  
     721A      5.753200   722A      5.790155   723A      5.795171  
     724A      5.805068   725A      5.810562   726A      5.840879  
     727A      5.854793   728A      5.860060   729A      5.870695  
     730A      5.894035   731A      5.929215   732A      5.970424  
     733A      5.984621   734A      6.022965   735A      6.040653  
     736A      6.064064   737A      6.072132   738A      6.111466  
     739A      6.116444   740A      6.130852   741A      6.154518  
     742A      6.173498   743A      6.204331   744A      6.217692  
     745A      6.226620   746A      6.236054   747A      6.247086  
     748A      6.258241   749A      6.279831   750A      6.303676  
     751A      6.321297   752A      6.330600   753A      6.358443  
     754A      6.384663   755A      6.399583   756A      6.410285  
     757A      6.442126   758A      6.489523   759A      6.593920  
     760A      6.654634   761A      6.671865   762A      6.712440  
     763A      6.755281   764A      6.795840   765A      6.819296  
     766A      6.831295   767A      6.887236   768A      6.909644  
     769A      6.966196   770A      6.985042   771A      7.029950  
     772A      7.083563   773A      7.112320   774A      7.169746  
     775A     18.048740   776A     18.207795   777A     18.410383  
     778A     18.858835   779A     19.045931   780A     19.471999  
     781A     19.676267   782A     19.820713  

    Final Occupation by Irrep:
              A 
    DOCC [    33 ]

  Energy converged.

  @DF-RHF Final Energy:  -313.53479598459887

   => Energetics <=

    Nuclear Repulsion Energy =            399.7074215750392341
    One-Electron Energy =               -1214.5684686177753520
    Two-Electron Energy =                 501.3262510581367337
    DFT Exchange-Correlation Energy =       0.0000000000000000
    Empirical Dispersion Energy =           0.0000000000000000
    PCM Polarization Energy =               0.0000000000000000
    EFP Energy =                            0.0000000000000000
    Total Energy =                       -313.5347959845993842


  Saving occupied orbitals to File 180.

*** tstop() called on wr33 at Wed Sep 21 04:59:06 2016
Module time:
	user time   =     988.27 seconds =      16.47 minutes
	system time =      11.78 seconds =       0.20 minutes
	total time  =         92 seconds =       1.53 minutes
Total time:
	user time   =     988.27 seconds =      16.47 minutes
	system time =      11.78 seconds =       0.20 minutes
	total time  =         92 seconds =       1.53 minutes


Properties will be evaluated at   0.000000,   0.000000,   0.000000 Bohr

Properties computed using the SCF density matrix

  Nuclear Dipole Moment: (a.u.)
     X:     0.5458      Y:     0.3206      Z:     1.0179

  Electronic Dipole Moment: (a.u.)
     X:    -0.5735      Y:    -0.3039      Z:    -1.0314

  Dipole Moment: (a.u.)
     X:    -0.0277      Y:     0.0167      Z:    -0.0135     Total:     0.0350

  Dipole Moment: (Debye)
     X:    -0.0704      Y:     0.0424      Z:    -0.0343     Total:     0.0890


  //>>>>>>>>>>>>>>>>>>>>>>>>>>>>>>>>>>>//
  //               DFMP2               //
  //<<<<<<<<<<<<<<<<<<<<<<<<<<<<<<<<<<<//


*** tstart() called on wr33
*** at Wed Sep 21 04:59:06 2016


*** tstop() called on wr33 at Wed Sep 21 04:59:06 2016
Module time:
	user time   =       3.11 seconds =       0.05 minutes
	system time =       0.10 seconds =       0.00 minutes
	total time  =          0 seconds =       0.00 minutes
Total time:
	user time   =     991.49 seconds =      16.52 minutes
	system time =      11.88 seconds =       0.20 minutes
	total time  =         92 seconds =       1.53 minutes
	 --------------------------------------------------------
	                          DF-MP2                         
	      2nd-Order Density-Fitted Moller-Plesset Theory     
	              RMP2 Wavefunction,  12 Threads             
	                                                         
	        Rob Parrish, Justin Turney, Andy Simmonett,      
	           Ed Hohenstein, and C. David Sherrill          
	 --------------------------------------------------------

   => Auxiliary Basis Set <=

  Basis Set: 
    Number of shells: 476
    Number of basis function: 1676
    Number of Cartesian functions: 2078
    Spherical Harmonics?: true
    Max angular momentum: 4

	 --------------------------------------------------------
	                 NBF =   782, NAUX =  1676
	 --------------------------------------------------------
	   CLASS    FOCC     OCC    AOCC    AVIR     VIR    FVIR
	   PAIRS       8      33      25     749     749       0
	 --------------------------------------------------------

DGAS Warning! /src/lib/libfock/apps.cc:80 is not currently checking restricted

         ------------------------------------------------------------
                                     CPHF                           
                                  Rob Parrish                       
         ------------------------------------------------------------

  ==> Geometry <==

    Molecular point group: c1
    Full point group: C1

    Geometry (in Angstrom), charge = 0, multiplicity = 1:

       Center              X                  Y                   Z               Mass       
    ------------   -----------------  -----------------  -----------------  -----------------
           C         -2.871805666773    -0.284463360927     1.084648327330    12.000000000000
           H         -2.272286609690    -0.010980168481     1.954429503659     1.007825032070
           H         -2.572515729951    -1.285794810096     0.775000849362     1.007825032070
           H         -3.914279102527    -0.333249812790     1.399065462655     1.007825032070
           C          3.533216114752     0.734311431425     0.258334412587    12.000000000000
           H          3.788539988189     1.770433079879     0.479124939946     1.007825032070
           H          3.958752939094     0.483838933188    -0.714341266912     1.007825032070
           H          4.016883264250     0.102340732089     1.004240333822     1.007825032070
           C         -2.688549185173     0.726383348289    -0.041916846600    12.000000000000
           H         -3.062511313915     1.699860819006     0.284136005426     1.007825032070
           H         -3.302397213546     0.429046279816    -0.896845365999     1.007825032070
           C          2.025212826850     0.513361592644     0.258496709891    12.000000000000
           H          1.611686340835     0.786742326456     1.233512684183     1.007825032070
           H          1.560246700316     1.177012123959    -0.473987917273     1.007825032070
           C         -1.241985717024     0.880161711673    -0.510403036441    12.000000000000
           H         -0.633953717295     1.250758774421     0.318500829513     1.007825032070
           H         -1.212562690807     1.651339373047    -1.283806612734     1.007825032070
           C         -0.636781055458    -0.423557565497    -1.055133466642    12.000000000000
           H          0.017475484823    -0.202647839673    -1.903260940589     1.007825032070
           H         -1.450089653151    -1.033516997788    -1.458572672993     1.007825032070
           C          0.167472226412    -1.240561996941    -0.031853039050    12.000000000000
           H         -0.222257447084    -1.060056235539     0.972857355415     1.007825032070
           H          0.034158601728    -2.307325363154    -0.227216612680     1.007825032070
           C          1.664326579746    -0.934356410908    -0.053361273161    12.000000000000
           H          2.174774706745    -1.584587874156     0.663746641040     1.007825032070
           H          2.062506465132    -1.191234333971    -1.040820796551     1.007825032070

  Nuclear repulsion =  399.707421575039234
  Reference energy  = -313.534795984598873

  ==> Basis Set <==

  Basis Set: AUG-CC-PVTZ
    Number of shells: 274
    Number of basis function: 782
    Number of Cartesian functions: 890
    Spherical Harmonics?: true
    Max angular momentum: 3

  ==> CGRSolver (by Rob Parrish) <==

   Number of roots    =         1
   Preconditioning    =    JACOBI
   Convergence cutoff =     1E-06
   Maximum iterations =       100

  ==> CPHFRHamiltonian (by Rob Parrish) <== 

  ==> DFJK: Density-Fitted J/K Matrices <==

    J tasked:                  Yes
    K tasked:                  Yes
    wK tasked:                  No
    OpenMP threads:             12
    Integrals threads:          12
    Memory (MB):             42915
    Algorithm:                Core
    Integral Cache:           NONE
    Schwarz Cutoff:          1E-12
    Fitting Condition:       1E-12

   => Auxiliary Basis Set <=

  Basis Set: 
    Number of shells: 492
    Number of basis function: 1660
    Number of Cartesian functions: 2038
    Spherical Harmonics?: true
    Max angular momentum: 4

  ==> CPHF Iterations <==

  => Iterations <=

             Iter  Converged  Remaining    Residual
  CGR           1          0          1   9.229E-02
  CGR           2          0          1   1.340E-02
  CGR           3          0          1   3.949E-03
  CGR           4          0          1   8.834E-04
  CGR           5          0          1   2.145E-04
  CGR           6          0          1   5.011E-05
  CGR           7          0          1   1.515E-05
  CGR           8          0          1   3.752E-06
  CGR           9          1          0   9.384E-07

    CGRSolver converged.

  ==> DFCorrGrad: Density-Fitted Correlated Gradients <==

    OpenMP threads:             12
    Integrals threads:          12
    Memory (MB):             42915
    Schwarz Cutoff:          0E+00
    Fitting Condition:       1E-12

   => Auxiliary Basis Set <=

  Basis Set: 
    Number of shells: 492
    Number of basis function: 1660
    Number of Cartesian functions: 2038
    Spherical Harmonics?: true
    Max angular momentum: 4

	-----------------------------------------------------------
	 ==================> DF-MP2 Energies <==================== 
	-----------------------------------------------------------
	 Reference Energy          =    -313.5347959845988726 [Eh]
	 Singles Energy            =      -0.0000000000000001 [Eh]
	 Same-Spin Energy          =      -0.3169803364051840 [Eh]
	 Opposite-Spin Energy      =      -1.1267836517958303 [Eh]
	 Correlation Energy        =      -1.4437639882010143 [Eh]
	 Total Energy              =    -314.9785599727998715 [Eh]
	-----------------------------------------------------------
	 ================> DF-SCS-MP2 Energies <================== 
	-----------------------------------------------------------
	 SCS Same-Spin Scale       =       0.3333333333333333 [-]
	 SCS Opposite-Spin Scale   =       1.2000000000000000 [-]
	 SCS Same-Spin Energy      =      -0.1056601121350613 [Eh]
	 SCS Opposite-Spin Energy  =      -1.3521403821549962 [Eh]
	 SCS Correlation Energy    =      -1.4578004942900575 [Eh]
	 SCS Total Energy          =    -314.9925964788889132 [Eh]
	-----------------------------------------------------------


  -Total Gradient:
     Atom            X                  Y                   Z
    ------   -----------------  -----------------  -----------------
       1       -0.000000329597    -0.000000517785     0.000000827012
       2       -0.000000465758    -0.000000096473    -0.000000704396
       3       -0.000000117377     0.000000808567     0.000000021737
       4        0.000000712461    -0.000000025003    -0.000000156066
       5        0.000000923385    -0.000000303616    -0.000000129118
       6       -0.000000335363    -0.000000718925    -0.000000126480
       7       -0.000000462612     0.000000239388     0.000000748797
       8       -0.000000622370     0.000000512684    -0.000000558203
       9       -0.000000858337     0.000000411188    -0.000000592985
      10        0.000000286853    -0.000000619399    -0.000000307724
      11        0.000000532776     0.000000271078     0.000000600283
      12       -0.000001489186     0.000001436756     0.000000463480
      13        0.000000579325    -0.000000812799    -0.000001511483
      14        0.000000565049    -0.000001196586     0.000000808467
      15        0.000000309588     0.000001493757     0.000000453573
      16       -0.000000495882    -0.000000865430    -0.000000948885
      17        0.000000021365    -0.000000355165     0.000000846602
      18        0.000000436014    -0.000000753175    -0.000001972379
      19       -0.000001095452    -0.000000113860     0.000001256532
      20        0.000001285585     0.000000438554     0.000000590198
      21       -0.000000848792    -0.000000893076     0.000001994372
      22        0.000001186829    -0.000000198392    -0.000002217277
      23        0.000000089358     0.000001530112     0.000000788982
      24        0.000001701954    -0.000000947407    -0.000000789883
      25       -0.000000703937     0.000000755575    -0.000001119927
      26       -0.000000805878     0.000000519434     0.000001734768


			-----------------------------------------
			 OPTKING 2.0: for geometry optimizations 
			  - R.A. King,  Bethel University        
			-----------------------------------------

	Internal coordinates to be generated automatically.
	Detected frag 1 with atoms:  1 2 3 4 5 6 7 8 9 10 11 12 13 14 15 16 17 18 19 20
	 21 22 23 24 25 26
	---Fragment 1 Bond Connectivity---
	 1 : 2 3 4 9
	 2 : 1
	 3 : 1
	 4 : 1
	 5 : 6 7 8 12
	 6 : 5
	 7 : 5
	 8 : 5
	 9 : 1 10 11 15
	 10 : 9
	 11 : 9
	 12 : 5 13 14 24
	 13 : 12
	 14 : 12
	 15 : 9 16 17 18
	 16 : 15
	 17 : 15
	 18 : 15 19 20 21
	 19 : 18
	 20 : 18
	 21 : 18 22 23 24
	 22 : 21
	 23 : 21
	 24 : 12 21 25 26
	 25 : 24
	 26 : 24

	---Fragment 1 Geometry and Gradient---
	 C          -5.4269262171       -0.5375578470        2.0496882891
	 H          -4.2939993877       -0.0207495113        3.6933365079
	 H          -4.8613502021       -2.4298000542        1.4645393580
	 H          -7.3969155115       -0.6297508800        2.6438505664
	 C           6.6768108252        1.3876475016        0.4881812905
	 H           7.1593030212        3.3456336576        0.9054149199
	 H           7.4809588826        0.9143230762       -1.3499093599
	 H           7.5908092772        0.1933959559        1.8977392025
	 C          -5.0806216548        1.3726655958       -0.0792113604
	 H          -5.7873076622        3.2122714119        0.5369392347
	 H          -6.2406263156        0.8107799672       -1.6947921253
	 C           3.8270976036        0.9701128172        0.4884879879
	 H           3.0456457963        1.4867275342        2.3310011545
	 H           2.9484389633        2.2242305694       -0.8957073539
	 C          -2.3470128661        1.6632645877       -0.9645219563
	 H          -1.1979989066        2.3635915420        0.6018793409
	 H          -2.2914114046        3.1205791675       -2.4260429057
	 C          -1.2033418014       -0.8004078003       -1.9939132856
	 H           0.0330238804       -0.3829489184       -3.5966419371
	 H          -2.7402723126       -1.9530640795       -2.7563028969
	 C           0.3164766428       -2.3443224251       -0.0601935203
	 H          -0.4200057060       -2.0032159706        1.8384339681
	 H           0.0645504023       -4.3602130358       -0.4293771708
	 C           3.1451214314       -1.7656777271       -0.1008381924
	 H           4.1097285965       -2.9944371156        1.2542993732
	 H           3.8975723664       -2.2511066513       -1.9668662589
	            -0.0000003296       -0.0000005178        0.0000008270
	            -0.0000004658       -0.0000000965       -0.0000007044
	            -0.0000001174        0.0000008086        0.0000000217
	             0.0000007125       -0.0000000250       -0.0000001561
	             0.0000009234       -0.0000003036       -0.0000001291
	            -0.0000003354       -0.0000007189       -0.0000001265
	            -0.0000004626        0.0000002394        0.0000007488
	            -0.0000006224        0.0000005127       -0.0000005582
	            -0.0000008583        0.0000004112       -0.0000005930
	             0.0000002869       -0.0000006194       -0.0000003077
	             0.0000005328        0.0000002711        0.0000006003
	            -0.0000014892        0.0000014368        0.0000004635
	             0.0000005793       -0.0000008128       -0.0000015115
	             0.0000005650       -0.0000011966        0.0000008085
	             0.0000003096        0.0000014938        0.0000004536
	            -0.0000004959       -0.0000008654       -0.0000009489
	             0.0000000214       -0.0000003552        0.0000008466
	             0.0000004360       -0.0000007532       -0.0000019724
	            -0.0000010955       -0.0000001139        0.0000012565
	             0.0000012856        0.0000004386        0.0000005902
	            -0.0000008488       -0.0000008931        0.0000019944
	             0.0000011868       -0.0000001984       -0.0000022173
	             0.0000000894        0.0000015301        0.0000007890
	             0.0000017020       -0.0000009474       -0.0000007899
	            -0.0000007039        0.0000007556       -0.0000011199
	            -0.0000008059        0.0000005194        0.0000017348

	Previous optimization step data not found.  Starting new optimization.

	---Fragment 1 Intrafragment Coordinates---
	 - Coordinate -           - BOHR/RAD -       - ANG/DEG -
	 R(1,2)           =         2.062085	       1.091208
	 R(1,3)           =         2.059819	       1.090009
	 R(1,4)           =         2.059705	       1.089949
	 R(1,9)           =         2.881162	       1.524645
	 R(5,6)           =         2.059270	       1.089719
	 R(5,7)           =         2.061375	       1.090833
	 R(5,8)           =         2.061185	       1.090732
	 R(5,12)          =         2.880139	       1.524104
	 R(9,10)          =         2.064751	       1.092619
	 R(9,11)          =         2.066743	       1.093673
	 R(9,15)          =         2.888051	       1.528291
	 R(12,13)         =         2.066981	       1.093799
	 R(12,14)         =         2.064182	       1.092318
	 R(12,24)         =         2.880442	       1.524264
	 R(15,16)         =         2.065019	       1.092761
	 R(15,17)         =         2.064679	       1.092581
	 R(15,18)         =         2.904705	       1.537104
	 R(18,19)         =         2.066788	       1.093697
	 R(18,20)         =         2.066884	       1.093748
	 R(18,21)         =         2.903927	       1.536692
	 R(21,22)         =         2.064836	       1.092664
	 R(21,23)         =         2.064843	       1.092668
	 R(21,24)         =         2.887510	       1.528004
	 R(24,25)         =         2.068022	       1.094350
	 R(24,26)         =         2.069755	       1.095267
	 B(1,9,10)        =         1.906116	     109.212422
	 B(1,9,11)        =         1.906983	     109.262070
	 B(1,9,15)        =         1.989948	     114.015642
	 B(2,1,3)         =         1.881589	     107.807108
	 B(2,1,4)         =         1.882585	     107.864199
	 B(2,1,9)         =         1.935598	     110.901581
	 B(3,1,4)         =         1.879102	     107.664613
	 B(3,1,9)         =         1.945672	     111.478786
	 B(4,1,9)         =         1.936694	     110.964413
	 B(5,12,13)       =         1.915515	     109.750923
	 B(5,12,14)       =         1.910304	     109.452333
	 B(5,12,24)       =         1.951882	     111.834580
	 B(6,5,7)         =         1.883451	     107.913818
	 B(6,5,8)         =         1.884357	     107.965686
	 B(6,5,12)        =         1.949424	     111.693779
	 B(7,5,8)         =         1.879433	     107.683554
	 B(7,5,12)        =         1.931347	     110.658007
	 B(8,5,12)        =         1.933369	     110.773856
	 B(9,15,16)       =         1.905260	     109.163338
	 B(9,15,17)       =         1.889676	     108.270463
	 B(9,15,18)       =         1.977917	     113.326278
	 B(10,9,11)       =         1.858128	     106.462875
	 B(10,9,15)       =         1.902640	     109.013238
	 B(11,9,15)       =         1.895457	     108.601702
	 B(12,24,21)      =         2.003566	     114.795866
	 B(12,24,25)      =         1.896347	     108.652668
	 B(12,24,26)      =         1.897730	     108.731904
	 B(13,12,14)      =         1.859774	     106.557229
	 B(13,12,24)      =         1.907367	     109.284054
	 B(14,12,24)      =         1.916726	     109.820311
	 B(15,18,19)      =         1.916684	     109.817920
	 B(15,18,20)      =         1.886984	     108.116238
	 B(15,18,21)      =         2.005365	     114.898944
	 B(16,15,17)      =         1.857288	     106.414753
	 B(16,15,18)      =         1.914933	     109.717586
	 B(17,15,18)      =         1.914736	     109.706319
	 B(18,21,22)      =         1.915368	     109.742502
	 B(18,21,23)      =         1.913618	     109.642238
	 B(18,21,24)      =         1.978803	     113.377079
	 B(19,18,20)      =         1.845673	     105.749288
	 B(19,18,21)      =         1.886715	     108.100799
	 B(20,18,21)      =         1.915905	     109.773298
	 B(21,24,25)      =         1.905657	     109.186096
	 B(21,24,26)      =         1.898453	     108.773358
	 B(22,21,23)      =         1.856848	     106.389577
	 B(22,21,24)      =         1.906300	     109.222968
	 B(23,21,24)      =         1.888776	     108.218900
	 B(25,24,26)      =         1.856525	     106.371038
	 D(1,9,15,16)     =        -1.085660	     -62.203743
	 D(1,9,15,17)     =        -3.100707	    -177.657415
	 D(1,9,15,18)     =         1.054176	      60.399846
	 D(2,1,9,10)      =        -1.112214	     -63.725141
	 D(2,1,9,11)      =        -3.138254	    -179.808736
	 D(2,1,9,15)      =         1.020683	      58.480820
	 D(3,1,9,10)      =         3.074203	     176.138844
	 D(3,1,9,11)      =         1.048162	      60.055249
	 D(3,1,9,15)      =        -1.076086	     -61.655195
	 D(4,1,9,10)      =         0.979842	      56.140785
	 D(4,1,9,11)      =        -1.046199	     -59.942810
	 D(4,1,9,15)      =         3.112738	     178.346746
	 D(5,12,24,21)    =         3.112916	     178.356943
	 D(5,12,24,25)    =         0.974025	      55.807547
	 D(5,12,24,26)    =        -1.039700	     -59.570426
	 D(6,5,12,13)     =        -1.024157	     -58.679897
	 D(6,5,12,14)     =         1.011084	      57.930873
	 D(6,5,12,24)     =         3.139183	     179.861940
	 D(7,5,12,13)     =        -3.122912	    -178.929681
	 D(7,5,12,14)     =        -1.087670	     -62.318911
	 D(7,5,12,24)     =         1.040428	      59.612156
	 D(8,5,12,13)     =         1.077124	      61.714679
	 D(8,5,12,14)     =         3.112366	     178.325450
	 D(8,5,12,24)     =        -1.042720	     -59.743483
	 D(9,15,18,19)    =         2.495981	     143.009204
	 D(9,15,18,20)    =         0.490124	      28.082012
	 D(9,15,18,21)    =        -1.656199	     -94.893206
	 D(10,9,15,16)    =         1.049145	      60.111569
	 D(10,9,15,17)    =        -0.965902	     -55.342103
	 D(10,9,15,18)    =        -3.094204	    -177.284843
	 D(11,9,15,16)    =         3.066924	     175.721808
	 D(11,9,15,17)    =         1.051877	      60.268136
	 D(11,9,15,18)    =        -1.076425	     -61.674604
	 D(12,24,21,18)   =         1.054703	      60.430005
	 D(12,24,21,22)   =        -1.087072	     -62.284661
	 D(12,24,21,23)   =        -3.101663	    -177.712194
	 D(13,12,24,21)   =         0.988375	      56.629707
	 D(13,12,24,25)   =        -1.150516	     -65.919689
	 D(13,12,24,26)   =         3.118944	     178.702338
	 D(14,12,24,21)   =        -1.045863	     -59.923537
	 D(14,12,24,25)   =         3.098432	     177.527067
	 D(14,12,24,26)   =         1.084706	      62.149094
	 D(15,18,21,22)   =         0.501450	      28.730950
	 D(15,18,21,23)   =         2.534988	     145.244137
	 D(15,18,21,24)   =        -1.635304	     -93.695990
	 D(16,15,18,19)   =        -1.652737	     -94.694869
	 D(16,15,18,20)   =         2.624590	     150.377940
	 D(16,15,18,21)   =         0.478268	      27.402722
	 D(17,15,18,19)   =         0.381729	      21.871488
	 D(17,15,18,20)   =        -1.624128	     -93.055704
	 D(17,15,18,21)   =         2.512734	     143.969078
	 D(18,21,24,25)   =        -3.094620	    -177.308642
	 D(18,21,24,26)   =        -1.075475	     -61.620157
	 D(19,18,21,22)   =         2.648579	     151.752412
	 D(19,18,21,23)   =        -1.601067	     -91.734400
	 D(19,18,21,24)   =         0.511826	      29.325472
	 D(20,18,21,22)   =        -1.629307	     -93.352416
	 D(20,18,21,23)   =         0.404232	      23.160771
	 D(20,18,21,24)   =         2.517125	     144.220644
	 D(22,21,24,25)   =         1.046791	      59.976692
	 D(22,21,24,26)   =         3.065936	     175.665177
	 D(23,21,24,25)   =        -0.967800	     -55.450842
	 D(23,21,24,26)   =         1.051345	      60.237644
	 R(1,21)          =         6.379865	       3.376079
	 R(12,15)         =         6.380544	       3.376438

	Current energy   :      -314.9785599728

	Generating empirical Hessian (Schlegel '84) for each fragment.
	Taking RFO optimization step.
	Going to follow RFO solution 1.
	Using RFO vector 1.
	Norm of target step-size    0.00061
	Projected energy change by RFO approximation:         0.0000000031

	Back-transformation to cartesian coordinates...
	Successfully converged to displaced geometry.

	--- Internal Coordinate Step in ANG or DEG, aJ/ANG or AJ/DEG ---
	 ---------------------------------------------------------------------------
	   Coordinate                Previous        Force       Change         New 
	   ----------                --------       ------       ------       ------
	    1 R(1,2)          =      1.091208     0.000007     0.000001     1.091210
	    2 R(1,3)          =      1.090009     0.000006     0.000001     1.090011
	    3 R(1,4)          =      1.089949     0.000006     0.000001     1.089950
	    4 R(1,9)          =      1.524645     0.000001     0.000000     1.524646
	    5 R(5,6)          =      1.089719     0.000006     0.000001     1.089720
	    6 R(5,7)          =      1.090833     0.000007     0.000001     1.090834
	    7 R(5,8)          =      1.090732     0.000008     0.000001     1.090734
	    8 R(5,12)         =      1.524104     0.000004     0.000001     1.524105
	    9 R(9,10)         =      1.092619     0.000006     0.000001     1.092620
	   10 R(9,11)         =      1.093673     0.000007     0.000001     1.093675
	   11 R(9,15)         =      1.528291     0.000000     0.000002     1.528292
	   12 R(12,13)        =      1.093799     0.000015     0.000003     1.093802
	   13 R(12,14)        =      1.092318     0.000012     0.000002     1.092321
	   14 R(12,24)        =      1.524264     0.000008     0.000002     1.524266
	   15 R(15,16)        =      1.092761     0.000011     0.000002     1.092763
	   16 R(15,17)        =      1.092581     0.000007     0.000001     1.092583
	   17 R(15,18)        =      1.537104    -0.000005     0.000001     1.537105
	   18 R(18,19)        =      1.093697     0.000014     0.000003     1.093699
	   19 R(18,20)        =      1.093748     0.000012     0.000002     1.093750
	   20 R(18,21)        =      1.536692    -0.000002     0.000002     1.536694
	   21 R(21,22)        =      1.092664     0.000021     0.000004     1.092668
	   22 R(21,23)        =      1.092668     0.000014     0.000003     1.092671
	   23 R(21,24)        =      1.528004     0.000002     0.000003     1.528007
	   24 R(24,25)        =      1.094350     0.000012     0.000002     1.094352
	   25 R(24,26)        =      1.095267     0.000016     0.000003     1.095270
	   26 B(1,9,10)       =    109.212422    -0.000000    -0.000311   109.212111
	   27 B(1,9,11)       =    109.262070    -0.000000    -0.000007   109.262063
	   28 B(1,9,15)       =    114.015642     0.000000     0.000545   114.016187
	   29 B(2,1,3)        =    107.807108    -0.000000    -0.000033   107.807075
	   30 B(2,1,4)        =    107.864199     0.000000    -0.000020   107.864179
	   31 B(2,1,9)        =    110.901581     0.000000     0.000043   110.901624
	   32 B(3,1,4)        =    107.664613    -0.000000    -0.000039   107.664574
	   33 B(3,1,9)        =    111.478786     0.000000     0.000140   111.478927
	   34 B(4,1,9)        =    110.964413    -0.000000    -0.000096   110.964317
	   35 B(5,12,13)      =    109.750923    -0.000000    -0.000068   109.750856
	   36 B(5,12,14)      =    109.452333    -0.000000    -0.000126   109.452207
	   37 B(5,12,24)      =    111.834580     0.000000     0.000051   111.834631
	   38 B(6,5,7)        =    107.913818    -0.000000    -0.000049   107.913768
	   39 B(6,5,8)        =    107.965686    -0.000000    -0.000037   107.965649
	   40 B(6,5,12)       =    111.693779     0.000000     0.000071   111.693849
	   41 B(7,5,8)        =    107.683554    -0.000000    -0.000093   107.683461
	   42 B(7,5,12)       =    110.658007     0.000000     0.000006   110.658013
	   43 B(8,5,12)       =    110.773856     0.000000     0.000093   110.773949
	   44 B(9,15,16)      =    109.163338    -0.000000     0.000057   109.163395
	   45 B(9,15,17)      =    108.270463     0.000000    -0.000355   108.270109
	   46 B(9,15,18)      =    113.326278     0.000000     0.000523   113.326801
	   47 B(10,9,11)      =    106.462875     0.000000    -0.000094   106.462781
	   48 B(10,9,15)      =    109.013238    -0.000000    -0.000198   109.013040
	   49 B(11,9,15)      =    108.601702     0.000000     0.000026   108.601728
	   50 B(12,24,21)     =    114.795866     0.000000     0.000781   114.796647
	   51 B(12,24,25)     =    108.652668    -0.000000    -0.000355   108.652312
	   52 B(12,24,26)     =    108.731904    -0.000000    -0.000055   108.731849
	   53 B(13,12,14)     =    106.557229    -0.000000    -0.000149   106.557080
	   54 B(13,12,24)     =    109.284054     0.000000     0.000184   109.284238
	   55 B(14,12,24)     =    109.820311     0.000000     0.000098   109.820409
	   56 B(15,18,19)     =    109.817920    -0.000000    -0.000033   109.817887
	   57 B(15,18,20)     =    108.116238     0.000000    -0.000343   108.115894
	   58 B(15,18,21)     =    114.898944    -0.000000     0.000703   114.899646
	   59 B(16,15,17)     =    106.414753     0.000000    -0.000112   106.414641
	   60 B(16,15,18)     =    109.717586     0.000000     0.000406   109.717991
	   61 B(17,15,18)     =    109.706319    -0.000000    -0.000567   109.705752
	   62 B(18,21,22)     =    109.742502    -0.000000     0.000036   109.742539
	   63 B(18,21,23)     =    109.642238    -0.000000    -0.000533   109.641705
	   64 B(18,21,24)     =    113.377079     0.000000     0.000715   113.377794
	   65 B(19,18,20)     =    105.749288    -0.000000    -0.000149   105.749139
	   66 B(19,18,21)     =    108.100799     0.000000    -0.000237   108.100562
	   67 B(20,18,21)     =    109.773298     0.000000    -0.000004   109.773294
	   68 B(21,24,25)     =    109.186096    -0.000000    -0.000239   109.185857
	   69 B(21,24,26)     =    108.773358    -0.000000    -0.000060   108.773298
	   70 B(22,21,23)     =    106.389577     0.000000    -0.000079   106.389497
	   71 B(22,21,24)     =    109.222968    -0.000000     0.000233   109.223201
	   72 B(23,21,24)     =    108.218900     0.000000    -0.000426   108.218474
	   73 B(25,24,26)     =    106.371038     0.000000    -0.000134   106.370904
	   74 D(1,9,15,16)    =    -62.203743    -0.000000     0.004307   -62.199435
	   75 D(1,9,15,17)    =   -177.657415    -0.000000     0.004602  -177.652813
	   76 D(1,9,15,18)    =     60.399846     0.000000     0.005232    60.405078
	   77 D(2,1,9,10)     =    -63.725141     0.000000    -0.000712   -63.725854
	   78 D(2,1,9,11)     =   -179.808736     0.000000    -0.000422  -179.809158
	   79 D(2,1,9,15)     =     58.480820    -0.000000    -0.000824    58.479995
	   80 D(3,1,9,10)     =    176.138844    -0.000000    -0.000794   176.138050
	   81 D(3,1,9,11)     =     60.055249     0.000000    -0.000504    60.054745
	   82 D(3,1,9,15)     =    -61.655195    -0.000000    -0.000906   -61.656101
	   83 D(4,1,9,10)     =     56.140785    -0.000000    -0.000773    56.140012
	   84 D(4,1,9,11)     =    -59.942810     0.000000    -0.000483   -59.943293
	   85 D(4,1,9,15)     =    178.346746    -0.000000    -0.000885   178.345861
	   86 D(5,12,24,21)   =    178.356943     0.000000     0.000444   178.357387
	   87 D(5,12,24,25)   =     55.807547    -0.000000     0.000484    55.808031
	   88 D(5,12,24,26)   =    -59.570426     0.000000     0.000863   -59.569563
	   89 D(6,5,12,13)    =    -58.679897     0.000000    -0.000192   -58.680089
	   90 D(6,5,12,14)    =     57.930873    -0.000000    -0.000484    57.930389
	   91 D(6,5,12,24)    =    179.861940    -0.000000    -0.000413   179.861527
	   92 D(7,5,12,13)    =   -178.929681     0.000000    -0.000181  -178.929862
	   93 D(7,5,12,14)    =    -62.318911    -0.000000    -0.000472   -62.319383
	   94 D(7,5,12,24)    =     59.612156    -0.000000    -0.000402    59.611755
	   95 D(8,5,12,13)    =     61.714679     0.000000    -0.000128    61.714552
	   96 D(8,5,12,14)    =    178.325450    -0.000000    -0.000419   178.325031
	   97 D(8,5,12,24)    =    -59.743483    -0.000000    -0.000348   -59.743831
	   98 D(9,15,18,19)   =    143.009204     0.000000     0.007485   143.016688
	   99 D(9,15,18,20)   =     28.082012     0.000000     0.007868    28.089881
	  100 D(9,15,18,21)   =    -94.893206     0.000000     0.007651   -94.885555
	  101 D(10,9,15,16)   =     60.111569    -0.000000     0.004132    60.115702
	  102 D(10,9,15,17)   =    -55.342103    -0.000000     0.004427   -55.337676
	  103 D(10,9,15,18)   =   -177.284843     0.000000     0.005057  -177.279785
	  104 D(11,9,15,16)   =    175.721808    -0.000000     0.003929   175.725736
	  105 D(11,9,15,17)   =     60.268136    -0.000000     0.004223    60.272359
	  106 D(11,9,15,18)   =    -61.674604     0.000000     0.004853   -61.669751
	  107 D(12,24,21,18)  =     60.430005    -0.000000     0.001658    60.431663
	  108 D(12,24,21,22)  =    -62.284661     0.000000     0.000944   -62.283717
	  109 D(12,24,21,23)  =   -177.712194    -0.000000     0.001146  -177.711048
	  110 D(13,12,24,21)  =     56.629707     0.000000     0.000369    56.630076
	  111 D(13,12,24,25)  =    -65.919689    -0.000000     0.000409   -65.919280
	  112 D(13,12,24,26)  =    178.702338     0.000000     0.000788   178.703126
	  113 D(14,12,24,21)  =    -59.923537    -0.000000     0.000386   -59.923150
	  114 D(14,12,24,25)  =    177.527067    -0.000000     0.000426   177.527493
	  115 D(14,12,24,26)  =     62.149094     0.000000     0.000805    62.149899
	  116 D(15,18,21,22)  =     28.730950     0.000000     0.006829    28.737779
	  117 D(15,18,21,23)  =    145.244137     0.000000     0.006445   145.250583
	  118 D(15,18,21,24)  =    -93.695990     0.000000     0.006000   -93.689990
	  119 D(16,15,18,19)  =    -94.694869     0.000000     0.008222   -94.686647
	  120 D(16,15,18,20)  =    150.377940     0.000000     0.008605   150.386545
	  121 D(16,15,18,21)  =     27.402722     0.000000     0.008388    27.411110
	  122 D(17,15,18,19)  =     21.871488     0.000000     0.007993    21.879481
	  123 D(17,15,18,20)  =    -93.055704     0.000000     0.008377   -93.047327
	  124 D(17,15,18,21)  =    143.969078     0.000000     0.008159   143.977238
	  125 D(18,21,24,25)  =   -177.308642    -0.000000     0.001559  -177.307083
	  126 D(18,21,24,26)  =    -61.620157    -0.000000     0.001236   -61.618921
	  127 D(19,18,21,22)  =    151.752412     0.000000     0.007090   151.759503
	  128 D(19,18,21,23)  =    -91.734400     0.000000     0.006707   -91.727693
	  129 D(19,18,21,24)  =     29.325472     0.000000     0.006261    29.331733
	  130 D(20,18,21,22)  =    -93.352416     0.000000     0.006781   -93.345635
	  131 D(20,18,21,23)  =     23.160771     0.000000     0.006397    23.167169
	  132 D(20,18,21,24)  =    144.220644     0.000000     0.005952   144.226595
	  133 D(22,21,24,25)  =     59.976692     0.000000     0.000846    59.977537
	  134 D(22,21,24,26)  =    175.665177     0.000000     0.000523   175.665700
	  135 D(23,21,24,25)  =    -55.450842    -0.000000     0.001047   -55.449794
	  136 D(23,21,24,26)  =     60.237644    -0.000000     0.000724    60.238368
	  137 R(1,21)         =      3.376079    -0.000002    -0.000050     3.376029
	  138 R(12,15)        =      3.376438     0.000004    -0.000035     3.376403
	 ---------------------------------------------------------------------------

  ==> Convergence Check <==

  Measures of convergence in internal coordinates in au.
  Criteria marked as inactive (o), active & met (*), and active & unmet ( ).
  --------------------------------------------------------------------------------------------- ~
   Step     Total Energy     Delta E     MAX Force     RMS Force      MAX Disp      RMS Disp    ~
  --------------------------------------------------------------------------------------------- ~
    Convergence Criteria             o    2.00e-06 *    1.00e-06 *    6.00e-06 *    4.00e-06 *  ~
  --------------------------------------------------------------------------------------------- ~
      1    -314.97855997   -3.15e+02 o    2.50e-06      5.27e-07 *    1.50e-04      5.20e-05    ~
  ---------------------------------------------------------------------------------------------

	Writing optimization data to binary file.
	Structure for next step:
	Cartesian Geometry (in Angstrom)
	    C    -2.8715949807  -0.2843623771   1.0848227993
	    H    -2.2719880163  -0.0107591602   1.9545072430
	    H    -2.5723102225  -1.2857232851   0.7752614581
	    H    -3.9140335813  -0.3331417877   1.3993603239
	    C     3.5331161278   0.7343224099   0.2585217643
	    H     3.7884037629   1.7704269117   0.4794405199
	    H     3.9587015657   0.4839716326  -0.7141655328
	    H     4.0167714588   0.1022795539   1.0043763306
	    C    -2.6884934584   0.7263580508  -0.0418814825
	    H    -3.0624628883   1.6998580840   0.2840994295
	    H    -3.3024215732   0.4288973780  -0.8967111573
	    C     2.0251179809   0.5133309621   0.2585952988
	    H     1.6115433946   0.7865877025   1.2336286807
	    H     1.5601648504   1.1770600477  -0.4738298526
	    C    -1.2419861771   0.8801502554  -0.5105418314
	    H    -0.6338658889   1.2508014778   0.3182756421
	    H    -1.2126769321   1.6512981292  -1.2839812732
	    C    -0.6368071219  -0.4235683015  -1.0553050009
	    H     0.0174516376  -0.2026498448  -1.9034317610
	    H    -1.4501335249  -1.0334970778  -1.4587605895
	    C     0.1674363032  -1.2406270918  -0.0320573853
	    H    -0.2223607636  -1.0602405461   0.9726524508
	    H     0.0341824051  -2.3073794733  -0.2275357619
	    C     1.6642825719  -0.9343611148  -0.0534521026
	    H     2.1747155605  -1.5846606613   0.6636084174
	    H     2.0625246464  -1.1911141180  -1.0409224202
			--------------------------
			 OPTKING Finished Execution 
			--------------------------

    Structure for next step:
    Molecular point group: c1
    Full point group: C1

    Geometry (in Angstrom), charge = 0, multiplicity = 1:

    C           -2.871591621824    -0.284358914356     1.084833366490
    H           -2.271984657417    -0.010755697471     1.954517810238
    H           -2.572306863702    -1.285719822341     0.775272025316
    H           -3.914030222514    -0.333138324962     1.399370891091
    C            3.533119486634     0.734325872621     0.258532331560
    H            3.788407121759     1.770430374429     0.479451087155
    H            3.958704924502     0.483975095403    -0.714154965555
    H            4.016774817603     0.102283016619     1.004386897846
    C           -2.688490099545     0.726361513611    -0.041870915240
    H           -3.062459529508     1.699861546725     0.284109996691
    H           -3.302418214365     0.428900840745    -0.896700590099
    C            2.025121339695     0.513334424873     0.258605865968
    H            1.611546753439     0.786591165222     1.233639247945
    H            1.560168209224     1.177063510476    -0.473819285377
    C           -1.241982818234     0.880153718207    -0.510531264218
    H           -0.633862530050     1.250804940586     0.318286209272
    H           -1.212673573242     1.651301591957    -1.283970705955
    C           -0.636803763084    -0.423564838701    -1.055294433635
    H            0.017454996448    -0.202646382040    -1.903421193810
    H           -1.450130166062    -1.033493615069    -1.458750022307
    C            0.167439662067    -1.240623629074    -0.032046818040
    H           -0.222357404754    -1.060237083317     0.972663017999
    H            0.034185763895    -2.307376010522    -0.227525194727
    C            1.664285930740    -0.934357652054    -0.053441535400
    H            2.174718919299    -1.584657198496     0.663618984613
    H            2.062528005192    -1.191110655257    -1.040911852958

gradient() will perform analytic gradient computation.

*** tstart() called on wr33
*** at Wed Sep 21 05:05:37 2016


         ---------------------------------------------------------
                                   SCF
            by Justin Turney, Rob Parrish, and Andy Simmonett
                              RHF Reference
                       12 Threads,  60000 MiB Core
         ---------------------------------------------------------

  ==> Geometry <==

    Molecular point group: c1
    Full point group: C1

    Geometry (in Angstrom), charge = 0, multiplicity = 1:

       Center              X                  Y                   Z               Mass       
    ------------   -----------------  -----------------  -----------------  -----------------
           C         -2.871591621824    -0.284358914356     1.084833366490    12.000000000000
           H         -2.271984657417    -0.010755697471     1.954517810238     1.007825032070
           H         -2.572306863702    -1.285719822341     0.775272025316     1.007825032070
           H         -3.914030222514    -0.333138324962     1.399370891091     1.007825032070
           C          3.533119486634     0.734325872621     0.258532331560    12.000000000000
           H          3.788407121759     1.770430374429     0.479451087155     1.007825032070
           H          3.958704924502     0.483975095403    -0.714154965555     1.007825032070
           H          4.016774817603     0.102283016619     1.004386897846     1.007825032070
           C         -2.688490099545     0.726361513611    -0.041870915240    12.000000000000
           H         -3.062459529508     1.699861546725     0.284109996691     1.007825032070
           H         -3.302418214365     0.428900840745    -0.896700590099     1.007825032070
           C          2.025121339695     0.513334424873     0.258605865968    12.000000000000
           H          1.611546753439     0.786591165222     1.233639247945     1.007825032070
           H          1.560168209224     1.177063510476    -0.473819285377     1.007825032070
           C         -1.241982818234     0.880153718207    -0.510531264218    12.000000000000
           H         -0.633862530050     1.250804940586     0.318286209272     1.007825032070
           H         -1.212673573242     1.651301591957    -1.283970705955     1.007825032070
           C         -0.636803763084    -0.423564838701    -1.055294433635    12.000000000000
           H          0.017454996448    -0.202646382040    -1.903421193810     1.007825032070
           H         -1.450130166062    -1.033493615069    -1.458750022307     1.007825032070
           C          0.167439662067    -1.240623629074    -0.032046818040    12.000000000000
           H         -0.222357404754    -1.060237083317     0.972663017999     1.007825032070
           H          0.034185763895    -2.307376010522    -0.227525194727     1.007825032070
           C          1.664285930740    -0.934357652054    -0.053441535400    12.000000000000
           H          2.174718919299    -1.584657198496     0.663618984613     1.007825032070
           H          2.062528005192    -1.191110655257    -1.040911852958     1.007825032070

  Running in c1 symmetry.

  Rotational constants: A =      0.12337  B =      0.02776  C =      0.02643 [cm^-1]
  Rotational constants: A =   3698.42056  B =    832.12179  C =    792.44570 [MHz]
  Nuclear repulsion =  399.708350592731563

  Charge       = 0
  Multiplicity = 1
  Electrons    = 66
  Nalpha       = 33
  Nbeta        = 33

  ==> Algorithm <==

  SCF Algorithm Type is DF.
  DIIS enabled.
  MOM disabled.
  Fractional occupation disabled.
  Guess Type is READ.
  Energy threshold   = 1.00e-10
  Density threshold  = 1.00e-10
  Integral threshold = 0.00e+00

  ==> Primary Basis <==

  Basis Set: AUG-CC-PVTZ
    Number of shells: 274
    Number of basis function: 782
    Number of Cartesian functions: 890
    Spherical Harmonics?: true
    Max angular momentum: 3

  ==> Pre-Iterations <==

   -------------------------------------------------------
    Irrep   Nso     Nmo     Nalpha   Nbeta   Ndocc  Nsocc
   -------------------------------------------------------
     A        782     782       0       0       0       0
   -------------------------------------------------------
    Total     782     782      33      33      33       0
   -------------------------------------------------------

  ==> Integral Setup <==

  ==> DFJK: Density-Fitted J/K Matrices <==

    J tasked:                  Yes
    K tasked:                  Yes
    wK tasked:                  No
    OpenMP threads:             12
    Integrals threads:          12
    Memory (MB):             42915
    Algorithm:                Core
    Integral Cache:           NONE
    Schwarz Cutoff:          1E-12
    Fitting Condition:       1E-12

   => Auxiliary Basis Set <=

  Basis Set: 
    Number of shells: 492
    Number of basis function: 1660
    Number of Cartesian functions: 2038
    Spherical Harmonics?: true
    Max angular momentum: 4

  Minimum eigenvalue in the overlap matrix is 1.5430396799E-06.
  Using Symmetric Orthogonalization.
  SCF Guess: Reading in previously saved MOs, projecting if necessary.

  Using orbitals from previous SCF, no projection.
  Recomputing DOCC and SOCC from number of alpha and beta electrons from previous calculation.
              A 
    DOCC [    33 ]

  ==> Iterations <==

                           Total Energy        Delta E     RMS |[F,P]|

   @DF-RHF iter   0:  -313.53465831397330   -3.13535e+02   5.03674e-07 
   @DF-RHF iter   1:  -313.53479558567221   -1.37272e-04   1.08073e-07 
   @DF-RHF iter   2:  -313.53479559177970   -6.10748e-09   4.60884e-08 DIIS
   @DF-RHF iter   3:  -313.53479559268794   -9.08244e-10   1.80829e-08 DIIS
   @DF-RHF iter   4:  -313.53479559288360   -1.95655e-10   2.07612e-09 DIIS
   @DF-RHF iter   5:  -313.53479559288667   -3.06954e-12   6.48409e-10 DIIS
   @DF-RHF iter   6:  -313.53479559288701   -3.41061e-13   1.66590e-10 DIIS
   @DF-RHF iter   7:  -313.53479559288735   -3.41061e-13   3.75418e-11 DIIS

  ==> Post-Iterations <==

    Orbital Energies (a.u.)
    -----------------------

    Doubly Occupied:                                                      

       1A    -11.212727     2A    -11.212068     3A    -11.210567  
       4A    -11.210336     5A    -11.209641     6A    -11.209443  
       7A    -11.206922     8A    -11.206694     9A     -1.093773  
      10A     -1.058856    11A     -1.005805    12A     -0.948580  
      13A     -0.886675    14A     -0.829562    15A     -0.778686  
      16A     -0.766169    17A     -0.647294    18A     -0.617477  
      19A     -0.614962    20A     -0.599157    21A     -0.577583  
      22A     -0.556631    23A     -0.547921    24A     -0.522511  
      25A     -0.514934    26A     -0.510288    27A     -0.486962  
      28A     -0.478727    29A     -0.463740    30A     -0.459493  
      31A     -0.446262    32A     -0.435328    33A     -0.432202  

    Virtual:                                                              

      34A      0.029621    35A      0.033025    36A      0.034507  
      37A      0.035499    38A      0.045397    39A      0.048348  
      40A      0.049577    41A      0.053716    42A      0.054185  
      43A      0.066933    44A      0.067776    45A      0.072966  
      46A      0.074081    47A      0.077019    48A      0.086269  
      49A      0.090025    50A      0.093404    51A      0.100810  
      52A      0.115023    53A      0.118125    54A      0.120841  
      55A      0.124171    56A      0.128921    57A      0.133065  
      58A      0.134977    59A      0.138264    60A      0.139063  
      61A      0.142270    62A      0.147579    63A      0.149478  
      64A      0.154574    65A      0.155676    66A      0.161518  
      67A      0.163964    68A      0.167804    69A      0.173295  
      70A      0.176016    71A      0.180293    72A      0.185315  
      73A      0.186957    74A      0.190846    75A      0.198794  
      76A      0.210872    77A      0.214383    78A      0.223251  
      79A      0.226139    80A      0.228980    81A      0.235406  
      82A      0.240510    83A      0.255944    84A      0.262307  
      85A      0.267793    86A      0.271274    87A      0.272773  
      88A      0.282121    89A      0.287225    90A      0.292129  
      91A      0.294392    92A      0.301936    93A      0.306181  
      94A      0.314674    95A      0.317052    96A      0.319677  
      97A      0.328970    98A      0.331795    99A      0.336809  
     100A      0.338627   101A      0.340984   102A      0.344627  
     103A      0.348924   104A      0.354141   105A      0.355592  
     106A      0.359454   107A      0.363257   108A      0.364875  
     109A      0.370815   110A      0.374699   111A      0.377243  
     112A      0.380785   113A      0.382298   114A      0.388237  
     115A      0.391959   116A      0.395783   117A      0.397383  
     118A      0.402672   119A      0.406543   120A      0.412474  
     121A      0.418906   122A      0.420522   123A      0.423234  
     124A      0.426114   125A      0.435289   126A      0.439114  
     127A      0.440849   128A      0.443810   129A      0.447101  
     130A      0.448791   131A      0.450872   132A      0.456290  
     133A      0.460597   134A      0.467839   135A      0.470745  
     136A      0.474827   137A      0.480739   138A      0.484229  
     139A      0.487089   140A      0.491574   141A      0.495200  
     142A      0.500929   143A      0.504271   144A      0.505805  
     145A      0.506581   146A      0.514161   147A      0.514836  
     148A      0.523536   149A      0.525001   150A      0.530356  
     151A      0.535280   152A      0.542372   153A      0.542870  
     154A      0.544359   155A      0.550660   156A      0.553683  
     157A      0.558135   158A      0.558623   159A      0.568154  
     160A      0.576475   161A      0.585572   162A      0.588949  
     163A      0.590819   164A      0.598242   165A      0.601567  
     166A      0.604881   167A      0.606572   168A      0.612729  
     169A      0.617062   170A      0.618008   171A      0.622679  
     172A      0.628782   173A      0.634263   174A      0.635684  
     175A      0.638343   176A      0.644654   177A      0.651165  
     178A      0.660645   179A      0.663694   180A      0.668123  
     181A      0.675104   182A      0.679802   183A      0.680891  
     184A      0.682496   185A      0.692632   186A      0.695169  
     187A      0.706116   188A      0.711401   189A      0.713437  
     190A      0.724573   191A      0.728769   192A      0.734041  
     193A      0.738064   194A      0.744828   195A      0.747920  
     196A      0.758314   197A      0.768693   198A      0.773998  
     199A      0.781758   200A      0.785577   201A      0.796444  
     202A      0.803307   203A      0.815290   204A      0.832514  
     205A      0.839470   206A      0.842453   207A      0.846595  
     208A      0.848101   209A      0.853123   210A      0.862289  
     211A      0.864940   212A      0.871993   213A      0.880039  
     214A      0.885464   215A      0.892093   216A      0.897042  
     217A      0.902044   218A      0.902950   219A      0.908478  
     220A      0.910858   221A      0.916109   222A      0.919876  
     223A      0.926137   224A      0.930517   225A      0.933677  
     226A      0.936078   227A      0.943776   228A      0.951349  
     229A      0.955448   230A      0.963239   231A      0.970552  
     232A      0.983298   233A      0.985162   234A      0.987750  
     235A      0.989212   236A      0.992847   237A      1.006006  
     238A      1.006681   239A      1.009191   240A      1.016798  
     241A      1.024693   242A      1.027186   243A      1.031764  
     244A      1.035098   245A      1.039097   246A      1.048767  
     247A      1.051174   248A      1.060537   249A      1.062944  
     250A      1.065956   251A      1.075756   252A      1.077692  
     253A      1.091468   254A      1.093868   255A      1.097645  
     256A      1.104241   257A      1.108152   258A      1.116322  
     259A      1.122469   260A      1.122863   261A      1.129385  
     262A      1.132946   263A      1.135457   264A      1.141375  
     265A      1.143730   266A      1.146353   267A      1.152479  
     268A      1.159553   269A      1.169457   270A      1.173103  
     271A      1.179248   272A      1.180040   273A      1.189328  
     274A      1.190536   275A      1.194093   276A      1.209929  
     277A      1.210773   278A      1.214826   279A      1.218399  
     280A      1.219314   281A      1.230382   282A      1.235035  
     283A      1.241490   284A      1.243951   285A      1.252009  
[...]
	 ---------------------------------------------------------------------------
	   Coordinate                Previous        Force       Change         New 
	   ----------                --------       ------       ------       ------
	    1 R(1,2)          =      1.091208    -0.000005    -0.000000     1.091208
	    2 R(1,3)          =      1.090009    -0.000005    -0.000000     1.090009
	    3 R(1,4)          =      1.089949    -0.000004    -0.000000     1.089949
	    4 R(1,9)          =      1.524645    -0.000001    -0.000000     1.524645
	    5 R(5,6)          =      1.089719    -0.000001    -0.000000     1.089718
	    6 R(5,7)          =      1.090833     0.000000    -0.000000     1.090833
	    7 R(5,8)          =      1.090732    -0.000000    -0.000000     1.090732
	    8 R(5,12)         =      1.524104     0.000001    -0.000000     1.524104
	    9 R(9,10)         =      1.092619    -0.000005    -0.000000     1.092619
	   10 R(9,11)         =      1.093673    -0.000005    -0.000000     1.093673
	   11 R(9,15)         =      1.528291    -0.000002    -0.000000     1.528290
	   12 R(12,13)        =      1.093800     0.000000    -0.000000     1.093800
	   13 R(12,14)        =      1.092318     0.000000    -0.000000     1.092318
	   14 R(12,24)        =      1.524265     0.000001     0.000000     1.524265
	   15 R(15,16)        =      1.092761    -0.000006    -0.000000     1.092761
	   16 R(15,17)        =      1.092581    -0.000003     0.000000     1.092581
	   17 R(15,18)        =      1.537103    -0.000002     0.000000     1.537103
	   18 R(18,19)        =      1.093697    -0.000001     0.000000     1.093698
	   19 R(18,20)        =      1.093748    -0.000003     0.000000     1.093748
	   20 R(18,21)        =      1.536692     0.000001     0.000000     1.536692
	   21 R(21,22)        =      1.092665    -0.000000     0.000000     1.092665
	   22 R(21,23)        =      1.092669    -0.000000     0.000000     1.092669
	   23 R(21,24)        =      1.528005    -0.000000     0.000000     1.528005
	   24 R(24,25)        =      1.094351     0.000001     0.000000     1.094351
	   25 R(24,26)        =      1.095268     0.000001     0.000000     1.095268
	   26 B(1,9,10)       =    109.212391    -0.000000     0.000005   109.212397
	   27 B(1,9,11)       =    109.262015    -0.000000     0.000008   109.262023
	   28 B(1,9,15)       =    114.015733     0.000000    -0.000035   114.015697
	   29 B(2,1,3)        =    107.807108     0.000000     0.000007   107.807115
	   30 B(2,1,4)        =    107.864177    -0.000000    -0.000001   107.864176
	   31 B(2,1,9)        =    110.901611    -0.000000    -0.000011   110.901600
	   32 B(3,1,4)        =    107.664587    -0.000000    -0.000003   107.664585
	   33 B(3,1,9)        =    111.478847    -0.000000     0.000003   111.478850
	   34 B(4,1,9)        =    110.964368     0.000000     0.000005   110.964372
	   35 B(5,12,13)      =    109.750888    -0.000000    -0.000008   109.750880
	   36 B(5,12,14)      =    109.452300    -0.000000    -0.000019   109.452281
	   37 B(5,12,24)      =    111.834628     0.000000     0.000009   111.834636
	   38 B(6,5,7)        =    107.913807    -0.000000     0.000004   107.913811
	   39 B(6,5,8)        =    107.965671    -0.000000     0.000005   107.965676
	   40 B(6,5,12)       =    111.693826     0.000000    -0.000002   111.693824
	   41 B(7,5,8)        =    107.683497    -0.000000    -0.000004   107.683492
	   42 B(7,5,12)       =    110.658000    -0.000000    -0.000003   110.657997
	   43 B(8,5,12)       =    110.773893     0.000000     0.000001   110.773894
	   44 B(9,15,16)      =    109.163350    -0.000000    -0.000057   109.163293
	   45 B(9,15,17)      =    108.270422    -0.000000     0.000015   108.270437
	   46 B(9,15,18)      =    113.326294    -0.000000    -0.000014   113.326280
	   47 B(10,9,11)      =    106.462852    -0.000000     0.000002   106.462854
	   48 B(10,9,15)      =    109.013214    -0.000000     0.000016   109.013230
	   49 B(11,9,15)      =    108.601736     0.000000     0.000006   108.601743
	   50 B(12,24,21)     =    114.796054     0.000000     0.000032   114.796086
	   51 B(12,24,25)     =    108.652591    -0.000000    -0.000007   108.652584
	   52 B(12,24,26)     =    108.731856    -0.000000    -0.000005   108.731851
	   53 B(13,12,14)     =    106.557159    -0.000000     0.000001   106.557160
	   54 B(13,12,24)     =    109.284086    -0.000000     0.000012   109.284098
	   55 B(14,12,24)     =    109.820364    -0.000000     0.000004   109.820368
	   56 B(15,18,19)     =    109.817907    -0.000000     0.000015   109.817921
	   57 B(15,18,20)     =    108.116185     0.000000    -0.000024   108.116162
	   58 B(15,18,21)     =    114.898937    -0.000000     0.000011   114.898948
	   59 B(16,15,17)     =    106.414692     0.000000     0.000015   106.414707
	   60 B(16,15,18)     =    109.717739     0.000000     0.000023   109.717762
	   61 B(17,15,18)     =    109.706233     0.000000     0.000019   109.706252
	   62 B(18,21,22)     =    109.742450    -0.000000    -0.000001   109.742449
	   63 B(18,21,23)     =    109.642187     0.000000    -0.000005   109.642182
	   64 B(18,21,24)     =    113.377136    -0.000000     0.000016   113.377152
	   65 B(19,18,20)     =    105.749284    -0.000000    -0.000000   105.749284
	   66 B(19,18,21)     =    108.100811    -0.000000     0.000004   108.100815
	   67 B(20,18,21)     =    109.773363     0.000000    -0.000006   109.773357
	   68 B(21,24,25)     =    109.186025    -0.000000     0.000004   109.186029
	   69 B(21,24,26)     =    108.773384    -0.000000    -0.000017   108.773367
	   70 B(22,21,23)     =    106.389640    -0.000000     0.000004   106.389644
	   71 B(22,21,24)     =    109.222959     0.000000     0.000016   109.222975
	   72 B(23,21,24)     =    108.218893    -0.000000    -0.000031   108.218862
	   73 B(25,24,26)     =    106.371005     0.000000    -0.000011   106.370994
	   74 D(1,9,15,16)    =    -62.204067    -0.000000     0.000050   -62.204017
	   75 D(1,9,15,17)    =   -177.657651     0.000000     0.000054  -177.657596
	   76 D(1,9,15,18)    =     60.399738     0.000000     0.000029    60.399767
	   77 D(2,1,9,10)     =    -63.725521    -0.000000     0.000099   -63.725422
	   78 D(2,1,9,11)     =   -179.809041     0.000000     0.000090  -179.808951
	   79 D(2,1,9,15)     =     58.480449    -0.000000     0.000100    58.480548
	   80 D(3,1,9,10)     =    176.138404     0.000000     0.000096   176.138499
	   81 D(3,1,9,11)     =     60.054884     0.000000     0.000086    60.054970
	   82 D(3,1,9,15)     =    -61.655627     0.000000     0.000096   -61.655530
	   83 D(4,1,9,10)     =     56.140367    -0.000000     0.000094    56.140462
	   84 D(4,1,9,11)     =    -59.943152     0.000000     0.000085   -59.943068
	   85 D(4,1,9,15)     =    178.346337    -0.000000     0.000094   178.346432
	   86 D(5,12,24,21)   =    178.356536     0.000000     0.000229   178.356765
	   87 D(5,12,24,25)   =     55.807161     0.000000     0.000206    55.807367
	   88 D(5,12,24,26)   =    -59.570706     0.000000     0.000225   -59.570480
	   89 D(6,5,12,13)    =    -58.679861     0.000000    -0.000162   -58.680023
	   90 D(6,5,12,14)    =     57.930785    -0.000000    -0.000176    57.930609
	   91 D(6,5,12,24)    =    179.861929    -0.000000    -0.000179   179.861750
	   92 D(7,5,12,13)    =   -178.929659     0.000000    -0.000164  -178.929822
	   93 D(7,5,12,14)    =    -62.319012    -0.000000    -0.000178   -62.319190
	   94 D(7,5,12,24)    =     59.612131    -0.000000    -0.000180    59.611951
	   95 D(8,5,12,13)    =     61.714755     0.000000    -0.000157    61.714598
	   96 D(8,5,12,14)    =    178.325401    -0.000000    -0.000171   178.325230
	   97 D(8,5,12,24)    =    -59.743455    -0.000000    -0.000173   -59.743629
	   98 D(9,15,18,19)   =    143.009561    -0.000000    -0.000251   143.009310
	   99 D(9,15,18,20)   =     28.082410    -0.000000    -0.000245    28.082165
	  100 D(9,15,18,21)   =    -94.892848    -0.000000    -0.000226   -94.893075
	  101 D(10,9,15,16)   =     60.111249    -0.000000     0.000045    60.111294
	  102 D(10,9,15,17)   =    -55.342334     0.000000     0.000049   -55.342285
	  103 D(10,9,15,18)   =   -177.284945     0.000000     0.000023  -177.284922
	  104 D(11,9,15,16)   =    175.721467    -0.000000     0.000059   175.721525
	  105 D(11,9,15,17)   =     60.267883     0.000000     0.000063    60.267946
	  106 D(11,9,15,18)   =    -61.674727     0.000000     0.000037   -61.674690
	  107 D(12,24,21,18)  =     60.429995    -0.000000    -0.000283    60.429712
	  108 D(12,24,21,22)  =    -62.284636     0.000000    -0.000304   -62.284941
	  109 D(12,24,21,23)  =   -177.712236    -0.000000    -0.000301  -177.712537
	  110 D(13,12,24,21)  =     56.629291     0.000000     0.000224    56.629515
	  111 D(13,12,24,25)  =    -65.920084    -0.000000     0.000202   -65.919883
	  112 D(13,12,24,26)  =    178.702049    -0.000000     0.000221   178.702270
	  113 D(14,12,24,21)  =    -59.923917     0.000000     0.000213   -59.923704
	  114 D(14,12,24,25)  =    177.526708    -0.000000     0.000191   177.526898
	  115 D(14,12,24,26)  =     62.148842     0.000000     0.000210    62.149051
	  116 D(15,18,21,22)  =     28.731312     0.000000     0.000161    28.731472
	  117 D(15,18,21,23)  =    145.244516     0.000000     0.000162   145.244678
	  118 D(15,18,21,24)  =    -93.695619    -0.000000     0.000130   -93.695489
	  119 D(16,15,18,19)  =    -94.694371    -0.000000    -0.000317   -94.694688
	  120 D(16,15,18,20)  =    150.378478    -0.000000    -0.000312   150.378166
	  121 D(16,15,18,21)  =     27.403219    -0.000000    -0.000293    27.402926
	  122 D(17,15,18,19)  =     21.871950    -0.000000    -0.000274    21.871676
	  123 D(17,15,18,20)  =    -93.055201    -0.000000    -0.000269   -93.055470
	  124 D(17,15,18,21)  =    143.969540    -0.000000    -0.000250   143.969291
	  125 D(18,21,24,25)  =   -177.308675    -0.000000    -0.000266  -177.308941
	  126 D(18,21,24,26)  =    -61.620253    -0.000000    -0.000286   -61.620540
	  127 D(19,18,21,22)  =    151.752761    -0.000000     0.000191   151.752951
	  128 D(19,18,21,23)  =    -91.734035    -0.000000     0.000192   -91.733844
	  129 D(19,18,21,24)  =     29.325830    -0.000000     0.000160    29.325990
	  130 D(20,18,21,22)  =    -93.352031     0.000000     0.000189   -93.351842
	  131 D(20,18,21,23)  =     23.161173     0.000000     0.000190    23.161363
	  132 D(20,18,21,24)  =    144.221038    -0.000000     0.000158   144.221196
	  133 D(22,21,24,25)  =     59.976693     0.000000    -0.000287    59.976406
	  134 D(22,21,24,26)  =    175.665115     0.000000    -0.000308   175.664807
	  135 D(23,21,24,25)  =    -55.450906    -0.000000    -0.000284   -55.451190
	  136 D(23,21,24,26)  =     60.237515    -0.000000    -0.000304    60.237211
	  137 R(1,21)         =      3.376074    -0.000001     0.000003     3.376077
	  138 R(12,15)        =      3.376438    -0.000002    -0.000003     3.376435
	 ---------------------------------------------------------------------------

  ==> Convergence Check <==

  Measures of convergence in internal coordinates in au.
  Criteria marked as inactive (o), active & met (*), and active & unmet ( ).
  ---------------------------------------------------------------------------------------------
   Step     Total Energy     Delta E     MAX Force     RMS Force      MAX Disp      RMS Disp   
  ---------------------------------------------------------------------------------------------
    Convergence Criteria             o    2.00e-06 *    1.00e-06 *    6.00e-06 *    4.00e-06 *
  ---------------------------------------------------------------------------------------------
     32    -314.97855997    1.45e-09 o    7.24e-07 *    1.59e-07 *    5.61e-06 *    2.43e-06 *  ~
  ---------------------------------------------------------------------------------------------


  **** Optimization is complete! (in 32 steps) ****

  ==> Optimization Summary <==

  Measures of convergence in internal coordinates in au.
  --------------------------------------------------------------------------------------------------------------- ~
   Step         Total Energy             Delta E       MAX Force       RMS Force        MAX Disp        RMS Disp  ~
  --------------------------------------------------------------------------------------------------------------- ~
      1    -314.978559972800   -314.978559972800      0.00000250      0.00000053      0.00015019      0.00005201  ~
      2    -314.978559970082      0.000000002718      0.00000238      0.00000066      0.00012454      0.00004895  ~
      3    -314.978559971215     -0.000000001133      0.00000229      0.00000051      0.00008477      0.00002680  ~
      4    -314.978559971760     -0.000000000545      0.00000168      0.00000040      0.00006344      0.00002547  ~
      5    -314.978559971809     -0.000000000049      0.00000086      0.00000028      0.00005787      0.00002182  ~
      6    -314.978559969954      0.000000001855      0.00000262      0.00000063      0.00003346      0.00001340  ~
      7    -314.978559974359     -0.000000004405      0.00000160      0.00000039      0.00002453      0.00000744  ~
      8    -314.978559969891      0.000000004468      0.00000067      0.00000017      0.00002160      0.00000784  ~
      9    -314.978559972672     -0.000000002781      0.00000292      0.00000067      0.00001506      0.00000565  ~
     10    -314.978559970837      0.000000001835      0.00000035      0.00000010      0.00001185      0.00000381  ~
     11    -314.978559969752      0.000000001085      0.00000091      0.00000020      0.00002197      0.00000669  ~
     12    -314.978559973296     -0.000000003545      0.00000087      0.00000022      0.00002917      0.00000848  ~
     13    -314.978559969479      0.000000003817      0.00000051      0.00000011      0.00001303      0.00000459  ~
     14    -314.978559970662     -0.000000001183      0.00000071      0.00000014      0.00000691      0.00000257  ~
     15    -314.978559970166      0.000000000496      0.00000129      0.00000028      0.00000882      0.00000357  ~
     16    -314.978559972771     -0.000000002605      0.00000094      0.00000021      0.00001106      0.00000390  ~
     17    -314.978559969318      0.000000003453      0.00000160      0.00000040      0.00011613      0.00003514  ~
     18    -314.978559973257     -0.000000003939      0.00000361      0.00000076      0.00007212      0.00002480  ~
     19    -314.978559971928      0.000000001329      0.00000092      0.00000016      0.00001334      0.00000517  ~
     20    -314.978559969004      0.000000002924      0.00000068      0.00000015      0.00000883      0.00000299  ~
     21    -314.978559970338     -0.000000001334      0.00000119      0.00000025      0.00001399      0.00000421  ~
     22    -314.978559968471      0.000000001867      0.00000131      0.00000026      0.00002967      0.00000862  ~
     23    -314.978559970311     -0.000000001840      0.00000127      0.00000030      0.00001859      0.00000572  ~
     24    -314.978559970592     -0.000000000280      0.00000107      0.00000025      0.00001221      0.00000415  ~
     25    -314.978559970774     -0.000000000183      0.00000178      0.00000038      0.00009397      0.00002686  ~
     26    -314.978559970786     -0.000000000012      0.00000274      0.00000053      0.00006594      0.00001834  ~
     27    -314.978559970797     -0.000000000011      0.00000078      0.00000018      0.00001620      0.00000474  ~
     28    -314.978559970863     -0.000000000066      0.00000133      0.00000027      0.00001389      0.00000403  ~
     29    -314.978559973064     -0.000000002201      0.00000043      0.00000012      0.00001087      0.00000235  ~
     30    -314.978559967649      0.000000005415      0.00000173      0.00000037      0.00001200      0.00000419  ~
     31    -314.978559973099     -0.000000005450      0.00000091      0.00000021      0.00000604      0.00000204  ~
     32    -314.978559971652      0.000000001447      0.00000072      0.00000016      0.00000561      0.00000243  ~
  --------------------------------------------------------------------------------------------------------------- ~

	Writing optimization data to binary file.
	Final energy is   -314.9785599716517
	Final (previous) structure:
	Cartesian Geometry (in Angstrom)
	    C    -2.8717947073  -0.2844724447   1.0846561061
	    H    -2.2722639845  -0.0110000340   1.9544327113
	    H    -2.5725151912  -1.2858035869   0.7749976486
	    H    -3.9142650250  -0.3332546958   1.3990851769
	    C     3.5332146661   0.7343095466   0.2583500004
	    H     3.7885389784   1.7704285117   0.4791522266
	    H     3.9587582156   0.4838456089  -0.7143249857
	    H     4.0168764004   0.1023308434   1.0042528027
	    C    -2.6885460986   0.7263823814  -0.0419029790
	    H    -3.0625053787   1.6998574066   0.2841603246
	    H    -3.3024020909   0.4290518066  -0.8968281102
	    C     2.0252108989   0.5133614062   0.2584991923
	    H     1.6116780461   0.7867341222   1.2335150384
	    H     1.5602512149   1.1770209117  -0.4739815937
	    C    -1.2419870808   0.8801648334  -0.5104005480
	    H    -0.6339489428   1.2507613398   0.3184989993
	    H    -1.2125725539   1.6513454743  -1.2838014581
	    C    -0.6367857831  -0.4235497560  -1.0551434941
	    H     0.0174685534  -0.2026332189  -1.9032716186
	    H    -1.4500972082  -1.0335042718  -1.4585857895
	    C     0.1674698195  -1.2405633076  -0.0318724763
	    H    -0.2222616913  -1.0600696499   0.9728404555
	    H     0.0341592505  -2.3073254853  -0.2272495059
	    C     1.6643238851  -0.9343533520  -0.0533755700
	    H     2.1747720716  -1.5845924842   0.6637264023
	    H     2.0625065826  -1.1912202319  -1.0408377731
	Saving final (previous) structure.
			--------------------------
			 OPTKING Finished Execution 
			--------------------------

    Final optimized geometry and variables:
    Molecular point group: c1
    Full point group: C1

    Geometry (in Angstrom), charge = 0, multiplicity = 1:

    C           -2.871794707315    -0.284472444652     1.084656106127
    H           -2.272263984502    -0.011000033985     1.954432711329
    H           -2.572515191188    -1.285803586877     0.774997648598
    H           -3.914265024996    -0.333254695810     1.399085176866
    C            3.533214666102     0.734309546593     0.258350000444
    H            3.788538978377     1.770428511677     0.479152226558
    H            3.958758215590     0.483845608935    -0.714324985694
    H            4.016876400420     0.102330843397     1.004252802655
    C           -2.688546098614     0.726382381364    -0.041902979014
    H           -3.062505378748     1.699857406618     0.284160324576
    H           -3.302402090876     0.429051806636    -0.896828110159
    C            2.025210898919     0.513361406233     0.258499192333
    H            1.611678046098     0.786734122177     1.233515038446
    H            1.560251214865     1.177020911698    -0.473981593710
    C           -1.241987080833     0.880164833414    -0.510400548003
    H           -0.633948942796     1.250761339778     0.318498999289
    H           -1.212572553892     1.651345474324    -1.283801458068
    C           -0.636785783069    -0.423549755972    -1.055143494135
    H            0.017468553356    -0.202633218949    -1.903271618591
    H           -1.450097208208    -1.033504271786    -1.458585789498
    C            0.167469819484    -1.240563307614    -0.031872476307
    H           -0.222261691332    -1.060069649949     0.972840455469
    H            0.034159250534    -2.307325485284    -0.227249505939
    C            1.664323885120    -0.934353351967    -0.053375569954
    H            2.174772071589    -1.584592484203     0.663726402341
    H            2.062506582560    -1.191220231914    -1.040837773124

	Cleaning optimization helper files.

*** Psi4 exiting successfully. Buy a developer a beer!
