    -----------------------------------------------------------------------
          Psi4: An Open-Source Ab Initio Electronic Structure Package
                              Psi4 1.0.0 Driver

                          Git: Rev {master} 6a9a71b dirty

    J. M. Turney, A. C. Simmonett, R. M. Parrish, E. G. Hohenstein,
    F. A. Evangelista, J. T. Fermann, B. J. Mintz, L. A. Burns, J. J. Wilke,
    M. L. Abrams, N. J. Russ, M. L. Leininger, C. L. Janssen, E. T. Seidl,
    W. D. Allen, H. F. Schaefer, R. A. King, E. F. Valeev, C. D. Sherrill,
    and T. D. Crawford, WIREs Comput. Mol. Sci. 2, 556-565 (2012)
    (doi: 10.1002/wcms.93)

                         Additional Contributions by
    A. E. DePrince, U. Bozkaya, A. Yu. Sokolov, D. G. A. Smith, R. Di Remigio,
    R. M. Richard, J. F. Gonthier, H. R. McAlexander, M. Saitow, and
    B. P. Pritchard
    -----------------------------------------------------------------------


    Psi4 started on: Wed Sep 21 13:12:19 2016

    Process ID:  40400
    PSI4DATADIR: /usr/local/hpc5/psi4conda/share/psi4
    Memory level set to 256.000 MB

  ==> Input File <==

--------------------------------------------------------------------------
memory 30 Gb

molecule molecule_67_psi {
0 1
C           -2.053296943730     1.658218373441    -0.132295243561
H           -1.020597101515     1.819811020546    -0.440965375432
H           -2.324930955191     2.465137912137     0.548199149062
H           -2.679254255929     1.744811713701    -1.021973877909
C            2.495899933790     0.656162937023    -1.016634860465
H            3.491067414173     0.946041250961    -1.353837377129
H            1.813355286962     1.476207156007    -1.246706411623
H            2.187555363853    -0.209553317696    -1.602465774714
C           -2.243443731071     0.293969023757     0.521921919638
H           -3.284360381950     0.196731805405     0.838962856209
H           -1.642169857335     0.226200208068     1.431716403518
C            2.494898212837     0.349128797320     0.476836808095
H            3.179042825913    -0.481010323550     0.674395261384
H            2.889054352589     1.210943768049     1.020727584692
C           -1.906677357826    -0.868857726885    -0.409915061890
H           -2.510520329221    -0.773689643573    -1.317799725275
H           -2.207409221463    -1.806792433987     0.066118843271
C           -0.431659819971    -0.985802597373    -0.799232599307
H           -0.112118883179    -0.085537552360    -1.326629473282
H           -0.340862729636    -1.804595830430    -1.517087480116
C            0.494650215372    -1.253686554020     0.397806575778
H           -0.076055890798    -1.807844729902     1.148528755157
H            1.307524414070    -1.919119230867     0.092364894451
C            1.120365711888    -0.006912668664     1.042446415852
H            0.452330346536     0.849147337165     0.924897820565
H            1.226788401868    -0.168224733851     2.117887200527
}

set globals {
  reference rhf
  g_convergence gau_verytight
  basis aug-cc-pvtz
  freeze_core true
  scf_type df
  mp_type df
}
optimize('mp2')
--------------------------------------------------------------------------
/usr/local/hpc5/psi4conda/lib/python2.7/site-packages/v2rdm_casscf/v2rdm_casscf.so loaded.

  Memory set to  30.000 GiB by Python script.
gradient() will perform analytic gradient computation.

*** tstart() called on wr39
*** at Wed Sep 21 13:12:20 2016


         ---------------------------------------------------------
                                   SCF
            by Justin Turney, Rob Parrish, and Andy Simmonett
                              RHF Reference
                       12 Threads,  30000 MiB Core
         ---------------------------------------------------------

  ==> Geometry <==

    Molecular point group: c1
    Full point group: C1

    Geometry (in Angstrom), charge = 0, multiplicity = 1:

       Center              X                  Y                   Z               Mass       
    ------------   -----------------  -----------------  -----------------  -----------------
           C         -2.053296943730     1.658218373441    -0.132295243561    12.000000000000
           H         -1.020597101515     1.819811020546    -0.440965375432     1.007825032070
           H         -2.324930955191     2.465137912137     0.548199149062     1.007825032070
           H         -2.679254255929     1.744811713701    -1.021973877909     1.007825032070
           C          2.495899933790     0.656162937023    -1.016634860465    12.000000000000
           H          3.491067414173     0.946041250961    -1.353837377129     1.007825032070
           H          1.813355286962     1.476207156007    -1.246706411623     1.007825032070
           H          2.187555363853    -0.209553317696    -1.602465774714     1.007825032070
           C         -2.243443731071     0.293969023757     0.521921919638    12.000000000000
           H         -3.284360381950     0.196731805405     0.838962856209     1.007825032070
           H         -1.642169857335     0.226200208068     1.431716403518     1.007825032070
           C          2.494898212837     0.349128797320     0.476836808095    12.000000000000
           H          3.179042825913    -0.481010323550     0.674395261384     1.007825032070
           H          2.889054352589     1.210943768049     1.020727584692     1.007825032070
           C         -1.906677357826    -0.868857726885    -0.409915061890    12.000000000000
           H         -2.510520329221    -0.773689643573    -1.317799725275     1.007825032070
           H         -2.207409221463    -1.806792433987     0.066118843271     1.007825032070
           C         -0.431659819971    -0.985802597373    -0.799232599307    12.000000000000
           H         -0.112118883179    -0.085537552360    -1.326629473282     1.007825032070
           H         -0.340862729636    -1.804595830430    -1.517087480116     1.007825032070
           C          0.494650215372    -1.253686554020     0.397806575778    12.000000000000
           H         -0.076055890798    -1.807844729902     1.148528755157     1.007825032070
           H          1.307524414070    -1.919119230867     0.092364894451     1.007825032070
           C          1.120365711888    -0.006912668664     1.042446415852    12.000000000000
           H          0.452330346536     0.849147337165     0.924897820565     1.007825032070
           H          1.226788401868    -0.168224733851     2.117887200527     1.007825032070

  Running in c1 symmetry.

  Rotational constants: A =      0.09351  B =      0.03563  C =      0.03253 [cm^-1]
  Rotational constants: A =   2803.44959  B =   1068.14005  C =    975.35797 [MHz]
  Nuclear repulsion =  408.408632945216880

  Charge       = 0
  Multiplicity = 1
  Electrons    = 66
  Nalpha       = 33
  Nbeta        = 33

  ==> Algorithm <==

  SCF Algorithm Type is DF.
  DIIS enabled.
  MOM disabled.
  Fractional occupation disabled.
  Guess Type is SAD.
  Energy threshold   = 1.00e-10
  Density threshold  = 1.00e-10
  Integral threshold = 0.00e+00

  ==> Primary Basis <==

  Basis Set: AUG-CC-PVTZ
    Number of shells: 274
    Number of basis function: 782
    Number of Cartesian functions: 890
    Spherical Harmonics?: true
    Max angular momentum: 3

  ==> Pre-Iterations <==

   -------------------------------------------------------
    Irrep   Nso     Nmo     Nalpha   Nbeta   Ndocc  Nsocc
   -------------------------------------------------------
     A        782     782       0       0       0       0
   -------------------------------------------------------
    Total     782     782      33      33      33       0
   -------------------------------------------------------

  ==> Integral Setup <==

  ==> DFJK: Density-Fitted J/K Matrices <==

    J tasked:                  Yes
    K tasked:                  Yes
    wK tasked:                  No
    OpenMP threads:             12
    Integrals threads:          12
    Memory (MB):             21457
    Algorithm:                Core
    Integral Cache:           NONE
    Schwarz Cutoff:          1E-12
    Fitting Condition:       1E-12

   => Auxiliary Basis Set <=

  Basis Set: 
    Number of shells: 492
    Number of basis function: 1660
    Number of Cartesian functions: 2038
    Spherical Harmonics?: true
    Max angular momentum: 4

  Minimum eigenvalue in the overlap matrix is 1.6424717430E-06.
  Using Symmetric Orthogonalization.
  SCF Guess: Superposition of Atomic Densities via on-the-fly atomic UHF.

  ==> Iterations <==

                           Total Energy        Delta E     RMS |[F,P]|

   @DF-RHF iter   0:  -317.10870525403919   -3.17109e+02   7.07918e-03 
   @DF-RHF iter   1:  -313.30179302402263    3.80691e+00   6.86293e-04 
   @DF-RHF iter   2:  -313.49998777125830   -1.98195e-01   2.63933e-04 DIIS
   @DF-RHF iter   3:  -313.52674319488273   -2.67554e-02   1.06151e-04 DIIS
   @DF-RHF iter   4:  -313.53213476452487   -5.39157e-03   1.48303e-05 DIIS
   @DF-RHF iter   5:  -313.53228607106047   -1.51307e-04   4.35266e-06 DIIS
   @DF-RHF iter   6:  -313.53229644488607   -1.03738e-05   1.27560e-06 DIIS
   @DF-RHF iter   7:  -313.53229725618559   -8.11300e-07   2.43887e-07 DIIS
   @DF-RHF iter   8:  -313.53229729749290   -4.13073e-08   6.09511e-08 DIIS
   @DF-RHF iter   9:  -313.53229730002244   -2.52953e-09   1.85997e-08 DIIS
   @DF-RHF iter  10:  -313.53229730025072   -2.28283e-10   5.72193e-09 DIIS
   @DF-RHF iter  11:  -313.53229730027221   -2.14868e-11   1.21034e-09 DIIS
   @DF-RHF iter  12:  -313.53229730027323   -1.02318e-12   3.13771e-10 DIIS
   @DF-RHF iter  13:  -313.53229730027300    2.27374e-13   9.51832e-11 DIIS

  ==> Post-Iterations <==

    Orbital Energies (a.u.)
    -----------------------

    Doubly Occupied:                                                      

       1A    -11.213016     2A    -11.212176     3A    -11.210596  
       4A    -11.210442     5A    -11.209737     6A    -11.208907  
       7A    -11.207267     8A    -11.207161     9A     -1.093977  
      10A     -1.058193    11A     -1.003633    12A     -0.949208  
      13A     -0.890708    14A     -0.834940    15A     -0.778347  
      16A     -0.756531    17A     -0.647490    18A     -0.626955  
      19A     -0.609624    20A     -0.604228    21A     -0.572869  
      22A     -0.552018    23A     -0.544631    24A     -0.537592  
      25A     -0.515583    26A     -0.509926    27A     -0.487768  
      28A     -0.474024    29A     -0.463064    30A     -0.461392  
      31A     -0.444031    32A     -0.435566    33A     -0.431298  

    Virtual:                                                              

      34A      0.029226    35A      0.033347    36A      0.034186  
      37A      0.035288    38A      0.046614    39A      0.048350  
      40A      0.050286    41A      0.053688    42A      0.053864  
      43A      0.068934    44A      0.071520    45A      0.072340  
      46A      0.075470    47A      0.078340    48A      0.080691  
      49A      0.089423    50A      0.099069    51A      0.100168  
      52A      0.115359    53A      0.118661    54A      0.122656  
      55A      0.126536    56A      0.128933    57A      0.133864  
      58A      0.135125    59A      0.136826    60A      0.140000  
      61A      0.141712    62A      0.143060    63A      0.147951  
      64A      0.151164    65A      0.155411    66A      0.164144  
      67A      0.167045    68A      0.173465    69A      0.175338  
      70A      0.175689    71A      0.180294    72A      0.181657  
      73A      0.186257    74A      0.191154    75A      0.196418  
      76A      0.197740    77A      0.211212    78A      0.214062  
      79A      0.220408    80A      0.226991    81A      0.234622  
      82A      0.246578    83A      0.248249    84A      0.263543  
      85A      0.270176    86A      0.276081    87A      0.282303  
      88A      0.288851    89A      0.292923    90A      0.293161  
      91A      0.301889    92A      0.305274    93A      0.312825  
      94A      0.317537    95A      0.319155    96A      0.323728  
      97A      0.325425    98A      0.332359    99A      0.337255  
     100A      0.340566   101A      0.345280   102A      0.350510  
     103A      0.354022   104A      0.354510   105A      0.357723  
     106A      0.359730   107A      0.363162   108A      0.366309  
     109A      0.369462   110A      0.375538   111A      0.376872  
     112A      0.382155   113A      0.383711   114A      0.386510  
     115A      0.388889   116A      0.396172   117A      0.402414  
     118A      0.409615   119A      0.413268   120A      0.416193  
     121A      0.421236   122A      0.422329   123A      0.429251  
     124A      0.431824   125A      0.435288   126A      0.438803  
     127A      0.442970   128A      0.446507   129A      0.452309  
     130A      0.455680   131A      0.459721   132A      0.470070  
     133A      0.471797   134A      0.474741   135A      0.478267  
     136A      0.479009   137A      0.481353   138A      0.490937  
     139A      0.491949   140A      0.494137   141A      0.498064  
     142A      0.504571   143A      0.506375   144A      0.513838  
     145A      0.516130   146A      0.521965   147A      0.525601  
     148A      0.529587   149A      0.531446   150A      0.535510  
     151A      0.540728   152A      0.542394   153A      0.551196  
     154A      0.555831   155A      0.560851   156A      0.568574  
     157A      0.571242   158A      0.574420   159A      0.577182  
     160A      0.581978   161A      0.583219   162A      0.587784  
     163A      0.593771   164A      0.603932   165A      0.606142  
     166A      0.608533   167A      0.620334   168A      0.623674  
     169A      0.629649   170A      0.632552   171A      0.635473  
     172A      0.637380   173A      0.641879   174A      0.651498  
     175A      0.654931   176A      0.659064   177A      0.666329  
     178A      0.667669   179A      0.670150   180A      0.675274  
     181A      0.678767   182A      0.682960   183A      0.689169  
     184A      0.696096   185A      0.700611   186A      0.709226  
     187A      0.711108   188A      0.715127   189A      0.721654  
     190A      0.727831   191A      0.728518   192A      0.742931  
     193A      0.753694   194A      0.755101   195A      0.757106  
     196A      0.763835   197A      0.768926   198A      0.773176  
     199A      0.776114   200A      0.784649   201A      0.794545  
     202A      0.798258   203A      0.822833   204A      0.823879  
     205A      0.835118   206A      0.840790   207A      0.847754  
     208A      0.849764   209A      0.862585   210A      0.863357  
     211A      0.873023   212A      0.884181   213A      0.884399  
     214A      0.886966   215A      0.890307   216A      0.894032  
     217A      0.907075   218A      0.912633   219A      0.915353  
     220A      0.924037   221A      0.926519   222A      0.931546  
     223A      0.935050   224A      0.941679   225A      0.945506  
     226A      0.952712   227A      0.959218   228A      0.964951  
     229A      0.965946   230A      0.973912   231A      0.978271  
     232A      0.982335   233A      0.990960   234A      0.995219  
     235A      1.001047   236A      1.008265   237A      1.010307  
     238A      1.011519   239A      1.017225   240A      1.019250  
     241A      1.024792   242A      1.033358   243A      1.039062  
     244A      1.041341   245A      1.045496   246A      1.046578  
     247A      1.059046   248A      1.068863   249A      1.072036  
     250A      1.080153   251A      1.092601   252A      1.093635  
     253A      1.100436   254A      1.108005   255A      1.109876  
     256A      1.116779   257A      1.120895   258A      1.125373  
     259A      1.132798   260A      1.137219   261A      1.143669  
     262A      1.151387   263A      1.153563   264A      1.155515  
     265A      1.159738   266A      1.164024   267A      1.168730  
     268A      1.180774   269A      1.187293   270A      1.190209  
     271A      1.198133   272A      1.201815   273A      1.203304  
     274A      1.205791   275A      1.213657   276A      1.220426  
     277A      1.224256   278A      1.227926   279A      1.230178  
     280A      1.237725   281A      1.240505   282A      1.246254  
     283A      1.249964   284A      1.257111   285A      1.260184  
     286A      1.271944   287A      1.274463   288A      1.279591  
     289A      1.288218   290A      1.290628   291A      1.298357  
     292A      1.301521   293A      1.310997   294A      1.313672  
     295A      1.328291   296A      1.333263   297A      1.339056  
     298A      1.341478   299A      1.349201   300A      1.355758  
     301A      1.360676   302A      1.370425   303A      1.378570  
     304A      1.379307   305A      1.385687   306A      1.391296  
     307A      1.400014   308A      1.407289   309A      1.414418  
     310A      1.420007   311A      1.426965   312A      1.431621  
     313A      1.441498   314A      1.446538   315A      1.458580  
     316A      1.471662   317A      1.478871   318A      1.486857  
     319A      1.495725   320A      1.500188   321A      1.503506  
     322A      1.509807   323A      1.515842   324A      1.527670  
     325A      1.529718   326A      1.531031   327A      1.541114  
     328A      1.551763   329A      1.558198   330A      1.567015  
     331A      1.575578   332A      1.579168   333A      1.584419  
     334A      1.588009   335A      1.601624   336A      1.604675  
     337A      1.620427   338A      1.621323   339A      1.628905  
     340A      1.632405   341A      1.642841   342A      1.648054  
     343A      1.656209   344A      1.660844   345A      1.662481  
     346A      1.664158   347A      1.685233   348A      1.689566  
     349A      1.693648   350A      1.698838   351A      1.708816  
     352A      1.712374   353A      1.714321   354A      1.720979  
     355A      1.733956   356A      1.739854   357A      1.740733  
     358A      1.752427   359A      1.756854   360A      1.764267  
     361A      1.767205   362A      1.774960   363A      1.785843  
     364A      1.791441   365A      1.799094   366A      1.801796  
     367A      1.806471   368A      1.817314   369A      1.824773  
     370A      1.827921   371A      1.834693   372A      1.843346  
     373A      1.844504   374A      1.849119   375A      1.854198  
     376A      1.863657   377A      1.869680   378A      1.875266  
     379A      1.886032   380A      1.893485   381A      1.897614  
     382A      1.902219   383A      1.909222   384A      1.915412  
     385A      1.926903   386A      1.931253   387A      1.936143  
     388A      1.945764   389A      1.951316   390A      1.962772  
     391A      1.964750   392A      1.979422   393A      1.980452  
     394A      1.990943   395A      1.994307   396A      2.002203  
     397A      2.011885   398A      2.016824   399A      2.022754  
     400A      2.032772   401A      2.040774   402A      2.052040  
     403A      2.055016   404A      2.058429   405A      2.067591  
     406A      2.072124   407A      2.077562   408A      2.081700  
     409A      2.092032   410A      2.094070   411A      2.098441  
     412A      2.107264   413A      2.115639   414A      2.131047  
     415A      2.137467   416A      2.140409   417A      2.147864  
     418A      2.154290   419A      2.155801   420A      2.158821  
     421A      2.172270   422A      2.186005   423A      2.200413  
     424A      2.202478   425A      2.209466   426A      2.219404  
     427A      2.230098   428A      2.236927   429A      2.251778  
     430A      2.256962   431A      2.260327   432A      2.269593  
     433A      2.276728   434A      2.290535   435A      2.301164  
     436A      2.304133   437A      2.313652   438A      2.320220  
     439A      2.332409   440A      2.340777   441A      2.343568  
     442A      2.350324   443A      2.374550   444A      2.381678  
     445A      2.385558   446A      2.389678   447A      2.404195  
     448A      2.407802   449A      2.418310   450A      2.427818  
     451A      2.440620   452A      2.446169   453A      2.450353  
     454A      2.454331   455A      2.472623   456A      2.483029  
     457A      2.496267   458A      2.504503   459A      2.518135  
     460A      2.524192   461A      2.535256   462A      2.546266  
     463A      2.553139   464A      2.556734   465A      2.582617  
     466A      2.587425   467A      2.605011   468A      2.618857  
     469A      2.625101   470A      2.631254   471A      2.638945  
     472A      2.664905   473A      2.672365   474A      2.677324  
     475A      2.679415   476A      2.682416   477A      2.713233  
     478A      2.726088   479A      2.735907   480A      2.744513  
     481A      2.776514   482A      2.797861   483A      2.828166  
     484A      2.868946   485A      2.940039   486A      2.960983  
     487A      3.043696   488A      3.076004   489A      3.120811  
     490A      3.186515   491A      3.232987   492A      3.272979  
     493A      3.294782   494A      3.343575   495A      3.402654  
     496A      3.425069   497A      3.450011   498A      3.453856  
     499A      3.464053   500A      3.482029   501A      3.494173  
     502A      3.515967   503A      3.537087   504A      3.544954  
     505A      3.560749   506A      3.573226   507A      3.580366  
     508A      3.597809   509A      3.611859   510A      3.630432  
     511A      3.636915   512A      3.648096   513A      3.658697  
     514A      3.669266   515A      3.680319   516A      3.695390  
     517A      3.702582   518A      3.709103   519A      3.723397  
     520A      3.732284   521A      3.735914   522A      3.748841  
     523A      3.751376   524A      3.766822   525A      3.772501  
     526A      3.775580   527A      3.790664   528A      3.794181  
     529A      3.807148   530A      3.815290   531A      3.819264  
     532A      3.827153   533A      3.839392   534A      3.844696  
     535A      3.857624   536A      3.860383   537A      3.870572  
     538A      3.873696   539A      3.880880   540A      3.886409  
     541A      3.897938   542A      3.907999   543A      3.922039  
     544A      3.931321   545A      3.942826   546A      3.947562  
     547A      3.949862   548A      3.963040   549A      3.970359  
     550A      3.980800   551A      3.987104   552A      3.994757  
     553A      4.000229   554A      4.008541   555A      4.017771  
     556A      4.025466   557A      4.028922   558A      4.036666  
     559A      4.040675   560A      4.048339   561A      4.050787  
     562A      4.056512   563A      4.066351   564A      4.073953  
     565A      4.080763   566A      4.088164   567A      4.094234  
     568A      4.100264   569A      4.113331   570A      4.119228  
     571A      4.127449   572A      4.132480   573A      4.145234  
     574A      4.148567   575A      4.167186   576A      4.176516  
     577A      4.185095   578A      4.194723   579A      4.200350  
     580A      4.206307   581A      4.207180   582A      4.217607  
     583A      4.226594   584A      4.241436   585A      4.242297  
     586A      4.259421   587A      4.268985   588A      4.277607  
     589A      4.287585   590A      4.297207   591A      4.306363  
     592A      4.308240   593A      4.318498   594A      4.327141  
     595A      4.335092   596A      4.342713   597A      4.347093  
     598A      4.367797   599A      4.369215   600A      4.388079  
     601A      4.398355   602A      4.412944   603A      4.426107  
     604A      4.444460   605A      4.458458   606A      4.459729  
     607A      4.465296   608A      4.473420   609A      4.488799  
     610A      4.503702   611A      4.516131   612A      4.527321  
     613A      4.545606   614A      4.568602   615A      4.574821  
     616A      4.582441   617A      4.594943   618A      4.600266  
     619A      4.624394   620A      4.647944   621A      4.652400  
     622A      4.667720   623A      4.670391   624A      4.676124  
     625A      4.699326   626A      4.705115   627A      4.719346  
     628A      4.726736   629A      4.738211   630A      4.755418  
     631A      4.769556   632A      4.783655   633A      4.789731  
     634A      4.799928   635A      4.803163   636A      4.816315  
     637A      4.823901   638A      4.825131   639A      4.844523  
     640A      4.855733   641A      4.870306   642A      4.883468  
     643A      4.899519   644A      4.910128   645A      4.916857  
     646A      4.925308   647A      4.957523   648A      4.958636  
     649A      4.968155   650A      4.972233   651A      4.980778  
     652A      4.985586   653A      4.995374   654A      4.999443  
     655A      5.008891   656A      5.025294   657A      5.029402  
     658A      5.042838   659A      5.050416   660A      5.083849  
     661A      5.089351   662A      5.108298   663A      5.132003  
     664A      5.133307   665A      5.147942   666A      5.156228  
     667A      5.177354   668A      5.191759   669A      5.194080  
     670A      5.200050   671A      5.215819   672A      5.222894  
     673A      5.238568   674A      5.247990   675A      5.255710  
     676A      5.273178   677A      5.281671   678A      5.293600  
     679A      5.309079   680A      5.320768   681A      5.328767  
     682A      5.336701   683A      5.349666   684A      5.357178  
     685A      5.378017   686A      5.382939   687A      5.387959  
     688A      5.394051   689A      5.406559   690A      5.414548  
     691A      5.430871   692A      5.434244   693A      5.446022  
     694A      5.452260   695A      5.463275   696A      5.478201  
     697A      5.497300   698A      5.513956   699A      5.524572  
     700A      5.532285   701A      5.537494   702A      5.548488  
     703A      5.558133   704A      5.588516   705A      5.592063  
     706A      5.601518   707A      5.611068   708A      5.623069  
     709A      5.640374   710A      5.656749   711A      5.666595  
     712A      5.671072   713A      5.678940   714A      5.694643  
     715A      5.708035   716A      5.717965   717A      5.729572  
     718A      5.732207   719A      5.737854   720A      5.758499  
     721A      5.766735   722A      5.781839   723A      5.798219  
     724A      5.803228   725A      5.829606   726A      5.835416  
     727A      5.852687   728A      5.867744   729A      5.887935  
     730A      5.899227   731A      5.912901   732A      5.985010  
     733A      5.998672   734A      6.020654   735A      6.041768  
     736A      6.068351   737A      6.082286   738A      6.089125  
     739A      6.110731   740A      6.124517   741A      6.148798  
     742A      6.180778   743A      6.189706   744A      6.210943  
     745A      6.226159   746A      6.257684   747A      6.266022  
     748A      6.293052   749A      6.318302   750A      6.331663  
     751A      6.354478   752A      6.367948   753A      6.393212  
     754A      6.401127   755A      6.418816   756A      6.423050  
     757A      6.433784   758A      6.490474   759A      6.599521  
     760A      6.638154   761A      6.696771   762A      6.741344  
     763A      6.753999   764A      6.790618   765A      6.839800  
     766A      6.911089   767A      6.942315   768A      6.977275  
     769A      6.987490   770A      7.009468   771A      7.071847  
     772A      7.104895   773A      7.128431   774A      7.173923  
     775A     18.068671   776A     18.106253   777A     18.437628  
     778A     18.903713   779A     19.237061   780A     19.465789  
     781A     19.680865   782A     19.846500  

    Final Occupation by Irrep:
              A 
    DOCC [    33 ]

  Energy converged.

  @DF-RHF Final Energy:  -313.53229730027300

   => Energetics <=

    Nuclear Repulsion Energy =            408.4086329452168798
    One-Electron Energy =               -1231.9560656089963686
    Two-Electron Energy =                 510.0151353635065448
    DFT Exchange-Correlation Energy =       0.0000000000000000
    Empirical Dispersion Energy =           0.0000000000000000
    PCM Polarization Energy =               0.0000000000000000
    EFP Energy =                            0.0000000000000000
    Total Energy =                       -313.5322973002730009


  Saving occupied orbitals to File 180.

*** tstop() called on wr39 at Wed Sep 21 13:14:04 2016
Module time:
	user time   =    1065.76 seconds =      17.76 minutes
	system time =      12.29 seconds =       0.20 minutes
	total time  =        104 seconds =       1.73 minutes
Total time:
	user time   =    1065.76 seconds =      17.76 minutes
	system time =      12.29 seconds =       0.20 minutes
	total time  =        104 seconds =       1.73 minutes


Properties will be evaluated at   0.000000,   0.000000,   0.000000 Bohr

Properties computed using the SCF density matrix

  Nuclear Dipole Moment: (a.u.)
     X:     0.3267      Y:     1.7612      Z:    -0.9034

  Electronic Dipole Moment: (a.u.)
     X:    -0.3293      Y:    -1.7824      Z:     0.9338

  Dipole Moment: (a.u.)
     X:    -0.0027      Y:    -0.0212      Z:     0.0304     Total:     0.0371

  Dipole Moment: (Debye)
     X:    -0.0067      Y:    -0.0538      Z:     0.0773     Total:     0.0944


  //>>>>>>>>>>>>>>>>>>>>>>>>>>>>>>>>>>>//
  //               DFMP2               //
  //<<<<<<<<<<<<<<<<<<<<<<<<<<<<<<<<<<<//


*** tstart() called on wr39
*** at Wed Sep 21 13:14:05 2016


*** tstop() called on wr39 at Wed Sep 21 13:14:05 2016
Module time:
	user time   =       4.25 seconds =       0.07 minutes
	system time =       0.08 seconds =       0.00 minutes
	total time  =          0 seconds =       0.00 minutes
Total time:
	user time   =    1070.16 seconds =      17.84 minutes
	system time =      12.37 seconds =       0.21 minutes
	total time  =        105 seconds =       1.75 minutes
	 --------------------------------------------------------
	                          DF-MP2                         
	      2nd-Order Density-Fitted Moller-Plesset Theory     
	              RMP2 Wavefunction,  12 Threads             
	                                                         
	        Rob Parrish, Justin Turney, Andy Simmonett,      
	           Ed Hohenstein, and C. David Sherrill          
	 --------------------------------------------------------

   => Auxiliary Basis Set <=

  Basis Set: 
    Number of shells: 476
    Number of basis function: 1676
    Number of Cartesian functions: 2078
    Spherical Harmonics?: true
    Max angular momentum: 4

	 --------------------------------------------------------
	                 NBF =   782, NAUX =  1676
	 --------------------------------------------------------
	   CLASS    FOCC     OCC    AOCC    AVIR     VIR    FVIR
	   PAIRS       8      33      25     749     749       0
	 --------------------------------------------------------

DGAS Warning! /src/lib/libfock/apps.cc:80 is not currently checking restricted

         ------------------------------------------------------------
                                     CPHF                           
                                  Rob Parrish                       
         ------------------------------------------------------------

  ==> Geometry <==

    Molecular point group: c1
    Full point group: C1

    Geometry (in Angstrom), charge = 0, multiplicity = 1:

       Center              X                  Y                   Z               Mass       
    ------------   -----------------  -----------------  -----------------  -----------------
           C         -2.053296943730     1.658218373441    -0.132295243561    12.000000000000
           H         -1.020597101515     1.819811020546    -0.440965375432     1.007825032070
           H         -2.324930955191     2.465137912137     0.548199149062     1.007825032070
           H         -2.679254255929     1.744811713701    -1.021973877909     1.007825032070
           C          2.495899933790     0.656162937023    -1.016634860465    12.000000000000
           H          3.491067414173     0.946041250961    -1.353837377129     1.007825032070
           H          1.813355286962     1.476207156007    -1.246706411623     1.007825032070
           H          2.187555363853    -0.209553317696    -1.602465774714     1.007825032070
           C         -2.243443731071     0.293969023757     0.521921919638    12.000000000000
           H         -3.284360381950     0.196731805405     0.838962856209     1.007825032070
           H         -1.642169857335     0.226200208068     1.431716403518     1.007825032070
           C          2.494898212837     0.349128797320     0.476836808095    12.000000000000
           H          3.179042825913    -0.481010323550     0.674395261384     1.007825032070
           H          2.889054352589     1.210943768049     1.020727584692     1.007825032070
           C         -1.906677357826    -0.868857726885    -0.409915061890    12.000000000000
           H         -2.510520329221    -0.773689643573    -1.317799725275     1.007825032070
           H         -2.207409221463    -1.806792433987     0.066118843271     1.007825032070
           C         -0.431659819971    -0.985802597373    -0.799232599307    12.000000000000
           H         -0.112118883179    -0.085537552360    -1.326629473282     1.007825032070
           H         -0.340862729636    -1.804595830430    -1.517087480116     1.007825032070
           C          0.494650215372    -1.253686554020     0.397806575778    12.000000000000
           H         -0.076055890798    -1.807844729902     1.148528755157     1.007825032070
           H          1.307524414070    -1.919119230867     0.092364894451     1.007825032070
           C          1.120365711888    -0.006912668664     1.042446415852    12.000000000000
           H          0.452330346536     0.849147337165     0.924897820565     1.007825032070
           H          1.226788401868    -0.168224733851     2.117887200527     1.007825032070

  Nuclear repulsion =  408.408632945216880
  Reference energy  = -313.532297300273001

  ==> Basis Set <==

  Basis Set: AUG-CC-PVTZ
    Number of shells: 274
    Number of basis function: 782
    Number of Cartesian functions: 890
    Spherical Harmonics?: true
    Max angular momentum: 3

  ==> CGRSolver (by Rob Parrish) <==

   Number of roots    =         1
   Preconditioning    =    JACOBI
   Convergence cutoff =     1E-06
   Maximum iterations =       100

  ==> CPHFRHamiltonian (by Rob Parrish) <== 

  ==> DFJK: Density-Fitted J/K Matrices <==

    J tasked:                  Yes
    K tasked:                  Yes
    wK tasked:                  No
    OpenMP threads:             12
    Integrals threads:          12
    Memory (MB):             21457
    Algorithm:                Core
    Integral Cache:           NONE
    Schwarz Cutoff:          1E-12
    Fitting Condition:       1E-12

   => Auxiliary Basis Set <=

  Basis Set: 
    Number of shells: 492
    Number of basis function: 1660
    Number of Cartesian functions: 2038
    Spherical Harmonics?: true
    Max angular momentum: 4

  ==> CPHF Iterations <==

  => Iterations <=

             Iter  Converged  Remaining    Residual
  CGR           1          0          1   9.500E-02
  CGR           2          0          1   1.382E-02
  CGR           3          0          1   3.998E-03
  CGR           4          0          1   8.672E-04
  CGR           5          0          1   2.305E-04
  CGR           6          0          1   4.875E-05
  CGR           7          0          1   1.325E-05
  CGR           8          0          1   3.695E-06
  CGR           9          1          0   9.320E-07

    CGRSolver converged.

  ==> DFCorrGrad: Density-Fitted Correlated Gradients <==

    OpenMP threads:             12
    Integrals threads:          12
    Memory (MB):             21457
    Schwarz Cutoff:          0E+00
    Fitting Condition:       1E-12

   => Auxiliary Basis Set <=

  Basis Set: 
    Number of shells: 492
    Number of basis function: 1660
    Number of Cartesian functions: 2038
    Spherical Harmonics?: true
    Max angular momentum: 4

	-----------------------------------------------------------
	 ==================> DF-MP2 Energies <==================== 
	-----------------------------------------------------------
	 Reference Energy          =    -313.5322973002730009 [Eh]
	 Singles Energy            =      -0.0000000000000004 [Eh]
	 Same-Spin Energy          =      -0.3179282070517668 [Eh]
	 Opposite-Spin Energy      =      -1.1279881706898423 [Eh]
	 Correlation Energy        =      -1.4459163777416095 [Eh]
	 Total Energy              =    -314.9782136780145834 [Eh]
	-----------------------------------------------------------
	 ================> DF-SCS-MP2 Energies <================== 
	-----------------------------------------------------------
	 SCS Same-Spin Scale       =       0.3333333333333333 [-]
	 SCS Opposite-Spin Scale   =       1.2000000000000000 [-]
	 SCS Same-Spin Energy      =      -0.1059760690172556 [Eh]
	 SCS Opposite-Spin Energy  =      -1.3535858048278107 [Eh]
	 SCS Correlation Energy    =      -1.4595618738450666 [Eh]
	 SCS Total Energy          =    -314.9918591741180762 [Eh]
	-----------------------------------------------------------


  -Total Gradient:
     Atom            X                  Y                   Z
    ------   -----------------  -----------------  -----------------
       1        0.000000002719    -0.000001106012     0.000000380786
       2        0.000001012860     0.000000232593    -0.000000335634
       3       -0.000000292788     0.000000594257     0.000000584959
       4       -0.000000541567     0.000000108899    -0.000000724111
       5        0.000000091797    -0.000000091309     0.000000720400
       6        0.000000480910     0.000000089761     0.000000045383
       7       -0.000000528297     0.000000603699    -0.000000248786
       8       -0.000000257653    -0.000000555541    -0.000000593664
       9        0.000000011686     0.000001005816    -0.000000971646
      10       -0.000000658546    -0.000000052203    -0.000000065298
      11        0.000000762770    -0.000000017105     0.000001269736
      12       -0.000000727818     0.000000453075    -0.000000690732
      13        0.000000555824    -0.000000745070     0.000000199832
      14        0.000000202943     0.000000690926     0.000000409215
      15        0.000000453982     0.000000559610     0.000000117911
      16       -0.000000840028     0.000000201046    -0.000001053158
      17       -0.000000345445    -0.000001047436     0.000000517345
      18       -0.000000881911    -0.000001259985     0.000001768657
      19        0.000000656691     0.000001527529    -0.000001396214
      20       -0.000000203548    -0.000000839830    -0.000000312491
      21       -0.000000082043     0.000001300407    -0.000000302738
      22       -0.000000877857    -0.000000630390     0.000000784105
      23        0.000001457920    -0.000000638432    -0.000000231219
      24        0.000001235778    -0.000001437583    -0.000000752065
      25       -0.000001041718     0.000001649587    -0.000000025271
      26        0.000000353339    -0.000000596308     0.000000904698


			-----------------------------------------
			 OPTKING 2.0: for geometry optimizations 
			  - R.A. King,  Bethel University        
			-----------------------------------------

	Internal coordinates to be generated automatically.
	Detected frag 1 with atoms:  1 2 3 4 5 6 7 8 9 10 11 12 13 14 15 16 17 18 19 20
	 21 22 23 24 25 26
	---Fragment 1 Bond Connectivity---
	 1 : 2 3 4 9
	 2 : 1
	 3 : 1
	 4 : 1
	 5 : 6 7 8 12
	 6 : 5
	 7 : 5
	 8 : 5
	 9 : 1 10 11 15
	 10 : 9
	 11 : 9
	 12 : 5 13 14 24
	 13 : 12
	 14 : 12
	 15 : 9 16 17 18
	 16 : 15
	 17 : 15
	 18 : 15 19 20 21
	 19 : 18
	 20 : 18
	 21 : 18 22 23 24
	 22 : 21
	 23 : 21
	 24 : 12 21 25 26
	 25 : 24
	 26 : 24

	---Fragment 1 Geometry and Gradient---
	 C          -3.8801688931        3.1335785943       -0.2500017790
	 H          -1.9286490139        3.4389444424       -0.8333037937
	 H          -4.3934827832        4.6584355337        1.0359462580
	 H          -5.0630567841        3.2972162923       -1.9312507442
	 C           4.7165673300        1.2399682495       -1.9211614634
	 H           6.5971613242        1.7877588747       -2.5583818712
	 H           3.4267448740        2.7896272403       -2.3559336861
	 H           4.1338805382       -0.3959983807       -3.0282214515
	 C          -4.2394942463        0.5555209465        0.9862894909
	 H          -6.2065416436        0.3717692338        1.5854100339
	 H          -3.1032512940        0.4274564445        2.7055519026
	 C           4.7146743517        0.6597578120        0.9010909774
	 H           6.0075203057       -0.9089777786        1.2744223493
	 H           5.4595215094        2.2883520839        1.9288955913
	 C          -3.6030980301       -1.6419031523       -0.7746272047
	 H          -4.7441958733       -1.4620615382       -2.4902805788
	 H          -4.1713988918       -3.4143428792        0.1249465060
	 C          -0.8157188423       -1.8628969301       -1.5103307292
	 H          -0.2118739835       -0.1616425480       -2.5069663843
	 H          -0.6441372079       -3.4101919001       -2.8668798570
	 C           0.9347534386       -2.3691242436        0.7517454821
	 H          -0.1437248044       -3.4163314303        2.1704048030
	 H           2.4708630547       -3.6266097627        0.1745443548
	 C           2.1171843641       -0.0130630506        1.9699382342
	 H           0.8547804765        1.6046559137        1.7478035818
	 H           2.3182941025       -0.3178986758        4.0022267893
	             0.0000000027       -0.0000011060        0.0000003808
	             0.0000010129        0.0000002326       -0.0000003356
	            -0.0000002928        0.0000005943        0.0000005850
	            -0.0000005416        0.0000001089       -0.0000007241
	             0.0000000918       -0.0000000913        0.0000007204
	             0.0000004809        0.0000000898        0.0000000454
	            -0.0000005283        0.0000006037       -0.0000002488
	            -0.0000002577       -0.0000005555       -0.0000005937
	             0.0000000117        0.0000010058       -0.0000009716
	            -0.0000006585       -0.0000000522       -0.0000000653
	             0.0000007628       -0.0000000171        0.0000012697
	            -0.0000007278        0.0000004531       -0.0000006907
	             0.0000005558       -0.0000007451        0.0000001998
	             0.0000002029        0.0000006909        0.0000004092
	             0.0000004540        0.0000005596        0.0000001179
	            -0.0000008400        0.0000002010       -0.0000010532
	            -0.0000003454       -0.0000010474        0.0000005173
	            -0.0000008819       -0.0000012600        0.0000017687
	             0.0000006567        0.0000015275       -0.0000013962
	            -0.0000002035       -0.0000008398       -0.0000003125
	            -0.0000000820        0.0000013004       -0.0000003027
	            -0.0000008779       -0.0000006304        0.0000007841
	             0.0000014579       -0.0000006384       -0.0000002312
	             0.0000012358       -0.0000014376       -0.0000007521
	            -0.0000010417        0.0000016496       -0.0000000253
	             0.0000003533       -0.0000005963        0.0000009047

	Previous optimization step data not found.  Starting new optimization.

	---Fragment 1 Intrafragment Coordinates---
	 - Coordinate -           - BOHR/RAD -       - ANG/DEG -
	 R(1,2)           =         2.059592	       1.089889
	 R(1,3)           =         2.059695	       1.089943
	 R(1,4)           =         2.062183	       1.091260
	 R(1,9)           =         2.881651	       1.524904
	 R(5,6)           =         2.059796	       1.089997
	 R(5,7)           =         2.062550	       1.091454
	 R(5,8)           =         2.059488	       1.089834
	 R(5,12)          =         2.881277	       1.524706
	 R(9,10)          =         2.064458	       1.092464
	 R(9,11)          =         2.064779	       1.092634
	 R(9,15)          =         2.886953	       1.527710
	 R(12,13)         =         2.066823	       1.093716
	 R(12,14)         =         2.064824	       1.092658
	 R(12,24)         =         2.888265	       1.528404
	 R(15,16)         =         2.068312	       1.094503
	 R(15,17)         =         2.067303	       1.093970
	 R(15,18)         =         2.891294	       1.530007
	 R(18,19)         =         2.062081	       1.091206
	 R(18,20)         =         2.064894	       1.092695
	 R(18,21)         =         2.904722	       1.537113
	 R(21,22)         =         2.066967	       1.093792
	 R(21,23)         =         2.067381	       1.094011
	 R(21,24)         =         2.903990	       1.536726
	 R(24,25)         =         2.063982	       1.092212
	 R(24,26)         =         2.064841	       1.092667
	 B(1,9,10)        =         1.899637	     108.841173
	 B(1,9,11)        =         1.922077	     110.126872
	 B(1,9,15)        =         1.973377	     113.066152
	 B(2,1,3)         =         1.878842	     107.649693
	 B(2,1,4)         =         1.876379	     107.508621
	 B(2,1,9)         =         1.952283	     111.857561
	 B(3,1,4)         =         1.883159	     107.897089
	 B(3,1,9)         =         1.942715	     111.309360
	 B(4,1,9)         =         1.927553	     110.440666
	 B(5,12,13)       =         1.906425	     109.230101
	 B(5,12,14)       =         1.905517	     109.178080
	 B(5,12,24)       =         1.993234	     114.203896
	 B(6,5,7)         =         1.881705	     107.813775
	 B(6,5,8)         =         1.878922	     107.654310
	 B(6,5,12)        =         1.936040	     110.926944
	 B(7,5,8)         =         1.882399	     107.853518
	 B(7,5,12)        =         1.936238	     110.938285
	 B(8,5,12)        =         1.945914	     111.492658
	 B(9,15,16)       =         1.894579	     108.551407
	 B(9,15,17)       =         1.903473	     109.060978
	 B(9,15,18)       =         2.010754	     115.207695
	 B(10,9,11)       =         1.851641	     106.091205
	 B(10,9,15)       =         1.895790	     108.620765
	 B(11,9,15)       =         1.917045	     109.838573
	 B(12,24,21)      =         1.982248	     113.574449
	 B(12,24,25)      =         1.904610	     109.126093
	 B(12,24,26)      =         1.887073	     108.121337
	 B(13,12,14)      =         1.857817	     106.445091
	 B(13,12,24)      =         1.895358	     108.595987
	 B(14,12,24)      =         1.900691	     108.901557
	 B(15,18,19)      =         1.920086	     110.012827
	 B(15,18,20)      =         1.880261	     107.731037
	 B(15,18,21)      =         1.978098	     113.336660
	 B(16,15,17)      =         1.858587	     106.489207
	 B(16,15,18)      =         1.904404	     109.114288
	 B(17,15,18)      =         1.886212	     108.071990
	 B(18,21,22)      =         1.884267	     107.960543
	 B(18,21,23)      =         1.913831	     109.654452
	 B(18,21,24)      =         2.016022	     115.509569
	 B(19,18,20)      =         1.850804	     106.043266
	 B(19,18,21)      =         1.921649	     110.102349
	 B(20,18,21)      =         1.908101	     109.326108
	 B(21,24,25)      =         1.919532	     109.981097
	 B(21,24,26)      =         1.910023	     109.436229
	 B(22,21,23)      =         1.845380	     105.732492
	 B(22,21,24)      =         1.913018	     109.607880
	 B(23,21,24)      =         1.883954	     107.942614
	 B(25,24,26)      =         1.855852	     106.332473
	 D(1,9,15,16)     =        -0.974942	     -55.860058
	 D(1,9,15,17)     =        -2.993238	    -171.499892
	 D(1,9,15,18)     =         1.165970	      66.805133
	 D(2,1,9,10)      =         3.111085	     178.252057
	 D(2,1,9,11)      =         1.088072	      62.341953
	 D(2,1,9,15)      =        -1.063786	     -60.950440
	 D(3,1,9,10)      =         1.008441	      57.779421
	 D(3,1,9,11)      =        -1.014572	     -58.130683
	 D(3,1,9,15)      =         3.116755	     178.576924
	 D(4,1,9,10)      =        -1.082963	     -62.049202
	 D(4,1,9,11)      =        -3.105976	    -177.959306
	 D(4,1,9,15)      =         1.025351	      58.748300
	 D(5,12,24,21)    =         1.056516	      60.533927
	 D(5,12,24,25)    =        -1.091783	     -62.554540
	 D(5,12,24,26)    =        -3.103382	    -177.810680
	 D(6,5,12,13)     =        -1.060177	     -60.743684
	 D(6,5,12,14)     =         0.964846	      55.281581
	 D(6,5,12,24)     =         3.097044	     177.447543
	 D(7,5,12,13)     =         3.132069	     179.454312
	 D(7,5,12,14)     =        -1.126094	     -64.520423
	 D(7,5,12,24)     =         1.006104	      57.645539
	 D(8,5,12,13)     =         1.033677	      59.225310
	 D(8,5,12,14)     =         3.058700	     175.250576
	 D(8,5,12,24)     =        -1.092287	     -62.583462
	 D(9,15,18,19)    =        -1.061667	     -60.829022
	 D(9,15,18,20)    =        -3.071699	    -175.995399
	 D(9,15,18,21)    =         1.098108	      62.916934
	 D(10,9,15,16)    =         1.135555	      65.062518
	 D(10,9,15,17)    =        -0.882741	     -50.577316
	 D(10,9,15,18)    =        -3.006719	    -172.272291
	 D(11,9,15,16)    =        -3.129578	    -179.311610
	 D(11,9,15,17)    =         1.135311	      65.048556
	 D(11,9,15,18)    =        -0.988667	     -56.646419
	 D(12,24,21,18)   =        -1.620300	     -92.836324
	 D(12,24,21,22)   =         2.530310	     144.976070
	 D(12,24,21,23)   =         0.528373	      30.273563
	 D(13,12,24,21)   =        -1.075520	     -61.622781
	 D(13,12,24,25)   =         3.059366	     175.288751
	 D(13,12,24,26)   =         1.047767	      60.032611
	 D(14,12,24,21)   =        -3.091830	    -177.148814
	 D(14,12,24,25)   =         1.043056	      59.762718
	 D(14,12,24,26)   =        -0.968543	     -55.493422
	 D(15,18,21,22)   =         0.512829	      29.382942
	 D(15,18,21,23)   =         2.515358	     144.119423
	 D(15,18,21,24)   =        -1.635024	     -93.679962
	 D(16,15,18,19)   =         1.073988	      61.534988
	 D(16,15,18,20)   =        -0.936044	     -53.631389
	 D(16,15,18,21)   =        -3.049423	    -174.719056
	 D(17,15,18,19)   =         3.088248	     176.943580
	 D(17,15,18,20)   =         1.078216	      61.777204
	 D(17,15,18,21)   =        -1.035163	     -59.310463
	 D(18,21,24,25)   =         0.519792	      29.781891
	 D(18,21,24,26)   =         2.552439	     146.243988
	 D(19,18,21,22)   =         2.671749	     153.079929
	 D(19,18,21,23)   =        -1.608907	     -92.183591
	 D(19,18,21,24)   =         0.523896	      30.017025
	 D(20,18,21,22)   =        -1.584795	     -90.802053
	 D(20,18,21,23)   =         0.417735	      23.934427
	 D(20,18,21,24)   =         2.550538	     146.135043
	 D(22,21,24,25)   =        -1.612784	     -92.405714
	 D(22,21,24,26)   =         0.419863	      24.056382
	 D(23,21,24,25)   =         2.668465	     152.891778
	 D(23,21,24,26)   =        -1.582073	     -90.646125
	 R(1,24)          =         7.127253	       3.771580
	 R(5,18)          =         6.356315	       3.363617
	 R(9,24)          =         6.457416	       3.417117

	Current energy   :      -314.9782136780

	Generating empirical Hessian (Schlegel '84) for each fragment.
	Taking RFO optimization step.
	Going to follow RFO solution 1.
	Using RFO vector 1.
	Norm of target step-size    0.00134
	Projected energy change by RFO approximation:        -0.0000000103

	Back-transformation to cartesian coordinates...
	Successfully converged to displaced geometry.

	--- Internal Coordinate Step in ANG or DEG, aJ/ANG or AJ/DEG ---
	 ---------------------------------------------------------------------------
	   Coordinate                Previous        Force       Change         New 
	   ----------                --------       ------       ------       ------
	    1 R(1,2)          =      1.089889    -0.000009    -0.000002     1.089888
	    2 R(1,3)          =      1.089943    -0.000007    -0.000001     1.089942
	    3 R(1,4)          =      1.091260    -0.000008    -0.000001     1.091259
	    4 R(1,9)          =      1.524904     0.000001     0.000000     1.524904
	    5 R(5,6)          =      1.089997    -0.000004    -0.000001     1.089996
	    6 R(5,7)          =      1.091454    -0.000007    -0.000001     1.091453
	    7 R(5,8)          =      1.089834    -0.000007    -0.000001     1.089833
	    8 R(5,12)         =      1.524706     0.000000    -0.000000     1.524706
	    9 R(9,10)         =      1.092464    -0.000005    -0.000001     1.092463
	   10 R(9,11)         =      1.092634    -0.000012    -0.000002     1.092632
	   11 R(9,15)         =      1.527710    -0.000004    -0.000001     1.527709
	   12 R(12,13)        =      1.093716    -0.000008    -0.000001     1.093714
	   13 R(12,14)        =      1.092658    -0.000007    -0.000001     1.092657
	   14 R(12,24)        =      1.528404     0.000003    -0.000002     1.528402
	   15 R(15,16)        =      1.094503    -0.000011    -0.000002     1.094501
	   16 R(15,17)        =      1.093970    -0.000010    -0.000002     1.093968
	   17 R(15,18)        =      1.530007    -0.000001    -0.000003     1.530003
	   18 R(18,19)        =      1.091206    -0.000018    -0.000003     1.091203
	   19 R(18,20)        =      1.092695    -0.000007    -0.000001     1.092694
	   20 R(18,21)        =      1.537113    -0.000004    -0.000004     1.537108
	   21 R(21,22)        =      1.093792    -0.000011    -0.000002     1.093790
	   22 R(21,23)        =      1.094011    -0.000013    -0.000002     1.094008
	   23 R(21,24)        =      1.536726     0.000000    -0.000004     1.536722
	   24 R(24,25)        =      1.092212    -0.000016    -0.000003     1.092209
	   25 R(24,26)        =      1.092667    -0.000008    -0.000002     1.092665
	   26 B(1,9,10)       =    108.841173    -0.000000    -0.000063   108.841110
	   27 B(1,9,11)       =    110.126872     0.000000     0.000059   110.126931
	   28 B(1,9,15)       =    113.066152     0.000000     0.000069   113.066221
	   29 B(2,1,3)        =    107.649693    -0.000000    -0.000021   107.649672
	   30 B(2,1,4)        =    107.508621     0.000000    -0.000017   107.508604
	   31 B(2,1,9)        =    111.857561    -0.000000    -0.000074   111.857487
	   32 B(3,1,4)        =    107.897089    -0.000000     0.000029   107.897118
	   33 B(3,1,9)        =    111.309360     0.000000     0.000086   111.309447
	   34 B(4,1,9)        =    110.440666    -0.000000    -0.000004   110.440662
	   35 B(5,12,13)      =    109.230101    -0.000000    -0.000157   109.229944
	   36 B(5,12,14)      =    109.178080    -0.000000     0.000419   109.178500
	   37 B(5,12,24)      =    114.203896     0.000000    -0.000685   114.203212
	   38 B(6,5,7)        =    107.813775    -0.000000     0.000006   107.813781
	   39 B(6,5,8)        =    107.654310    -0.000000    -0.000026   107.654284
	   40 B(6,5,12)       =    110.926944     0.000000     0.000163   110.927107
	   41 B(7,5,8)        =    107.853518     0.000000     0.000015   107.853533
	   42 B(7,5,12)       =    110.938285    -0.000000    -0.000016   110.938270
	   43 B(8,5,12)       =    111.492658    -0.000000    -0.000142   111.492516
	   44 B(9,15,16)      =    108.551407    -0.000000     0.000563   108.551971
	   45 B(9,15,17)      =    109.060978    -0.000000    -0.000216   109.060762
	   46 B(9,15,18)      =    115.207695     0.000000    -0.000713   115.206982
	   47 B(10,9,11)      =    106.091205    -0.000000    -0.000078   106.091127
	   48 B(10,9,15)      =    108.620765     0.000000     0.000070   108.620835
	   49 B(11,9,15)      =    109.838573    -0.000000    -0.000066   109.838506
	   50 B(12,24,21)     =    113.574449    -0.000000    -0.001041   113.573407
	   51 B(12,24,25)     =    109.126093     0.000000    -0.000068   109.126025
	   52 B(12,24,26)     =    108.121337    -0.000000     0.000603   108.121940
	   53 B(13,12,14)     =    106.445091     0.000000     0.000101   106.445192
	   54 B(13,12,24)     =    108.595987    -0.000000     0.000002   108.595989
	   55 B(14,12,24)     =    108.901557    -0.000000     0.000370   108.901927
	   56 B(15,18,19)     =    110.012827     0.000000    -0.000111   110.012716
	   57 B(15,18,20)     =    107.731037     0.000000     0.000761   107.731797
	   58 B(15,18,21)     =    113.336660    -0.000000    -0.001326   113.335333
	   59 B(16,15,17)     =    106.489207     0.000000     0.000140   106.489347
	   60 B(16,15,18)     =    109.114288    -0.000000     0.000445   109.114733
	   61 B(17,15,18)     =    108.071990    -0.000000    -0.000163   108.071827
	   62 B(18,21,22)     =    107.960543    -0.000000     0.000344   107.960887
	   63 B(18,21,23)     =    109.654452     0.000000     0.000182   109.654634
	   64 B(18,21,24)     =    115.509569    -0.000000    -0.001291   115.508277
	   65 B(19,18,20)     =    106.043266    -0.000000     0.000300   106.043566
	   66 B(19,18,21)     =    110.102349     0.000000    -0.000237   110.102112
	   67 B(20,18,21)     =    109.326108     0.000000     0.000754   109.326862
	   68 B(21,24,25)     =    109.981097    -0.000000    -0.000334   109.980763
	   69 B(21,24,26)     =    109.436229     0.000000     0.000815   109.437044
	   70 B(22,21,23)     =    105.732492    -0.000000     0.000161   105.732653
	   71 B(22,21,24)     =    109.607880     0.000000     0.000188   109.608068
	   72 B(23,21,24)     =    107.942614     0.000000     0.000531   107.943145
	   73 B(25,24,26)     =    106.332473    -0.000000     0.000114   106.332586
	   74 D(1,9,15,16)    =    -55.860058    -0.000000     0.005813   -55.854245
	   75 D(1,9,15,17)    =   -171.499892     0.000000     0.005457  -171.494436
	   76 D(1,9,15,18)    =     66.805133     0.000000     0.006332    66.811465
	   77 D(2,1,9,10)     =    178.252057    -0.000000     0.000295   178.252352
	   78 D(2,1,9,11)     =     62.341953     0.000000     0.000392    62.342345
	   79 D(2,1,9,15)     =    -60.950440     0.000000     0.000384   -60.950056
	   80 D(3,1,9,10)     =     57.779421    -0.000000     0.000312    57.779733
	   81 D(3,1,9,11)     =    -58.130683     0.000000     0.000409   -58.130274
	   82 D(3,1,9,15)     =    178.576924     0.000000     0.000402   178.577325
	   83 D(4,1,9,10)     =    -62.049202    -0.000000     0.000222   -62.048980
	   84 D(4,1,9,11)     =   -177.959306    -0.000000     0.000319  -177.958987
	   85 D(4,1,9,15)     =     58.748300     0.000000     0.000311    58.748612
	   86 D(5,12,24,21)   =     60.533927    -0.000000    -0.010036    60.523892
	   87 D(5,12,24,25)   =    -62.554540    -0.000000    -0.008825   -62.563366
	   88 D(5,12,24,26)   =   -177.810680    -0.000000    -0.009249  -177.819929
	   89 D(6,5,12,13)    =    -60.743684     0.000000    -0.000207   -60.743891
	   90 D(6,5,12,14)    =     55.281581    -0.000000     0.000061    55.281642
	   91 D(6,5,12,24)    =    177.447543     0.000000     0.000380   177.447923
	   92 D(7,5,12,13)    =    179.454312    -0.000000    -0.000311   179.454001
	   93 D(7,5,12,14)    =    -64.520423    -0.000000    -0.000044   -64.520466
	   94 D(7,5,12,24)    =     57.645539    -0.000000     0.000275    57.645815
	   95 D(8,5,12,13)    =     59.225310     0.000000    -0.000224    59.225086
	   96 D(8,5,12,14)    =    175.250576    -0.000000     0.000043   175.250619
	   97 D(8,5,12,24)    =    -62.583462     0.000000     0.000362   -62.583100
	   98 D(9,15,18,19)   =    -60.829022    -0.000000    -0.009442   -60.838464
	   99 D(9,15,18,20)   =   -175.995399    -0.000000    -0.010160  -176.005559
	  100 D(9,15,18,21)   =     62.916934    -0.000000    -0.010800    62.906134
	  101 D(10,9,15,16)   =     65.062518     0.000000     0.005826    65.068345
	  102 D(10,9,15,17)   =    -50.577316     0.000000     0.005470   -50.571846
	  103 D(10,9,15,18)   =   -172.272291     0.000000     0.006346  -172.265945
	  104 D(11,9,15,16)   =   -179.311610    -0.000000     0.005737  -179.305874
	  105 D(11,9,15,17)   =     65.048556     0.000000     0.005380    65.053936
	  106 D(11,9,15,18)   =    -56.646419     0.000000     0.006256   -56.640163
	  107 D(12,24,21,18)  =    -92.836324    -0.000000    -0.012052   -92.848376
	  108 D(12,24,21,22)  =    144.976070    -0.000000    -0.011724   144.964347
	  109 D(12,24,21,23)  =     30.273563    -0.000000    -0.012300    30.261263
	  110 D(13,12,24,21)  =    -61.622781    -0.000000    -0.009369   -61.632149
	  111 D(13,12,24,25)  =    175.288751     0.000000    -0.008158   175.280593
	  112 D(13,12,24,26)  =     60.032611     0.000000    -0.008582    60.024030
	  113 D(14,12,24,21)  =   -177.148814    -0.000000    -0.009688  -177.158502
	  114 D(14,12,24,25)  =     59.762718     0.000000    -0.008478    59.754240
	  115 D(14,12,24,26)  =    -55.493422     0.000000    -0.008901   -55.502323
	  116 D(15,18,21,22)  =     29.382942    -0.000000    -0.015949    29.366994
	  117 D(15,18,21,23)  =    144.119423    -0.000000    -0.015477   144.103946
	  118 D(15,18,21,24)  =    -93.679962    -0.000000    -0.015563   -93.695525
	  119 D(16,15,18,19)  =     61.534988     0.000000    -0.008861    61.526126
	  120 D(16,15,18,20)  =    -53.631389     0.000000    -0.009580   -53.640969
	  121 D(16,15,18,21)  =   -174.719056     0.000000    -0.010219  -174.729275
	  122 D(17,15,18,19)  =    176.943580     0.000000    -0.008550   176.935030
	  123 D(17,15,18,20)  =     61.777204    -0.000000    -0.009269    61.767935
	  124 D(17,15,18,21)  =    -59.310463    -0.000000    -0.009908   -59.320371
	  125 D(18,21,24,25)  =     29.781891    -0.000000    -0.013131    29.768760
	  126 D(18,21,24,26)  =    146.243988    -0.000000    -0.012711   146.231277
	  127 D(19,18,21,22)  =    153.079929    -0.000000    -0.017240   153.062689
	  128 D(19,18,21,23)  =    -92.183591    -0.000000    -0.016768   -92.200359
	  129 D(19,18,21,24)  =     30.017025    -0.000000    -0.016854    30.000170
	  130 D(20,18,21,22)  =    -90.802053    -0.000000    -0.016575   -90.818628
	  131 D(20,18,21,23)  =     23.934427    -0.000000    -0.016103    23.918324
	  132 D(20,18,21,24)  =    146.135043    -0.000000    -0.016190   146.118854
	  133 D(22,21,24,25)  =    -92.405714    -0.000000    -0.012803   -92.418517
	  134 D(22,21,24,26)  =     24.056382    -0.000000    -0.012383    24.043999
	  135 D(23,21,24,25)  =    152.891778    -0.000000    -0.013379   152.878399
	  136 D(23,21,24,26)  =    -90.646125    -0.000000    -0.012959   -90.659084
	  137 R(1,24)         =      3.771580     0.000001    -0.000015     3.771564
	  138 R(5,18)         =      3.363617    -0.000003     0.000053     3.363670
	  139 R(9,24)         =      3.417117    -0.000002     0.000089     3.417207
	 ---------------------------------------------------------------------------

  ==> Convergence Check <==

  Measures of convergence in internal coordinates in au.
  Criteria marked as inactive (o), active & met (*), and active & unmet ( ).
  --------------------------------------------------------------------------------------------- ~
   Step     Total Energy     Delta E     MAX Force     RMS Force      MAX Disp      RMS Disp    ~
  --------------------------------------------------------------------------------------------- ~
    Convergence Criteria             o    2.00e-06 *    1.00e-06 *    6.00e-06 *    4.00e-06 *  ~
  --------------------------------------------------------------------------------------------- ~
      1    -314.97821368   -3.15e+02 o    2.14e-06      5.00e-07 *    3.01e-04      1.13e-04    ~
  ---------------------------------------------------------------------------------------------

	Writing optimization data to binary file.
	Structure for next step:
	Cartesian Geometry (in Angstrom)
	    C    -2.0536861556   1.6582093532  -0.1316795617
	    H    -1.0210447138   1.8200109712  -0.4404298233
	    H    -2.3253440014   2.4649251175   0.5490447521
	    H    -2.6797573433   1.7449412643  -1.0212628607
	    C     2.4963348744   0.6556031075  -1.0169453407
	    H     3.4915779273   0.9452472049  -1.3541238598
	    H     1.8139158527   1.4756459824  -1.2473878649
	    H     2.1879631627  -0.2102802290  -1.6025127344
	    C    -2.2435792456   0.2937728777   0.5222219888
	    H    -3.2844466445   0.1963211210   0.8393554846
	    H    -1.6421968162   0.2258582685   1.4319311499
	    C     2.4951062150   0.3490866671   0.4766321379
	    H     3.1791244853  -0.4810662125   0.6745618929
	    H     2.8892922412   1.2110389880   1.0202809610
	    C    -1.9067631540  -0.8687791392  -0.4099374384
	    H    -2.5106381071  -0.7734191846  -1.3177781467
	    H    -2.2074078414  -1.8068594283   0.0658603210
	    C    -0.4317479835  -0.9855076076  -0.7993152033
	    H    -0.1123320458  -0.0851474246  -1.3266186071
	    H    -0.3408626017  -1.8042140002  -1.5172560262
	    C     0.4946051355  -1.2533852356   0.3976863480
	    H    -0.0761034856  -1.8074270845   1.1484895458
	    H     1.3074005679  -1.9189130253   0.0922508108
	    C     1.1204553537  -0.0066028351   1.0421704265
	    H     0.4525814557   0.8495454984   0.9243753477
	    H     1.2267278889  -0.1677210549   2.1176535277
			--------------------------
			 OPTKING Finished Execution 
			--------------------------

    Structure for next step:
    Molecular point group: c1
    Full point group: C1

    Geometry (in Angstrom), charge = 0, multiplicity = 1:

    C           -2.053685078776     1.658192249334    -0.131669873865
    H           -1.021043637046     1.819993867374    -0.440420135413
    H           -2.325342924584     2.464908013610     0.549054439915
    H           -2.679756266538     1.744924160434    -1.021253172882
    C            2.496335951240     0.655586003645    -1.016935652827
    H            3.491579004073     0.945230101091    -1.354114171973
    H            1.813916929537     1.475628878600    -1.247378177029
    H            2.187964239513    -0.210297332880    -1.602503046508
    C           -2.243578168795     0.293755773869     0.522231676622
    H           -3.284445567700     0.196304017185     0.839365172462
    H           -1.642195739434     0.225841164686     1.431940837790
    C            2.495107291757     0.349069563242     0.476641825743
    H            3.179125562132    -0.481083316297     0.674571580731
    H            2.889293317998     1.211021884162     1.020290648816
    C           -1.906762077209    -0.868796243052    -0.409927750535
    H           -2.510637030283    -0.773436288420    -1.317768458815
    H           -2.207406764653    -1.806876532162     0.065870008867
    C           -0.431746906671    -0.985524711402    -0.799305515424
    H           -0.112330968981    -0.085164528434    -1.326608919242
    H           -0.340861524885    -1.804231104062    -1.517246338390
    C            0.494606212334    -1.253402339482     0.397696035880
    H           -0.076102408808    -1.807444188348     1.148499233666
    H            1.307401644727    -1.918930129124     0.092260498702
    C            1.120456430525    -0.006619938935     1.042180114369
    H            0.452582532447     0.849528394509     0.924385035537
    H            1.226728965681    -0.167738158714     2.117663215529

gradient() will perform analytic gradient computation.

*** tstart() called on wr39
*** at Wed Sep 21 13:19:31 2016


         ---------------------------------------------------------
                                   SCF
            by Justin Turney, Rob Parrish, and Andy Simmonett
                              RHF Reference
                       12 Threads,  30000 MiB Core
         ---------------------------------------------------------

  ==> Geometry <==

    Molecular point group: c1
    Full point group: C1

    Geometry (in Angstrom), charge = 0, multiplicity = 1:

       Center              X                  Y                   Z               Mass       
    ------------   -----------------  -----------------  -----------------  -----------------
           C         -2.053685078776     1.658192249334    -0.131669873865    12.000000000000
           H         -1.021043637046     1.819993867374    -0.440420135413     1.007825032070
           H         -2.325342924584     2.464908013610     0.549054439915     1.007825032070
           H         -2.679756266538     1.744924160434    -1.021253172882     1.007825032070
           C          2.496335951240     0.655586003645    -1.016935652827    12.000000000000
           H          3.491579004073     0.945230101091    -1.354114171973     1.007825032070
           H          1.813916929537     1.475628878600    -1.247378177029     1.007825032070
           H          2.187964239513    -0.210297332880    -1.602503046508     1.007825032070
           C         -2.243578168795     0.293755773869     0.522231676622    12.000000000000
           H         -3.284445567700     0.196304017185     0.839365172462     1.007825032070
           H         -1.642195739434     0.225841164686     1.431940837790     1.007825032070
           C          2.495107291757     0.349069563242     0.476641825743    12.000000000000
           H          3.179125562132    -0.481083316297     0.674571580731     1.007825032070
           H          2.889293317998     1.211021884162     1.020290648816     1.007825032070
           C         -1.906762077209    -0.868796243052    -0.409927750535    12.000000000000
           H         -2.510637030283    -0.773436288420    -1.317768458815     1.007825032070
           H         -2.207406764653    -1.806876532162     0.065870008867     1.007825032070
           C         -0.431746906671    -0.985524711402    -0.799305515424    12.000000000000
           H         -0.112330968981    -0.085164528434    -1.326608919242     1.007825032070
           H         -0.340861524885    -1.804231104062    -1.517246338390     1.007825032070
           C          0.494606212334    -1.253402339482     0.397696035880    12.000000000000
           H         -0.076102408808    -1.807444188348     1.148499233666     1.007825032070
           H          1.307401644727    -1.918930129124     0.092260498702     1.007825032070
           C          1.120456430525    -0.006619938935     1.042180114369    12.000000000000
           H          0.452582532447     0.849528394509     0.924385035537     1.007825032070
           H          1.226728965681    -0.167738158714     2.117663215529     1.007825032070

  Running in c1 symmetry.

  Rotational constants: A =      0.09353  B =      0.03562  C =      0.03253 [cm^-1]
  Rotational constants: A =   2803.96902  B =   1067.93898  C =    975.25886 [MHz]
  Nuclear repulsion =  408.404497603811365

  Charge       = 0
  Multiplicity = 1
  Electrons    = 66
  Nalpha       = 33
  Nbeta        = 33

  ==> Algorithm <==

  SCF Algorithm Type is DF.
  DIIS enabled.
  MOM disabled.
  Fractional occupation disabled.
  Guess Type is READ.
  Energy threshold   = 1.00e-10
  Density threshold  = 1.00e-10
  Integral threshold = 0.00e+00

  ==> Primary Basis <==

  Basis Set: AUG-CC-PVTZ
    Number of shells: 274
    Number of basis function: 782
    Number of Cartesian functions: 890
    Spherical Harmonics?: true
    Max angular momentum: 3

  ==> Pre-Iterations <==

   -------------------------------------------------------
    Irrep   Nso     Nmo     Nalpha   Nbeta   Ndocc  Nsocc
   -------------------------------------------------------
     A        782     782       0       0       0       0
   -------------------------------------------------------
    Total     782     782      33      33      33       0
   -------------------------------------------------------

  ==> Integral Setup <==

  ==> DFJK: Density-Fitted J/K Matrices <==

    J tasked:                  Yes
    K tasked:                  Yes
    wK tasked:                  No
    OpenMP threads:             12
    Integrals threads:          12
    Memory (MB):             21457
    Algorithm:                Core
    Integral Cache:           NONE
    Schwarz Cutoff:          1E-12
    Fitting Condition:       1E-12

   => Auxiliary Basis Set <=

  Basis Set: 
    Number of shells: 492
    Number of basis function: 1660
    Number of Cartesian functions: 2038
    Spherical Harmonics?: true
    Max angular momentum: 4

  Minimum eigenvalue in the overlap matrix is 1.6419997838E-06.
  Using Symmetric Orthogonalization.
  SCF Guess: Reading in previously saved MOs, projecting if necessary.

  Using orbitals from previous SCF, no projection.
  Recomputing DOCC and SOCC from number of alpha and beta electrons from previous calculation.
              A 
    DOCC [    33 ]

  ==> Iterations <==

                           Total Energy        Delta E     RMS |[F,P]|

   @DF-RHF iter   0:  -313.53260769827011   -3.13533e+02   1.17983e-06 
   @DF-RHF iter   1:  -313.53229848398848    3.09214e-04   2.55178e-07 
   @DF-RHF iter   2:  -313.53229851521837   -3.12299e-08   1.14143e-07 DIIS
   @DF-RHF iter   3:  -313.53229852021275   -4.99438e-09   3.97134e-08 DIIS
   @DF-RHF iter   4:  -313.53229852117818   -9.65429e-10   4.57103e-09 DIIS
   @DF-RHF iter   5:  -313.53229852119500   -1.68257e-11   1.35025e-09 DIIS
   @DF-RHF iter   6:  -313.53229852119580   -7.95808e-13   3.53254e-10 DIIS
   @DF-RHF iter   7:  -313.53229852119637   -5.68434e-13   1.01167e-10 DIIS
   @DF-RHF iter   8:  -313.53229852119568    6.82121e-13   2.37239e-11 DIIS

  ==> Post-Iterations <==

    Orbital Energies (a.u.)
    -----------------------

    Doubly Occupied:                                                      

       1A    -11.213015     2A    -11.212176     3A    -11.210593  
       4A    -11.210442     5A    -11.209736     6A    -11.208906  
       7A    -11.207266     8A    -11.207160     9A     -1.093979  
      10A     -1.058195    11A     -1.003633    12A     -0.949207  
      13A     -0.890706    14A     -0.834943    15A     -0.778347  
      16A     -0.756531    17A     -0.647490    18A     -0.626953  
      19A     -0.609632    20A     -0.604228    21A     -0.572865  
      22A     -0.552022    23A     -0.544639    24A     -0.537584  
      25A     -0.515575    26A     -0.509931    27A     -0.487764  
      28A     -0.474019    29A     -0.463067    30A     -0.461389  
      31A     -0.444037    32A     -0.435567    33A     -0.431301  

    Virtual:                                                              

      34A      0.029226    35A      0.033347    36A      0.034185  
      37A      0.035289    38A      0.046615    39A      0.048350  
      40A      0.050286    41A      0.053689    42A      0.053862  
      43A      0.068932    44A      0.071519    45A      0.072340  
      46A      0.075469    47A      0.078342    48A      0.080691  
      49A      0.089413    50A      0.099068    51A      0.100160  
      52A      0.115360    53A      0.118659    54A      0.122658  
      55A      0.126542    56A      0.128938    57A      0.133866  
      58A      0.135123    59A      0.136828    60A      0.140000  
      61A      0.141716    62A      0.143063    63A      0.147947  
      64A      0.151163    65A      0.155407    66A      0.164144  
      67A      0.167042    68A      0.173463    69A      0.175335  
      70A      0.175692    71A      0.180299    72A      0.181650  
      73A      0.186264    74A      0.191152    75A      0.196422  
      76A      0.197732    77A      0.211214    78A      0.214049  
      79A      0.220407    80A      0.226997    81A      0.234610  
      82A      0.246581    83A      0.248251    84A      0.263547  
      85A      0.270183    86A      0.276081    87A      0.282290  
      88A      0.288847    89A      0.292914    90A      0.293167  
      91A      0.301885    92A      0.305275    93A      0.312811  
      94A      0.317540    95A      0.319160    96A      0.323731  
      97A      0.325411    98A      0.332360    99A      0.337246  
     100A      0.340562   101A      0.345270   102A      0.350505  
     103A      0.354027   104A      0.354509   105A      0.357717  
     106A      0.359731   107A      0.363165   108A      0.366321  
     109A      0.369456   110A      0.375524   111A      0.376875  
     112A      0.382160   113A      0.383715   114A      0.386509  
     115A      0.388888   116A      0.396179   117A      0.402407  
     118A      0.409625   119A      0.413267   120A      0.416192  
     121A      0.421241   122A      0.422318   123A      0.429240  
     124A      0.431816   125A      0.435297   126A      0.438796  
     127A      0.442958   128A      0.446498   129A      0.452310  
     130A      0.455661   131A      0.459715   132A      0.470064  
     133A      0.471788   134A      0.474743   135A      0.478275  
     136A      0.478996   137A      0.481342   138A      0.490950  
     139A      0.491938   140A      0.494145   141A      0.498031  
     142A      0.504569   143A      0.506377   144A      0.513839  
     145A      0.516125   146A      0.521974   147A      0.525589  
     148A      0.529592   149A      0.531433   150A      0.535502  
     151A      0.540721   152A      0.542392   153A      0.551199  
     154A      0.555831   155A      0.560856   156A      0.568565  
     157A      0.571230   158A      0.574414   159A      0.577168  
     160A      0.581979   161A      0.583238   162A      0.587775  
     163A      0.593761   164A      0.603935   165A      0.606149  
     166A      0.608517   167A      0.620311   168A      0.623677  
     169A      0.629646   170A      0.632543   171A      0.635471  
     172A      0.637384   173A      0.641873   174A      0.651506  
     175A      0.654943   176A      0.659033   177A      0.666329  
     178A      0.667660   179A      0.670163   180A      0.675236  
     181A      0.678761   182A      0.682944   183A      0.689143  
     184A      0.696086   185A      0.700607   186A      0.709205  
     187A      0.711090   188A      0.715136   189A      0.721641  
     190A      0.727815   191A      0.728498   192A      0.742945  
     193A      0.753681   194A      0.755088   195A      0.757092  
     196A      0.763832   197A      0.768941   198A      0.773156  
     199A      0.776137   200A      0.784637   201A      0.794523  
     202A      0.798227   203A      0.822829   204A      0.823859  
     205A      0.835117   206A      0.840807   207A      0.847748  
     208A      0.849743   209A      0.862585   210A      0.863345  
     211A      0.873005   212A      0.884181   213A      0.884390  
     214A      0.886970   215A      0.890293   216A      0.894028  
     217A      0.907066   218A      0.912614   219A      0.915367  
     220A      0.924036   221A      0.926512   222A      0.931575  
     223A      0.935053   224A      0.941706   225A      0.945490  
     226A      0.952713   227A      0.959219   228A      0.964934  
     229A      0.965946   230A      0.973897   231A      0.978243  
     232A      0.982329   233A      0.990962   234A      0.995201  
     235A      1.001043   236A      1.008242   237A      1.010291  
     238A      1.011523   239A      1.017230   240A      1.019240  
     241A      1.024759   242A      1.033352   243A      1.039056  
     244A      1.041320   245A      1.045508   246A      1.046560  
     247A      1.059048   248A      1.068837   249A      1.071999  
     250A      1.080149   251A      1.092572   252A      1.093616  
     253A      1.100429   254A      1.107975   255A      1.109842  
     256A      1.116798   257A      1.120901   258A      1.125343  
     259A      1.132786   260A      1.137227   261A      1.143625  
     262A      1.151381   263A      1.153582   264A      1.155542  
     265A      1.159728   266A      1.164006   267A      1.168739  
     268A      1.180798   269A      1.187288   270A      1.190206  
     271A      1.198125   272A      1.201825   273A      1.203283  
     274A      1.205763   275A      1.213697   276A      1.220450  
     277A      1.224273   278A      1.227936   279A      1.230166  
[...]
	   11 R(9,15)         =      1.527710     0.000000    -0.000000     1.527710
	   12 R(12,13)        =      1.093715     0.000001     0.000000     1.093715
	   13 R(12,14)        =      1.092657     0.000001     0.000000     1.092657
	   14 R(12,24)        =      1.528404     0.000000     0.000000     1.528404
	   15 R(15,16)        =      1.094503     0.000002     0.000000     1.094503
	   16 R(15,17)        =      1.093969     0.000002     0.000000     1.093969
	   17 R(15,18)        =      1.530007    -0.000001    -0.000000     1.530007
	   18 R(18,19)        =      1.091205     0.000002     0.000000     1.091206
	   19 R(18,20)        =      1.092694     0.000002     0.000000     1.092694
	   20 R(18,21)        =      1.537113     0.000000    -0.000000     1.537113
	   21 R(21,22)        =      1.093791    -0.000000    -0.000000     1.093791
	   22 R(21,23)        =      1.094010    -0.000000    -0.000000     1.094010
	   23 R(21,24)        =      1.536725     0.000000     0.000000     1.536726
	   24 R(24,25)        =      1.092211    -0.000000    -0.000000     1.092211
	   25 R(24,26)        =      1.092666     0.000000     0.000000     1.092666
	   26 B(1,9,10)       =    108.841267    -0.000000    -0.000011   108.841256
	   27 B(1,9,11)       =    110.126768     0.000000     0.000035   110.126802
	   28 B(1,9,15)       =    113.066092    -0.000000    -0.000015   113.066077
	   29 B(2,1,3)        =    107.649665     0.000000     0.000004   107.649669
	   30 B(2,1,4)        =    107.508633    -0.000000    -0.000002   107.508631
	   31 B(2,1,9)        =    111.857505    -0.000000    -0.000004   111.857502
	   32 B(3,1,4)        =    107.897120    -0.000000    -0.000004   107.897116
	   33 B(3,1,9)        =    111.309391    -0.000000     0.000004   111.309394
	   34 B(4,1,9)        =    110.440680     0.000000     0.000001   110.440680
	   35 B(5,12,13)      =    109.230128    -0.000000    -0.000005   109.230122
	   36 B(5,12,14)      =    109.178150    -0.000000    -0.000018   109.178132
	   37 B(5,12,24)      =    114.203586     0.000000     0.000029   114.203615
	   38 B(6,5,7)        =    107.813786    -0.000000    -0.000001   107.813785
	   39 B(6,5,8)        =    107.654323     0.000000    -0.000001   107.654321
	   40 B(6,5,12)       =    110.927089     0.000000     0.000006   110.927095
	   41 B(7,5,8)        =    107.853496    -0.000000    -0.000003   107.853492
	   42 B(7,5,12)       =    110.938230     0.000000     0.000005   110.938235
	   43 B(8,5,12)       =    111.492569    -0.000000    -0.000006   111.492563
	   44 B(9,15,16)      =    108.551539    -0.000000    -0.000015   108.551524
	   45 B(9,15,17)      =    109.060996     0.000000     0.000009   109.061005
	   46 B(9,15,18)      =    115.207390     0.000000     0.000042   115.207432
	   47 B(10,9,11)      =    106.091207    -0.000000     0.000001   106.091208
	   48 B(10,9,15)      =    108.620947    -0.000000    -0.000027   108.620920
	   49 B(11,9,15)      =    109.838470     0.000000     0.000018   109.838488
	   50 B(12,24,21)     =    113.574124     0.000000     0.000033   113.574158
	   51 B(12,24,25)     =    109.126084    -0.000000     0.000015   109.126098
	   52 B(12,24,26)     =    108.121590    -0.000000    -0.000012   108.121578
	   53 B(13,12,14)     =    106.445123    -0.000000    -0.000011   106.445112
	   54 B(13,12,24)     =    108.595998     0.000000     0.000013   108.596011
	   55 B(14,12,24)     =    108.901751    -0.000000    -0.000010   108.901741
	   56 B(15,18,19)     =    110.012834     0.000000     0.000031   110.012865
	   57 B(15,18,20)     =    107.731302    -0.000000    -0.000018   107.731284
	   58 B(15,18,21)     =    113.336281     0.000000     0.000048   113.336329
	   59 B(16,15,17)     =    106.489259     0.000000    -0.000005   106.489254
	   60 B(16,15,18)     =    109.114466    -0.000000    -0.000036   109.114430
	   61 B(17,15,18)     =    108.071941    -0.000000     0.000002   108.071942
	   62 B(18,21,22)     =    107.960593     0.000000     0.000049   107.960642
	   63 B(18,21,23)     =    109.654542    -0.000000    -0.000051   109.654491
	   64 B(18,21,24)     =    115.509256    -0.000000    -0.000049   115.509207
	   65 B(19,18,20)     =    106.043290     0.000000     0.000038   106.043328
	   66 B(19,18,21)     =    110.102192    -0.000000    -0.000080   110.102112
	   67 B(20,18,21)     =    109.326387    -0.000000    -0.000018   109.326368
	   68 B(21,24,25)     =    109.980974    -0.000000    -0.000026   109.980949
	   69 B(21,24,26)     =    109.436492    -0.000000     0.000006   109.436498
	   70 B(22,21,23)     =    105.732439    -0.000000     0.000008   105.732447
	   71 B(22,21,24)     =    109.607952    -0.000000     0.000001   109.607953
	   72 B(23,21,24)     =    107.942786     0.000000     0.000045   107.942831
	   73 B(25,24,26)     =    106.332437     0.000000    -0.000019   106.332418
	   74 D(1,9,15,16)    =    -55.858950     0.000000    -0.000073   -55.859023
	   75 D(1,9,15,17)    =   -171.498927     0.000000    -0.000064  -171.498991
	   76 D(1,9,15,18)    =     66.806362     0.000000    -0.000102    66.806260
	   77 D(2,1,9,10)     =    178.252249     0.000000     0.000110   178.252359
	   78 D(2,1,9,11)     =     62.342146     0.000000     0.000096    62.342242
	   79 D(2,1,9,15)     =    -60.949992    -0.000000     0.000058   -60.949934
	   80 D(3,1,9,10)     =     57.779666     0.000000     0.000104    57.779770
	   81 D(3,1,9,11)     =    -58.130436     0.000000     0.000090   -58.130346
	   82 D(3,1,9,15)     =    178.577425    -0.000000     0.000052   178.577477
	   83 D(4,1,9,10)     =    -62.049024     0.000000     0.000105   -62.048918
	   84 D(4,1,9,11)     =   -177.959126     0.000000     0.000092  -177.959035
	   85 D(4,1,9,15)     =     58.748735    -0.000000     0.000053    58.748789
	   86 D(5,12,24,21)   =     60.533741    -0.000000    -0.000145    60.533596
	   87 D(5,12,24,25)   =    -62.554334     0.000000    -0.000146   -62.554481
	   88 D(5,12,24,26)   =   -177.810564     0.000000    -0.000125  -177.810689
	   89 D(6,5,12,13)    =    -60.743393     0.000000     0.000190   -60.743204
	   90 D(6,5,12,14)    =     55.281964    -0.000000     0.000163    55.282127
	   91 D(6,5,12,24)    =    177.448015    -0.000000     0.000156   177.448171
	   92 D(7,5,12,13)    =    179.454530     0.000000     0.000183   179.454713
	   93 D(7,5,12,14)    =    -64.520112    -0.000000     0.000156   -64.519956
	   94 D(7,5,12,24)    =     57.645938    -0.000000     0.000150    57.646088
	   95 D(8,5,12,13)    =     59.225655     0.000000     0.000188    59.225843
	   96 D(8,5,12,14)    =    175.251012     0.000000     0.000162   175.251174
	   97 D(8,5,12,24)    =    -62.582937     0.000000     0.000155   -62.582782
	   98 D(9,15,18,19)   =    -60.829049     0.000000     0.000150   -60.828899
	   99 D(9,15,18,20)   =   -175.995604     0.000000     0.000099  -175.995505
	  100 D(9,15,18,21)   =     62.916433     0.000000     0.000104    62.916537
	  101 D(10,9,15,16)   =     65.063833     0.000000    -0.000116    65.063717
	  102 D(10,9,15,17)   =    -50.576144    -0.000000    -0.000107   -50.576250
	  103 D(10,9,15,18)   =   -172.270855    -0.000000    -0.000145  -172.271000
	  104 D(11,9,15,16)   =   -179.310247     0.000000    -0.000121  -179.310367
	  105 D(11,9,15,17)   =     65.049777    -0.000000    -0.000112    65.049665
	  106 D(11,9,15,18)   =    -56.644934    -0.000000    -0.000150   -56.645084
	  107 D(12,24,21,18)  =    -92.837740     0.000000     0.000042   -92.837698
	  108 D(12,24,21,22)  =    144.974756     0.000000     0.000011   144.974768
	  109 D(12,24,21,23)  =     30.272181    -0.000000    -0.000023    30.272157
	  110 D(13,12,24,21)  =    -61.622798    -0.000000    -0.000168   -61.622966
	  111 D(13,12,24,25)  =    175.289127    -0.000000    -0.000169   175.288958
	  112 D(13,12,24,26)  =     60.032897     0.000000    -0.000148    60.032749
	  113 D(14,12,24,21)  =   -177.148980    -0.000000    -0.000156  -177.149136
	  114 D(14,12,24,25)  =     59.762945    -0.000000    -0.000158    59.762788
	  115 D(14,12,24,26)  =    -55.493284     0.000000    -0.000136   -55.493420
	  116 D(15,18,21,22)  =     29.380707     0.000000     0.000275    29.380982
	  117 D(15,18,21,23)  =    144.117199     0.000000     0.000285   144.117484
	  118 D(15,18,21,24)  =    -93.682114     0.000000     0.000270   -93.681844
	  119 D(16,15,18,19)  =     61.535056     0.000000     0.000132    61.535188
	  120 D(16,15,18,20)  =    -53.631499     0.000000     0.000081   -53.631418
	  121 D(16,15,18,21)  =   -174.719462    -0.000000     0.000086  -174.719376
	  122 D(17,15,18,19)  =    176.943777     0.000000     0.000108   176.943885
	  123 D(17,15,18,20)  =     61.777221    -0.000000     0.000057    61.777278
	  124 D(17,15,18,21)  =    -59.310742    -0.000000     0.000062   -59.310680
	  125 D(18,21,24,25)  =     29.780140     0.000000     0.000066    29.780206
	  126 D(18,21,24,26)  =    146.242276     0.000000     0.000032   146.242308
	  127 D(19,18,21,22)  =    153.077308     0.000000     0.000290   153.077598
	  128 D(19,18,21,23)  =    -92.186200     0.000000     0.000299   -92.185901
	  129 D(19,18,21,24)  =     30.014488     0.000000     0.000284    30.014772
	  130 D(20,18,21,22)  =    -90.804573    -0.000000     0.000280   -90.804294
	  131 D(20,18,21,23)  =     23.931919     0.000000     0.000290    23.932208
	  132 D(20,18,21,24)  =    146.132606     0.000000     0.000274   146.132880
	  133 D(22,21,24,25)  =    -92.407363     0.000000     0.000035   -92.407328
	  134 D(22,21,24,26)  =     24.054773    -0.000000     0.000001    24.054773
	  135 D(23,21,24,25)  =    152.890061     0.000000     0.000000   152.890061
	  136 D(23,21,24,26)  =    -90.647803    -0.000000    -0.000034   -90.647837
	  137 R(1,24)         =      3.771597    -0.000001    -0.000002     3.771595
	  138 R(5,18)         =      3.363618    -0.000000    -0.000001     3.363617
	  139 R(9,24)         =      3.417126     0.000000    -0.000002     3.417124
	 ---------------------------------------------------------------------------

  ==> Convergence Check <==

  Measures of convergence in internal coordinates in au.
  Criteria marked as inactive (o), active & met (*), and active & unmet ( ).
  ---------------------------------------------------------------------------------------------
   Step     Total Energy     Delta E     MAX Force     RMS Force      MAX Disp      RMS Disp   
  ---------------------------------------------------------------------------------------------
    Convergence Criteria             o    2.00e-06 *    1.00e-06 *    6.00e-06 *    4.00e-06 *
  ---------------------------------------------------------------------------------------------
     40    -314.97821368   -1.21e-09 o    2.69e-07 *    8.32e-08 *    5.23e-06 *    1.90e-06 *  ~
  ---------------------------------------------------------------------------------------------


  **** Optimization is complete! (in 40 steps) ****

  ==> Optimization Summary <==

  Measures of convergence in internal coordinates in au.
  --------------------------------------------------------------------------------------------------------------- ~
   Step         Total Energy             Delta E       MAX Force       RMS Force        MAX Disp        RMS Disp  ~
  --------------------------------------------------------------------------------------------------------------- ~
      1    -314.978213678015   -314.978213678015      0.00000214      0.00000050      0.00030089      0.00011328  ~
      2    -314.978213670660      0.000000007355      0.00000516      0.00000117      0.00019771      0.00008503  ~
      3    -314.978213676298     -0.000000005639      0.00000310      0.00000065      0.00009197      0.00004195  ~
      4    -314.978213675674      0.000000000624      0.00000232      0.00000058      0.00008233      0.00003409  ~
      5    -314.978213674134      0.000000001540      0.00000089      0.00000026      0.00004364      0.00002060  ~
      6    -314.978213671652      0.000000002482      0.00000193      0.00000041      0.00002087      0.00000785  ~
      7    -314.978213676010     -0.000000004358      0.00000147      0.00000035      0.00008508      0.00002666  ~
      8    -314.978213672230      0.000000003780      0.00000120      0.00000028      0.00003900      0.00001315  ~
      9    -314.978213677620     -0.000000005390      0.00000165      0.00000041      0.00004465      0.00001657  ~
     10    -314.978213676716      0.000000000904      0.00000024      0.00000007      0.00002917      0.00001022  ~
     11    -314.978213675744      0.000000000972      0.00000057      0.00000015      0.00002216      0.00000875  ~
     12    -314.978213673060      0.000000002683      0.00000323      0.00000066      0.00002734      0.00001092  ~
     13    -314.978213675482     -0.000000002422      0.00000110      0.00000022      0.00001648      0.00000613  ~
     14    -314.978213675199      0.000000000283      0.00000085      0.00000017      0.00001555      0.00000431  ~
     15    -314.978213675540     -0.000000000342      0.00000110      0.00000025      0.00003450      0.00000993  ~
     16    -314.978213675564     -0.000000000024      0.00000097      0.00000020      0.00002689      0.00000974  ~
     17    -314.978213672131      0.000000003433      0.00000156      0.00000037      0.00002894      0.00000905  ~
     18    -314.978213670413      0.000000001718      0.00000037      0.00000011      0.00001553      0.00000618  ~
     19    -314.978213679415     -0.000000009002      0.00000093      0.00000021      0.00001153      0.00000369  ~
     20    -314.978213677638      0.000000001776      0.00000184      0.00000040      0.00010475      0.00003010  ~
     21    -314.978213677451      0.000000000187      0.00000123      0.00000028      0.00005538      0.00001581  ~
     22    -314.978213674418      0.000000003033      0.00000138      0.00000039      0.00016625      0.00004407  ~
     23    -314.978213678607     -0.000000004189      0.00000388      0.00000094      0.00017426      0.00004697  ~
     24    -314.978213675559      0.000000003048      0.00000137      0.00000024      0.00002793      0.00000895  ~
     25    -314.978213673075      0.000000002484      0.00000080      0.00000018      0.00001291      0.00000498  ~
     26    -314.978213676139     -0.000000003064      0.00000089      0.00000023      0.00003971      0.00001302  ~
     27    -314.978213671839      0.000000004300      0.00000077      0.00000018      0.00002826      0.00000823  ~
     28    -314.978213673411     -0.000000001573      0.00000140      0.00000033      0.00011366      0.00003632  ~
     29    -314.978213677295     -0.000000003884      0.00000226      0.00000043      0.00007600      0.00002151  ~
     30    -314.978213675553      0.000000001742      0.00000254      0.00000066      0.00008147      0.00002317  ~
     31    -314.978213672554      0.000000002999      0.00000196      0.00000051      0.00002894      0.00000870  ~
     32    -314.978213674658     -0.000000002104      0.00000115      0.00000029      0.00005295      0.00001388  ~
     33    -314.978213675814     -0.000000001156      0.00000133      0.00000028      0.00004642      0.00001773  ~
     34    -314.978213681132     -0.000000005318      0.00000072      0.00000015      0.00006119      0.00001669  ~
     35    -314.978213676189      0.000000004943      0.00000085      0.00000021      0.00004925      0.00001266  ~
     36    -314.978213671453      0.000000004736      0.00000156      0.00000041      0.00056469      0.00017151  ~
     37    -314.978213666322      0.000000005131      0.00000887      0.00000232      0.00058015      0.00017746  ~
     38    -314.978213678422     -0.000000012100      0.00000287      0.00000066      0.00006668      0.00002057  ~
     39    -314.978213675087      0.000000003335      0.00000056      0.00000016      0.00001441      0.00000388  ~
     40    -314.978213676295     -0.000000001208      0.00000027      0.00000008      0.00000523      0.00000190  ~
  --------------------------------------------------------------------------------------------------------------- ~

	Writing optimization data to binary file.
	Final energy is   -314.9782136762946
	Final (previous) structure:
	Cartesian Geometry (in Angstrom)
	    C    -2.0533373081   1.6582317898  -0.1322722805
	    H    -1.0206517507   1.8198290152  -0.4409840134
	    H    -2.3249500270   2.4651553151   0.5482242120
	    H    -2.6793295482   1.7448112395  -1.0219264082
	    C     2.4959431233   0.6560492951  -1.0167035204
	    H     3.4911200933   0.9458676058  -1.3539282623
	    H     1.8134308391   1.4761073759  -1.2468181303
	    H     2.1875598461  -0.2096875129  -1.6024826104
	    C    -2.2434467704   0.2939874053   0.5219655874
	    H    -3.2843499247   0.1967415452   0.8390458585
	    H    -1.6421388991   0.2262356820   1.4317378886
	    C     2.4949338138   0.3490996754   0.4767855509
	    H     3.1790479870  -0.4810523620   0.6743896409
	    H     2.8891205655   1.2109303529   1.0206274603
	    C    -1.9066965992  -0.8688440209  -0.4098707713
	    H    -2.5105541072  -0.7736832691  -1.3177453783
	    H    -2.2074170827  -1.8067759671   0.0661740781
	    C    -0.4316837006  -0.9857856926  -0.7992069749
	    H    -0.1121527488  -0.0855226551  -1.3266117837
	    H    -0.3408877805  -1.8045826361  -1.5170566546
	    C     0.4946362359  -1.2536494759   0.3978292945
	    H    -0.0760724776  -1.8077648774   1.1485798250
	    H     1.3074888363  -1.9191133564   0.0924026844
	    C     1.1203872604  -0.0068630682   1.0424101468
	    H     0.4523814938   0.8492112613   0.9248083019
	    H     1.2267954638  -0.1681176712   2.1178599112
	Saving final (previous) structure.
			--------------------------
			 OPTKING Finished Execution 
			--------------------------

    Final optimized geometry and variables:
    Molecular point group: c1
    Full point group: C1

    Geometry (in Angstrom), charge = 0, multiplicity = 1:

    C           -2.053337308136     1.658231789824    -0.132272280518
    H           -1.020651750690     1.819829015184    -0.440984013424
    H           -2.324950026969     2.465155315096     0.548224211958
    H           -2.679329548200     1.744811239477    -1.021926408227
    C            2.495943123270     0.656049295057    -1.016703520407
    H            3.491120093291     0.945867605752    -1.353928262300
    H            1.813430839129     1.476107375898    -1.246818130310
    H            2.187559846125    -0.209687512911    -1.602482610350
    C           -2.243446770428     0.293987405253     0.521965587440
    H           -3.284349924664     0.196741545215     0.839045858477
    H           -1.642138899124     0.226235682027     1.431737888574
    C            2.494933813811     0.349099675384     0.476785550929
    H            3.179047987025    -0.481052362042     0.674389640942
    H            2.889120565536     1.210930352901     1.020627460337
    C           -1.906696599158    -0.868844020901    -0.409870771312
    H           -2.510554107219    -0.773683269097    -1.317745378324
    H           -2.207417082669    -1.806775967080     0.066174078079
    C           -0.431683700563    -0.985785692645    -0.799206974923
    H           -0.112152748830    -0.085522655116    -1.326611783743
    H           -0.340887780470    -1.804582636070    -1.517056654568
    C            0.494636235904    -1.253649475935     0.397829294534
    H           -0.076072477560    -1.807764877446     1.148579824957
    H            1.307488836284    -1.919113356408     0.092402684397
    C            1.120387260394    -0.006863068155     1.042410146779
    H            0.452381493823     0.849211261344     0.924808301911
    H            1.226795463774    -0.168117671158     2.117859911201

	Cleaning optimization helper files.

*** Psi4 exiting successfully. Buy a developer a beer!
