    -----------------------------------------------------------------------
          Psi4: An Open-Source Ab Initio Electronic Structure Package
                              Psi4 1.0.0 Driver

                          Git: Rev {master} 6a9a71b dirty

    J. M. Turney, A. C. Simmonett, R. M. Parrish, E. G. Hohenstein,
    F. A. Evangelista, J. T. Fermann, B. J. Mintz, L. A. Burns, J. J. Wilke,
    M. L. Abrams, N. J. Russ, M. L. Leininger, C. L. Janssen, E. T. Seidl,
    W. D. Allen, H. F. Schaefer, R. A. King, E. F. Valeev, C. D. Sherrill,
    and T. D. Crawford, WIREs Comput. Mol. Sci. 2, 556-565 (2012)
    (doi: 10.1002/wcms.93)

                         Additional Contributions by
    A. E. DePrince, U. Bozkaya, A. Yu. Sokolov, D. G. A. Smith, R. Di Remigio,
    R. M. Richard, J. F. Gonthier, H. R. McAlexander, M. Saitow, and
    B. P. Pritchard
    -----------------------------------------------------------------------


    Psi4 started on: Tue Sep 27 23:42:49 2016

    Process ID:  28236
    PSI4DATADIR: /usr/local/hpc5/psi4conda/share/psi4
    Memory level set to 256.000 MB

  ==> Input File <==

--------------------------------------------------------------------------
memory 40 Gb

molecule molecule_2 {
0 1
C            2.167034256997    -1.148433470783     0.926838505106
H            1.493753179736    -0.678068811369     1.641337711449
H            3.169935775867    -0.764594409333     1.119323529599
H            2.175362050831    -2.219827555102     1.129445426653
C           -2.243742550572    -1.148592347738    -0.876283310392
H           -3.152568863068    -1.226332218677    -1.473655533497
H           -2.070375305501    -2.116488112020    -0.403535611808
H           -1.412862576859    -0.962194493237    -1.555893658645
C            1.764695763344    -0.858742174144    -0.517024569673
H            2.494926256559    -1.338005858899    -1.172587154166
H            0.803939214939    -1.325938717898    -0.744786061363
C           -2.365636881061    -0.054889101030     0.181364154125
H           -2.576779947110     0.902863361318    -0.302170045042
H           -3.234781346798    -0.276032105276     0.803458499785
C            1.704736254838     0.638515107105    -0.849794739078
H            2.450421776031     1.162281585137    -0.242371025917
H            2.007715547247     0.783528529674    -1.889662327873
C            0.350552083007     1.331386706840    -0.674107259860
H            0.485485270730     2.374657235767    -0.971065118177
H           -0.364951799848     0.912822065648    -1.386478519006
C           -0.255065800336     1.305902574829     0.734021620495
H            0.546229039858     1.412573199576     1.471292923746
H           -0.891282433199     2.187670455416     0.853298344147
C           -1.119277114431     0.087548278277     1.074071215374
H           -0.534196944005    -0.831754861989     1.017900783194
H           -1.429213943092     0.184720678546     2.117035249416
}

set globals {
  reference rhf
  g_convergence gau_verytight
  basis aug-cc-pvtz
  freeze_core true
  scf_type df
  mp_type df
}
optimize('mp2')
--------------------------------------------------------------------------
/usr/local/hpc5/psi4conda/lib/python2.7/site-packages/v2rdm_casscf/v2rdm_casscf.so loaded.

  Memory set to  40.000 GiB by Python script.
gradient() will perform analytic gradient computation.

*** tstart() called on wr41
*** at Tue Sep 27 23:42:49 2016


         ---------------------------------------------------------
                                   SCF
            by Justin Turney, Rob Parrish, and Andy Simmonett
                              RHF Reference
                       24 Threads,  40000 MiB Core
         ---------------------------------------------------------

  ==> Geometry <==

    Molecular point group: c1
    Full point group: C1

    Geometry (in Angstrom), charge = 0, multiplicity = 1:

       Center              X                  Y                   Z               Mass       
    ------------   -----------------  -----------------  -----------------  -----------------
           C          2.167034256997    -1.148433470783     0.926838505106    12.000000000000
           H          1.493753179736    -0.678068811369     1.641337711449     1.007825032070
           H          3.169935775867    -0.764594409333     1.119323529599     1.007825032070
           H          2.175362050831    -2.219827555102     1.129445426653     1.007825032070
           C         -2.243742550572    -1.148592347738    -0.876283310392    12.000000000000
           H         -3.152568863068    -1.226332218677    -1.473655533497     1.007825032070
           H         -2.070375305501    -2.116488112020    -0.403535611808     1.007825032070
           H         -1.412862576859    -0.962194493237    -1.555893658645     1.007825032070
           C          1.764695763344    -0.858742174144    -0.517024569673    12.000000000000
           H          2.494926256559    -1.338005858899    -1.172587154166     1.007825032070
           H          0.803939214939    -1.325938717898    -0.744786061363     1.007825032070
           C         -2.365636881061    -0.054889101030     0.181364154125    12.000000000000
           H         -2.576779947110     0.902863361318    -0.302170045042     1.007825032070
           H         -3.234781346798    -0.276032105276     0.803458499785     1.007825032070
           C          1.704736254838     0.638515107105    -0.849794739078    12.000000000000
           H          2.450421776031     1.162281585137    -0.242371025917     1.007825032070
           H          2.007715547247     0.783528529674    -1.889662327873     1.007825032070
           C          0.350552083007     1.331386706840    -0.674107259860    12.000000000000
           H          0.485485270730     2.374657235767    -0.971065118177     1.007825032070
           H         -0.364951799848     0.912822065648    -1.386478519006     1.007825032070
           C         -0.255065800336     1.305902574829     0.734021620495    12.000000000000
           H          0.546229039858     1.412573199576     1.471292923746     1.007825032070
           H         -0.891282433199     2.187670455416     0.853298344147     1.007825032070
           C         -1.119277114431     0.087548278277     1.074071215374    12.000000000000
           H         -0.534196944005    -0.831754861989     1.017900783194     1.007825032070
           H         -1.429213943092     0.184720678546     2.117035249416     1.007825032070

  Running in c1 symmetry.

  Rotational constants: A =      0.08181  B =      0.03917  C =      0.03619 [cm^-1]
  Rotational constants: A =   2452.55661  B =   1174.25735  C =   1084.84633 [MHz]
  Nuclear repulsion =  411.055328000982513

  Charge       = 0
  Multiplicity = 1
  Electrons    = 66
  Nalpha       = 33
  Nbeta        = 33

  ==> Algorithm <==

  SCF Algorithm Type is DF.
  DIIS enabled.
  MOM disabled.
  Fractional occupation disabled.
  Guess Type is SAD.
  Energy threshold   = 1.00e-10
  Density threshold  = 1.00e-10
  Integral threshold = 0.00e+00

  ==> Primary Basis <==

  Basis Set: AUG-CC-PVTZ
    Number of shells: 274
    Number of basis function: 782
    Number of Cartesian functions: 890
    Spherical Harmonics?: true
    Max angular momentum: 3

  ==> Pre-Iterations <==

   -------------------------------------------------------
    Irrep   Nso     Nmo     Nalpha   Nbeta   Ndocc  Nsocc
   -------------------------------------------------------
     A        782     782       0       0       0       0
   -------------------------------------------------------
    Total     782     782      33      33      33       0
   -------------------------------------------------------

  ==> Integral Setup <==

  ==> DFJK: Density-Fitted J/K Matrices <==

    J tasked:                  Yes
    K tasked:                  Yes
    wK tasked:                  No
    OpenMP threads:             24
    Integrals threads:          24
    Memory (MB):             28610
    Algorithm:                Core
    Integral Cache:           NONE
    Schwarz Cutoff:          1E-12
    Fitting Condition:       1E-12

   => Auxiliary Basis Set <=

  Basis Set: 
    Number of shells: 492
    Number of basis function: 1660
    Number of Cartesian functions: 2038
    Spherical Harmonics?: true
    Max angular momentum: 4

  Minimum eigenvalue in the overlap matrix is 1.4355302355E-06.
  Using Symmetric Orthogonalization.
  SCF Guess: Superposition of Atomic Densities via on-the-fly atomic UHF.

  ==> Iterations <==

                           Total Energy        Delta E     RMS |[F,P]|

   @DF-RHF iter   0:  -317.19696943388885   -3.17197e+02   7.10555e-03 
   @DF-RHF iter   1:  -313.31864386024779    3.87833e+00   6.35065e-04 
   @DF-RHF iter   2:  -313.50367579933902   -1.85032e-01   2.07768e-04 DIIS
   @DF-RHF iter   3:  -313.52329712293351   -1.96213e-02   8.91289e-05 DIIS
   @DF-RHF iter   4:  -313.52679539385235   -3.49827e-03   1.58633e-05 DIIS
   @DF-RHF iter   5:  -313.52695520804048   -1.59814e-04   4.14563e-06 DIIS
   @DF-RHF iter   6:  -313.52696613102353   -1.09230e-05   1.27395e-06 DIIS
   @DF-RHF iter   7:  -313.52696693952623   -8.08503e-07   2.71364e-07 DIIS
   @DF-RHF iter   8:  -313.52696699383284   -5.43066e-08   6.68404e-08 DIIS
   @DF-RHF iter   9:  -313.52696699693354   -3.10069e-09   2.19621e-08 DIIS
   @DF-RHF iter  10:  -313.52696699725777   -3.24235e-10   6.10521e-09 DIIS
   @DF-RHF iter  11:  -313.52696699728222   -2.44427e-11   1.35332e-09 DIIS
   @DF-RHF iter  12:  -313.52696699728392   -1.70530e-12   3.37466e-10 DIIS
   @DF-RHF iter  13:  -313.52696699728392    0.00000e+00   1.08979e-10 DIIS
   @DF-RHF iter  14:  -313.52696699728313    7.95808e-13   3.07324e-11 DIIS

  ==> Post-Iterations <==

    Orbital Energies (a.u.)
    -----------------------

    Doubly Occupied:                                                      

       1A    -11.213060     2A    -11.212272     3A    -11.211382  
       4A    -11.210989     5A    -11.210101     6A    -11.209483  
       7A    -11.207888     8A    -11.206009     9A     -1.092425  
      10A     -1.054659    11A     -1.005863    12A     -0.954807  
      13A     -0.884914    14A     -0.829429    15A     -0.787926  
      16A     -0.758041    17A     -0.639289    18A     -0.634086  
      19A     -0.605776    20A     -0.587939    21A     -0.575492  
      22A     -0.570913    23A     -0.547238    24A     -0.540116  
      25A     -0.503774    26A     -0.500252    27A     -0.498626  
      28A     -0.471331    29A     -0.467311    30A     -0.463068  
      31A     -0.439698    32A     -0.434287    33A     -0.430136  

    Virtual:                                                              

      34A      0.029046    35A      0.032986    36A      0.034266  
      37A      0.035544    38A      0.047549    39A      0.048737  
      40A      0.050103    41A      0.051935    42A      0.053390  
      43A      0.071368    44A      0.071639    45A      0.073551  
      46A      0.074410    47A      0.075537    48A      0.080871  
      49A      0.084371    50A      0.100355    51A      0.103218  
      52A      0.113494    53A      0.119281    54A      0.124381  
      55A      0.126600    56A      0.132481    57A      0.133293  
      58A      0.135710    59A      0.136217    60A      0.137833  
      61A      0.143103    62A      0.147243    63A      0.148722  
      64A      0.149671    65A      0.153445    66A      0.158601  
      67A      0.166900    68A      0.172544    69A      0.174730  
      70A      0.176016    71A      0.179733    72A      0.180642  
      73A      0.184160    74A      0.190903    75A      0.194935  
      76A      0.198894    77A      0.202014    78A      0.222432  
      79A      0.224597    80A      0.232711    81A      0.240727  
      82A      0.242637    83A      0.248802    84A      0.262819  
      85A      0.269396    86A      0.282608    87A      0.287179  
      88A      0.292022    89A      0.293579    90A      0.296703  
      91A      0.298959    92A      0.307893    93A      0.314468  
      94A      0.320866    95A      0.322557    96A      0.324785  
      97A      0.329165    98A      0.331176    99A      0.334589  
     100A      0.340645   101A      0.343065   102A      0.346428  
     103A      0.352125   104A      0.353400   105A      0.356685  
     106A      0.362549   107A      0.363833   108A      0.367567  
     109A      0.371762   110A      0.378213   111A      0.379239  
     112A      0.380919   113A      0.386627   114A      0.391499  
     115A      0.394110   116A      0.397167   117A      0.400391  
     118A      0.403324   119A      0.404608   120A      0.414011  
     121A      0.418023   122A      0.423800   123A      0.425112  
     124A      0.433521   125A      0.439505   126A      0.446584  
     127A      0.448251   128A      0.450405   129A      0.454395  
     130A      0.457416   131A      0.463782   132A      0.465648  
     133A      0.473506   134A      0.474245   135A      0.479734  
     136A      0.483869   137A      0.485881   138A      0.492056  
     139A      0.495465   140A      0.501075   141A      0.504863  
     142A      0.506328   143A      0.510165   144A      0.515748  
     145A      0.518306   146A      0.520506   147A      0.525351  
     148A      0.532682   149A      0.533872   150A      0.539412  
     151A      0.542716   152A      0.550782   153A      0.560025  
     154A      0.562108   155A      0.565184   156A      0.570383  
     157A      0.576261   158A      0.581865   159A      0.584362  
     160A      0.586919   161A      0.593575   162A      0.597496  
     163A      0.597724   164A      0.605147   165A      0.609798  
     166A      0.611499   167A      0.617234   168A      0.619960  
     169A      0.622838   170A      0.631014   171A      0.638065  
     172A      0.639908   173A      0.640677   174A      0.646871  
     175A      0.650750   176A      0.660635   177A      0.663350  
     178A      0.669894   179A      0.673725   180A      0.678838  
     181A      0.685448   182A      0.689371   183A      0.692022  
     184A      0.697200   185A      0.699476   186A      0.701388  
     187A      0.712770   188A      0.715601   189A      0.718796  
     190A      0.722936   191A      0.735375   192A      0.735847  
     193A      0.743053   194A      0.748874   195A      0.751771  
     196A      0.761442   197A      0.769331   198A      0.773478  
     199A      0.790137   200A      0.794540   201A      0.800685  
     202A      0.806935   203A      0.813367   204A      0.831762  
     205A      0.835410   206A      0.844215   207A      0.848597  
     208A      0.852869   209A      0.864158   210A      0.869050  
     211A      0.874220   212A      0.880029   213A      0.885168  
     214A      0.889298   215A      0.900117   216A      0.905307  
     217A      0.906847   218A      0.912480   219A      0.914921  
     220A      0.921154   221A      0.922742   222A      0.927496  
     223A      0.937113   224A      0.941076   225A      0.945580  
     226A      0.957393   227A      0.959976   228A      0.962362  
     229A      0.969615   230A      0.975675   231A      0.977067  
     232A      0.985036   233A      0.990097   234A      0.994744  
     235A      0.995938   236A      1.005550   237A      1.006368  
     238A      1.012883   239A      1.015223   240A      1.025663  
     241A      1.027975   242A      1.035006   243A      1.038102  
     244A      1.047520   245A      1.053734   246A      1.055610  
     247A      1.058857   248A      1.066647   249A      1.071750  
     250A      1.086540   251A      1.089925   252A      1.093448  
     253A      1.099108   254A      1.103790   255A      1.106850  
     256A      1.120142   257A      1.122561   258A      1.128817  
     259A      1.132666   260A      1.138286   261A      1.145600  
     262A      1.148613   263A      1.154346   264A      1.160022  
     265A      1.163523   266A      1.166012   267A      1.173114  
     268A      1.176940   269A      1.183315   270A      1.186598  
     271A      1.189821   272A      1.203265   273A      1.205224  
     274A      1.211688   275A      1.216532   276A      1.220534  
     277A      1.234357   278A      1.237470   279A      1.241393  
     280A      1.246944   281A      1.253259   282A      1.255193  
     283A      1.262113   284A      1.268423   285A      1.274589  
     286A      1.278083   287A      1.287546   288A      1.295942  
     289A      1.298681   290A      1.301937   291A      1.306113  
     292A      1.312807   293A      1.315921   294A      1.322345  
     295A      1.328517   296A      1.342921   297A      1.347075  
     298A      1.350733   299A      1.357635   300A      1.358596  
     301A      1.369003   302A      1.371107   303A      1.378604  
     304A      1.384294   305A      1.390793   306A      1.394381  
     307A      1.402449   308A      1.415242   309A      1.424561  
     310A      1.428240   311A      1.442090   312A      1.450808  
     313A      1.456925   314A      1.461022   315A      1.471310  
     316A      1.478938   317A      1.482943   318A      1.490094  
     319A      1.492642   320A      1.496456   321A      1.505895  
     322A      1.515425   323A      1.523485   324A      1.527019  
     325A      1.535530   326A      1.544858   327A      1.548245  
     328A      1.553355   329A      1.559775   330A      1.571402  
     331A      1.582003   332A      1.583481   333A      1.589749  
     334A      1.603023   335A      1.607576   336A      1.611321  
     337A      1.618933   338A      1.625465   339A      1.632583  
     340A      1.637038   341A      1.648810   342A      1.654401  
     343A      1.656160   344A      1.661177   345A      1.663070  
     346A      1.684091   347A      1.689070   348A      1.701287  
     349A      1.709007   350A      1.715121   351A      1.723472  
     352A      1.726772   353A      1.733333   354A      1.735617  
     355A      1.739512   356A      1.744126   357A      1.745407  
     358A      1.751139   359A      1.757204   360A      1.761959  
     361A      1.768930   362A      1.780691   363A      1.783387  
     364A      1.796005   365A      1.799576   366A      1.805887  
     367A      1.808699   368A      1.815999   369A      1.824436  
     370A      1.828456   371A      1.832806   372A      1.839278  
     373A      1.847677   374A      1.857533   375A      1.860277  
     376A      1.868021   377A      1.872026   378A      1.880822  
     379A      1.887055   380A      1.895188   381A      1.902794  
     382A      1.908319   383A      1.913465   384A      1.919635  
     385A      1.923095   386A      1.932437   387A      1.937288  
     388A      1.948729   389A      1.952595   390A      1.959411  
     391A      1.969073   392A      1.975853   393A      1.977090  
     394A      1.990467   395A      2.000065   396A      2.003824  
     397A      2.010919   398A      2.016979   399A      2.018641  
     400A      2.025485   401A      2.034675   402A      2.040094  
     403A      2.051848   404A      2.053889   405A      2.056668  
     406A      2.068334   407A      2.078725   408A      2.082958  
     409A      2.090355   410A      2.102090   411A      2.108886  
     412A      2.111064   413A      2.119918   414A      2.131638  
     415A      2.133668   416A      2.141717   417A      2.150036  
     418A      2.151931   419A      2.157130   420A      2.174109  
     421A      2.184009   422A      2.189370   423A      2.208793  
     424A      2.220928   425A      2.226274   426A      2.228390  
     427A      2.241257   428A      2.254560   429A      2.267158  
     430A      2.274732   431A      2.277689   432A      2.292747  
     433A      2.294720   434A      2.307404   435A      2.309357  
     436A      2.320394   437A      2.325332   438A      2.334899  
     439A      2.337900   440A      2.346624   441A      2.355981  
     442A      2.362796   443A      2.366939   444A      2.376558  
     445A      2.381157   446A      2.389390   447A      2.407706  
     448A      2.410594   449A      2.426396   450A      2.438993  
     451A      2.446592   452A      2.462123   453A      2.469990  
     454A      2.486654   455A      2.492941   456A      2.503319  
     457A      2.505346   458A      2.517227   459A      2.523892  
     460A      2.526476   461A      2.550778   462A      2.554821  
     463A      2.559551   464A      2.577711   465A      2.580727  
     466A      2.592156   467A      2.602871   468A      2.612792  
     469A      2.626866   470A      2.635527   471A      2.652391  
     472A      2.656905   473A      2.659642   474A      2.683216  
     475A      2.696896   476A      2.701089   477A      2.726431  
     478A      2.727933   479A      2.752199   480A      2.777000  
     481A      2.786163   482A      2.795862   483A      2.826080  
     484A      2.861888   485A      2.957046   486A      2.984214  
     487A      3.099207   488A      3.100570   489A      3.118737  
     490A      3.141192   491A      3.226482   492A      3.267910  
     493A      3.281858   494A      3.386478   495A      3.398338  
     496A      3.418750   497A      3.430280   498A      3.449745  
     499A      3.472305   500A      3.486908   501A      3.502007  
     502A      3.537141   503A      3.541247   504A      3.551284  
     505A      3.559010   506A      3.571172   507A      3.595560  
     508A      3.604096   509A      3.620344   510A      3.627678  
     511A      3.628604   512A      3.648897   513A      3.655333  
     514A      3.668488   515A      3.687265   516A      3.694731  
     517A      3.706332   518A      3.709682   519A      3.717084  
     520A      3.727454   521A      3.737176   522A      3.743255  
     523A      3.752679   524A      3.757083   525A      3.768834  
     526A      3.775589   527A      3.792269   528A      3.794043  
     529A      3.795598   530A      3.805570   531A      3.819099  
     532A      3.824742   533A      3.834135   534A      3.845365  
     535A      3.853678   536A      3.864317   537A      3.869570  
     538A      3.876764   539A      3.880918   540A      3.893204  
     541A      3.903756   542A      3.909678   543A      3.917274  
     544A      3.930940   545A      3.934276   546A      3.942227  
     547A      3.947878   548A      3.958922   549A      3.963905  
     550A      3.974672   551A      3.981189   552A      3.993439  
     553A      3.996526   554A      4.007569   555A      4.010174  
     556A      4.020186   557A      4.027496   558A      4.035237  
     559A      4.043434   560A      4.045678   561A      4.055271  
     562A      4.059447   563A      4.066729   564A      4.082185  
     565A      4.086438   566A      4.098943   567A      4.105183  
     568A      4.112833   569A      4.118507   570A      4.125862  
     571A      4.129856   572A      4.144962   573A      4.148191  
     574A      4.162760   575A      4.178164   576A      4.183148  
     577A      4.201130   578A      4.207253   579A      4.211688  
     580A      4.217978   581A      4.227422   582A      4.232823  
     583A      4.240278   584A      4.251776   585A      4.261584  
     586A      4.269642   587A      4.273321   588A      4.292196  
     589A      4.304445   590A      4.311172   591A      4.315246  
     592A      4.322375   593A      4.326602   594A      4.353390  
     595A      4.356681   596A      4.367888   597A      4.373202  
     598A      4.387370   599A      4.392588   600A      4.396509  
     601A      4.407415   602A      4.423803   603A      4.430435  
     604A      4.438572   605A      4.452184   606A      4.460553  
     607A      4.464515   608A      4.481316   609A      4.489321  
     610A      4.510777   611A      4.530535   612A      4.538391  
     613A      4.553430   614A      4.558215   615A      4.567014  
     616A      4.577879   617A      4.591724   618A      4.599372  
     619A      4.618292   620A      4.624569   621A      4.636521  
     622A      4.650875   623A      4.662627   624A      4.674571  
     625A      4.684834   626A      4.699461   627A      4.715782  
     628A      4.731055   629A      4.752335   630A      4.753896  
     631A      4.770133   632A      4.772127   633A      4.789561  
     634A      4.796879   635A      4.805517   636A      4.821702  
     637A      4.834431   638A      4.836263   639A      4.855260  
     640A      4.864512   641A      4.877009   642A      4.885536  
     643A      4.898607   644A      4.917127   645A      4.924433  
     646A      4.940219   647A      4.941186   648A      4.953521  
     649A      4.960029   650A      4.970568   651A      4.982021  
     652A      4.986633   653A      4.998197   654A      5.006973  
     655A      5.024076   656A      5.032406   657A      5.047986  
     658A      5.055951   659A      5.078507   660A      5.089455  
     661A      5.092870   662A      5.105302   663A      5.111048  
     664A      5.126034   665A      5.141722   666A      5.152774  
     667A      5.167235   668A      5.173142   669A      5.182576  
     670A      5.196907   671A      5.204288   672A      5.214576  
     673A      5.236297   674A      5.254794   675A      5.261432  
     676A      5.266943   677A      5.278446   678A      5.286965  
     679A      5.300281   680A      5.307221   681A      5.315229  
     682A      5.336658   683A      5.339367   684A      5.346116  
     685A      5.365863   686A      5.380372   687A      5.383291  
     688A      5.397567   689A      5.405923   690A      5.421628  
     691A      5.428079   692A      5.438396   693A      5.445389  
     694A      5.449913   695A      5.459054   696A      5.476653  
     697A      5.490050   698A      5.495298   699A      5.509543  
     700A      5.512164   701A      5.531556   702A      5.548171  
     703A      5.569371   704A      5.578378   705A      5.584420  
     706A      5.606837   707A      5.624051   708A      5.632687  
     709A      5.650108   710A      5.660122   711A      5.668173  
     712A      5.674799   713A      5.696115   714A      5.696825  
     715A      5.707477   716A      5.716433   717A      5.729090  
     718A      5.741068   719A      5.747168   720A      5.758900  
     721A      5.774044   722A      5.781570   723A      5.791090  
     724A      5.802188   725A      5.833050   726A      5.849399  
     727A      5.857709   728A      5.874172   729A      5.901619  
     730A      5.919576   731A      5.962605   732A      6.001834  
     733A      6.011325   734A      6.033082   735A      6.054969  
     736A      6.081794   737A      6.091524   738A      6.106812  
     739A      6.124269   740A      6.145628   741A      6.152701  
     742A      6.174768   743A      6.200088   744A      6.244560  
     745A      6.258997   746A      6.271341   747A      6.283662  
     748A      6.309750   749A      6.319082   750A      6.323121  
     751A      6.337645   752A      6.354431   753A      6.388864  
     754A      6.419077   755A      6.429848   756A      6.445328  
     757A      6.459012   758A      6.510806   759A      6.608323  
     760A      6.669591   761A      6.711027   762A      6.747268  
     763A      6.778988   764A      6.818058   765A      6.851948  
     766A      6.924840   767A      6.953292   768A      6.962864  
     769A      6.991961   770A      7.040979   771A      7.101570  
     772A      7.143313   773A      7.159813   774A      7.173944  
     775A     18.106679   776A     18.258480   777A     18.612520  
     778A     18.722652   779A     19.199017   780A     19.431478  
     781A     19.765471   782A     20.118372  

    Final Occupation by Irrep:
              A 
    DOCC [    33 ]

  Energy converged.

  @DF-RHF Final Energy:  -313.52696699728313

   => Energetics <=

    Nuclear Repulsion Energy =            411.0553280009825130
    One-Electron Energy =               -1237.2474312557492340
    Two-Electron Energy =                 512.6651362574837094
    DFT Exchange-Correlation Energy =       0.0000000000000000
    Empirical Dispersion Energy =           0.0000000000000000
    PCM Polarization Energy =               0.0000000000000000
    EFP Energy =                            0.0000000000000000
    Total Energy =                       -313.5269669972830116


  Saving occupied orbitals to File 180.

*** tstop() called on wr41 at Tue Sep 27 23:43:28 2016
Module time:
	user time   =     775.85 seconds =      12.93 minutes
	system time =      10.65 seconds =       0.18 minutes
	total time  =         39 seconds =       0.65 minutes
Total time:
	user time   =     775.85 seconds =      12.93 minutes
	system time =      10.65 seconds =       0.18 minutes
	total time  =         39 seconds =       0.65 minutes


Properties will be evaluated at   0.000000,   0.000000,   0.000000 Bohr

Properties computed using the SCF density matrix

  Nuclear Dipole Moment: (a.u.)
     X:    -0.0368      Y:    -1.7044      Z:     0.0102

  Electronic Dipole Moment: (a.u.)
     X:     0.0123      Y:     1.7249      Z:    -0.0191

  Dipole Moment: (a.u.)
     X:    -0.0245      Y:     0.0205      Z:    -0.0089     Total:     0.0331

  Dipole Moment: (Debye)
     X:    -0.0622      Y:     0.0520      Z:    -0.0227     Total:     0.0842


  //>>>>>>>>>>>>>>>>>>>>>>>>>>>>>>>>>>>//
  //               DFMP2               //
  //<<<<<<<<<<<<<<<<<<<<<<<<<<<<<<<<<<<//


*** tstart() called on wr41
*** at Tue Sep 27 23:43:28 2016


*** tstop() called on wr41 at Tue Sep 27 23:43:28 2016
Module time:
	user time   =       6.39 seconds =       0.11 minutes
	system time =       0.23 seconds =       0.00 minutes
	total time  =          0 seconds =       0.00 minutes
Total time:
	user time   =     784.01 seconds =      13.07 minutes
	system time =      10.94 seconds =       0.18 minutes
	total time  =         39 seconds =       0.65 minutes
	 --------------------------------------------------------
	                          DF-MP2                         
	      2nd-Order Density-Fitted Moller-Plesset Theory     
	              RMP2 Wavefunction,  24 Threads             
	                                                         
	        Rob Parrish, Justin Turney, Andy Simmonett,      
	           Ed Hohenstein, and C. David Sherrill          
	 --------------------------------------------------------

   => Auxiliary Basis Set <=

  Basis Set: 
    Number of shells: 476
    Number of basis function: 1676
    Number of Cartesian functions: 2078
    Spherical Harmonics?: true
    Max angular momentum: 4

	 --------------------------------------------------------
	                 NBF =   782, NAUX =  1676
	 --------------------------------------------------------
	   CLASS    FOCC     OCC    AOCC    AVIR     VIR    FVIR
	   PAIRS       8      33      25     749     749       0
	 --------------------------------------------------------

DGAS Warning! /src/lib/libfock/apps.cc:80 is not currently checking restricted

         ------------------------------------------------------------
                                     CPHF                           
                                  Rob Parrish                       
         ------------------------------------------------------------

  ==> Geometry <==

    Molecular point group: c1
    Full point group: C1

    Geometry (in Angstrom), charge = 0, multiplicity = 1:

       Center              X                  Y                   Z               Mass       
    ------------   -----------------  -----------------  -----------------  -----------------
           C          2.167034256997    -1.148433470783     0.926838505106    12.000000000000
           H          1.493753179736    -0.678068811369     1.641337711449     1.007825032070
           H          3.169935775867    -0.764594409333     1.119323529599     1.007825032070
           H          2.175362050831    -2.219827555102     1.129445426653     1.007825032070
           C         -2.243742550572    -1.148592347738    -0.876283310392    12.000000000000
           H         -3.152568863068    -1.226332218677    -1.473655533497     1.007825032070
           H         -2.070375305501    -2.116488112020    -0.403535611808     1.007825032070
           H         -1.412862576859    -0.962194493237    -1.555893658645     1.007825032070
           C          1.764695763344    -0.858742174144    -0.517024569673    12.000000000000
           H          2.494926256559    -1.338005858899    -1.172587154166     1.007825032070
           H          0.803939214939    -1.325938717898    -0.744786061363     1.007825032070
           C         -2.365636881061    -0.054889101030     0.181364154125    12.000000000000
           H         -2.576779947110     0.902863361318    -0.302170045042     1.007825032070
           H         -3.234781346798    -0.276032105276     0.803458499785     1.007825032070
           C          1.704736254838     0.638515107105    -0.849794739078    12.000000000000
           H          2.450421776031     1.162281585137    -0.242371025917     1.007825032070
           H          2.007715547247     0.783528529674    -1.889662327873     1.007825032070
           C          0.350552083007     1.331386706840    -0.674107259860    12.000000000000
           H          0.485485270730     2.374657235767    -0.971065118177     1.007825032070
           H         -0.364951799848     0.912822065648    -1.386478519006     1.007825032070
           C         -0.255065800336     1.305902574829     0.734021620495    12.000000000000
           H          0.546229039858     1.412573199576     1.471292923746     1.007825032070
           H         -0.891282433199     2.187670455416     0.853298344147     1.007825032070
           C         -1.119277114431     0.087548278277     1.074071215374    12.000000000000
           H         -0.534196944005    -0.831754861989     1.017900783194     1.007825032070
           H         -1.429213943092     0.184720678546     2.117035249416     1.007825032070

  Nuclear repulsion =  411.055328000982513
  Reference energy  = -313.526966997283125

  ==> Basis Set <==

  Basis Set: AUG-CC-PVTZ
    Number of shells: 274
    Number of basis function: 782
    Number of Cartesian functions: 890
    Spherical Harmonics?: true
    Max angular momentum: 3

  ==> CGRSolver (by Rob Parrish) <==

   Number of roots    =         1
   Preconditioning    =    JACOBI
   Convergence cutoff =     1E-06
   Maximum iterations =       100

  ==> CPHFRHamiltonian (by Rob Parrish) <== 

  ==> DFJK: Density-Fitted J/K Matrices <==

    J tasked:                  Yes
    K tasked:                  Yes
    wK tasked:                  No
    OpenMP threads:             24
    Integrals threads:          24
    Memory (MB):             28610
    Algorithm:                Core
    Integral Cache:           NONE
    Schwarz Cutoff:          1E-12
    Fitting Condition:       1E-12

   => Auxiliary Basis Set <=

  Basis Set: 
    Number of shells: 492
    Number of basis function: 1660
    Number of Cartesian functions: 2038
    Spherical Harmonics?: true
    Max angular momentum: 4

  ==> CPHF Iterations <==

  => Iterations <=

             Iter  Converged  Remaining    Residual
  CGR           1          0          1   9.497E-02
  CGR           2          0          1   1.408E-02
  CGR           3          0          1   4.206E-03
  CGR           4          0          1   8.925E-04
  CGR           5          0          1   2.339E-04
  CGR           6          0          1   4.415E-05
  CGR           7          0          1   1.180E-05
  CGR           8          0          1   3.030E-06
  CGR           9          1          0   7.951E-07

    CGRSolver converged.

  ==> DFCorrGrad: Density-Fitted Correlated Gradients <==

    OpenMP threads:             24
    Integrals threads:          24
    Memory (MB):             28610
    Schwarz Cutoff:          0E+00
    Fitting Condition:       1E-12

   => Auxiliary Basis Set <=

  Basis Set: 
    Number of shells: 492
    Number of basis function: 1660
    Number of Cartesian functions: 2038
    Spherical Harmonics?: true
    Max angular momentum: 4

	-----------------------------------------------------------
	 ==================> DF-MP2 Energies <==================== 
	-----------------------------------------------------------
	 Reference Energy          =    -313.5269669972831252 [Eh]
	 Singles Energy            =      -0.0000000000000001 [Eh]
	 Same-Spin Energy          =      -0.3179841225387399 [Eh]
	 Opposite-Spin Energy      =      -1.1284782007004326 [Eh]
	 Correlation Energy        =      -1.4464623232391725 [Eh]
	 Total Energy              =    -314.9734293205223139 [Eh]
	-----------------------------------------------------------
	 ================> DF-SCS-MP2 Energies <================== 
	-----------------------------------------------------------
	 SCS Same-Spin Scale       =       0.3333333333333333 [-]
	 SCS Opposite-Spin Scale   =       1.2000000000000000 [-]
	 SCS Same-Spin Energy      =      -0.1059947075129133 [Eh]
	 SCS Opposite-Spin Energy  =      -1.3541738408405191 [Eh]
	 SCS Correlation Energy    =      -1.4601685483534323 [Eh]
	 SCS Total Energy          =    -314.9871355456365336 [Eh]
	-----------------------------------------------------------


  -Total Gradient:
     Atom            X                  Y                   Z
    ------   -----------------  -----------------  -----------------
       1        0.000000118988     0.000000058844    -0.000000248757
       2       -0.000000011167    -0.000000006397     0.000000030141
       3       -0.000000021771     0.000000040769     0.000000039901
       4        0.000000006741     0.000000047387     0.000000029736
       5       -0.000000129201     0.000000030011     0.000000103482
       6       -0.000000017576     0.000000002742    -0.000000067240
       7       -0.000000004382     0.000000001405    -0.000000021121
       8        0.000000005452     0.000000004345    -0.000000022373
       9       -0.000000057599    -0.000000245805     0.000000281373
      10        0.000000002089    -0.000000025311     0.000000012166
      11        0.000000005906     0.000000041052    -0.000000036619
      12        0.000000175525    -0.000000005598    -0.000000172944
      13       -0.000000025562    -0.000000026862     0.000000010830
      14       -0.000000055293    -0.000000007604     0.000000044050
      15       -0.000000120648    -0.000000112820     0.000000055540
      16        0.000000201281     0.000000152982     0.000000137757
      17        0.000000023842     0.000000087592    -0.000000194779
      18       -0.000000127798    -0.000000049116    -0.000000044492
      19        0.000000063874     0.000000066658     0.000000044488
      20       -0.000000099681    -0.000000047176     0.000000044694
      21       -0.000000041808    -0.000000022933    -0.000000009538
      22       -0.000000039982    -0.000000098947    -0.000000016443
      23        0.000000054762    -0.000000009863    -0.000000011239
      24        0.000000190278    -0.000000107518     0.000000158240
      25       -0.000000124453     0.000000230966    -0.000000023512
      26        0.000000028184     0.000000001195    -0.000000123340


			-----------------------------------------
			 OPTKING 2.0: for geometry optimizations 
			  - R.A. King,  Bethel University        
			-----------------------------------------

	Internal coordinates to be generated automatically.
	Detected frag 1 with atoms:  1 2 3 4 5 6 7 8 9 10 11 12 13 14 15 16 17 18 19 20
	 21 22 23 24 25 26
	---Fragment 1 Bond Connectivity---
	 1 : 2 3 4 9
	 2 : 1
	 3 : 1
	 4 : 1
	 5 : 6 7 8 12
	 6 : 5
	 7 : 5
	 8 : 5
	 9 : 1 10 11 15
	 10 : 9
	 11 : 9
	 12 : 5 13 14 24
	 13 : 12
	 14 : 12
	 15 : 9 16 17 18
	 16 : 15
	 17 : 15
	 18 : 15 19 20 21
	 19 : 18
	 20 : 18
	 21 : 18 22 23 24
	 22 : 21
	 23 : 21
	 24 : 12 21 25 26
	 25 : 24
	 26 : 24

	---Fragment 1 Geometry and Gradient---
	 C           4.0951012663       -2.1702247416        1.7514709441
	 H           2.8227844198       -1.2813643527        3.1016787662
	 H           5.9903104752       -1.4448740364        2.1152149250
	 H           4.1108385159       -4.1948661414        2.1343425384
	 C          -4.2400589333       -2.1705249756       -1.6559354715
	 H          -5.9574917663       -2.3174320412       -2.7848053725
	 H          -3.9124423197       -3.9995828952       -0.7625717912
	 H          -2.6699233337       -1.8182840788       -2.9402129067
	 C           3.3347917006       -1.6227875279       -0.9770348407
	 H           4.7147273466       -2.5284646375       -2.2158685883
	 H           1.5192249437       -2.5056610458       -1.4074416836
	 C          -4.4704058351       -0.1037253686        0.3427285816
	 H          -4.8694084047        1.7061644883       -0.5710186307
	 H          -6.1128508452       -0.5216250829        1.5183165237
	 C           3.2214846504        1.2066186841       -1.6058793260
	 H           4.6306260668        2.1963938852       -0.4580148615
	 H           3.7940325370        1.4806543384       -3.5709442833
	 C           0.6624474322        2.5159562529       -1.2738781053
	 H           0.9174342032        4.4874518351       -1.8350471306
	 H          -0.6896589534        1.7249837121       -2.6200646901
	 C          -0.4820045085        2.4677982227        1.3870998384
	 H           1.0322232912        2.6693764899        2.7803406871
	 H          -1.6842797058        4.1340980297        1.6125001801
	 C          -2.1151272131        0.1654422693        2.0297004443
	 H          -1.0094859252       -1.5717888989        1.9235537107
	 H          -2.7008229377        0.3490714935        4.0006168351
	             0.0000001190        0.0000000588       -0.0000002488
	            -0.0000000112       -0.0000000064        0.0000000301
	            -0.0000000218        0.0000000408        0.0000000399
	             0.0000000067        0.0000000474        0.0000000297
	            -0.0000001292        0.0000000300        0.0000001035
	            -0.0000000176        0.0000000027       -0.0000000672
	            -0.0000000044        0.0000000014       -0.0000000211
	             0.0000000055        0.0000000043       -0.0000000224
	            -0.0000000576       -0.0000002458        0.0000002814
	             0.0000000021       -0.0000000253        0.0000000122
	             0.0000000059        0.0000000411       -0.0000000366
	             0.0000001755       -0.0000000056       -0.0000001729
	            -0.0000000256       -0.0000000269        0.0000000108
	            -0.0000000553       -0.0000000076        0.0000000440
	            -0.0000001206       -0.0000001128        0.0000000555
	             0.0000002013        0.0000001530        0.0000001378
	             0.0000000238        0.0000000876       -0.0000001948
	            -0.0000001278       -0.0000000491       -0.0000000445
	             0.0000000639        0.0000000667        0.0000000445
	            -0.0000000997       -0.0000000472        0.0000000447
	            -0.0000000418       -0.0000000229       -0.0000000095
	            -0.0000000400       -0.0000000989       -0.0000000164
	             0.0000000548       -0.0000000099       -0.0000000112
	             0.0000001903       -0.0000001075        0.0000001582
	            -0.0000001245        0.0000002310       -0.0000000235
	             0.0000000282        0.0000000012       -0.0000001233

	Previous optimization step data not found.  Starting new optimization.

	---Fragment 1 Intrafragment Coordinates---
	 - Coordinate -           - BOHR/RAD -       - ANG/DEG -
	 R(1,2)           =         2.057164	       1.088604
	 R(1,3)           =         2.061616	       1.090960
	 R(1,4)           =         2.060585	       1.090415
	 R(1,9)           =         2.884875	       1.526610
	 R(5,6)           =         2.060462	       1.090350
	 R(5,7)           =         2.061767	       1.091040
	 R(5,8)           =         2.058827	       1.089484
	 R(5,12)          =         2.884333	       1.526323
	 R(9,10)          =         2.063779	       1.092105
	 R(9,11)          =         2.064219	       1.092337
	 R(9,15)          =         2.900659	       1.534963
	 R(12,13)         =         2.066359	       1.093470
	 R(12,14)         =         2.062589	       1.091475
	 R(12,24)         =         2.909581	       1.539684
	 R(15,16)         =         2.069523	       1.095145
	 R(15,17)         =         2.065039	       1.092772
	 R(15,18)         =         2.893659	       1.531258
	 R(18,19)         =         2.065605	       1.093071
	 R(18,20)         =         2.065441	       1.092984
	 R(18,21)         =         2.897049	       1.533052
	 R(21,22)         =         2.067520	       1.094085
	 R(21,23)         =         2.067082	       1.093852
	 R(21,24)         =         2.894973	       1.531954
	 R(24,25)         =         2.061961	       1.091143
	 R(24,26)         =         2.064285	       1.092372
	 B(1,9,10)        =         1.884139	     107.953234
	 B(1,9,11)        =         1.926072	     110.355782
	 B(1,9,15)        =         1.982791	     113.605533
	 B(2,1,3)         =         1.876259	     107.501741
	 B(2,1,4)         =         1.883165	     107.897403
	 B(2,1,9)         =         1.956030	     112.072250
	 B(3,1,4)         =         1.881674	     107.812003
	 B(3,1,9)         =         1.920251	     110.022279
	 B(4,1,9)         =         1.943570	     111.358345
	 B(5,12,13)       =         1.914128	     109.671459
	 B(5,12,14)       =         1.889523	     108.261666
	 B(5,12,24)       =         1.986034	     113.791351
	 B(6,5,7)         =         1.882404	     107.853787
	 B(6,5,8)         =         1.881902	     107.825057
	 B(6,5,12)        =         1.943532	     111.356199
	 B(7,5,8)         =         1.876414	     107.510626
	 B(7,5,12)        =         1.926365	     110.372569
	 B(8,5,12)        =         1.950407	     111.750069
	 B(9,15,16)       =         1.896179	     108.643059
	 B(9,15,17)       =         1.901713	     108.960143
	 B(9,15,18)       =         2.038729	     116.810547
	 B(10,9,11)       =         1.849640	     105.976557
	 B(10,9,15)       =         1.900801	     108.907874
	 B(11,9,15)       =         1.915201	     109.732961
	 B(12,24,21)      =         1.983980	     113.673702
	 B(12,24,25)      =         1.903148	     109.042357
	 B(12,24,26)      =         1.909356	     109.398014
	 B(13,12,14)      =         1.850152	     106.005917
	 B(13,12,24)      =         1.908867	     109.370019
	 B(14,12,24)      =         1.910155	     109.443818
	 B(15,18,19)      =         1.866623	     106.949613
	 B(15,18,20)      =         1.908022	     109.321590
	 B(15,18,21)      =         2.034453	     116.565544
	 B(16,15,17)      =         1.849956	     105.994656
	 B(16,15,18)      =         1.898762	     108.791072
	 B(17,15,18)      =         1.869550	     107.117322
	 B(18,21,22)      =         1.904998	     109.148346
	 B(18,21,23)      =         1.892859	     108.452860
	 B(18,21,24)      =         2.026345	     116.101043
	 B(19,18,20)      =         1.843412	     105.619720
	 B(19,18,21)      =         1.890375	     108.310500
	 B(20,18,21)      =         1.911005	     109.492538
	 B(21,24,25)      =         1.934922	     110.862845
	 B(21,24,26)      =         1.876793	     107.532302
	 B(22,21,23)      =         1.848246	     105.896700
	 B(22,21,24)      =         1.918901	     109.944948
	 B(23,21,24)      =         1.863750	     106.785016
	 B(25,24,26)      =         1.850670	     106.035558
	 D(1,9,15,16)     =         0.547585	      31.374305
	 D(1,9,15,17)     =         2.555570	     146.423383
	 D(1,9,15,18)     =        -1.607253	     -92.088805
	 D(2,1,9,10)      =         3.116843	     178.581921
	 D(2,1,9,11)      =        -1.152360	     -66.025339
	 D(2,1,9,15)      =         1.006979	      57.695621
	 D(3,1,9,10)      =         1.030327	      59.033393
	 D(3,1,9,11)      =         3.044310	     174.426132
	 D(3,1,9,15)      =        -1.079537	     -61.852907
	 D(4,1,9,10)      =        -1.054955	     -60.444447
	 D(4,1,9,11)      =         0.959029	      54.948292
	 D(4,1,9,15)      =         3.118367	     178.669252
	 D(5,12,24,21)    =         1.822896	     104.444252
	 D(5,12,24,25)    =        -0.345536	     -19.797772
	 D(5,12,24,26)    =        -2.362317	    -135.350818
	 D(6,5,12,13)     =        -1.014135	     -58.105663
	 D(6,5,12,14)     =         0.997082	      57.128579
	 D(6,5,12,24)     =         3.124793	     179.037424
	 D(7,5,12,13)     =        -3.104335	    -177.865292
	 D(7,5,12,14)     =        -1.093118	     -62.631051
	 D(7,5,12,24)     =         1.034593	      59.277795
	 D(8,5,12,13)     =         1.091698	      62.549681
	 D(8,5,12,14)     =         3.102915	     177.783923
	 D(8,5,12,24)     =        -1.052560	     -60.307232
	 D(9,15,18,19)    =        -3.122426	    -178.901838
	 D(9,15,18,20)    =        -1.134502	     -65.002184
	 D(9,15,18,21)    =         1.043593	      59.793485
	 D(10,9,15,16)    =        -1.552897	     -88.974431
	 D(10,9,15,17)    =         0.455088	      26.074648
	 D(10,9,15,18)    =         2.575451	     147.562459
	 D(11,9,15,16)    =         2.712827	     155.433554
	 D(11,9,15,17)    =        -1.562373	     -89.517367
	 D(11,9,15,18)    =         0.557990	      31.970444
	 D(12,24,21,18)   =        -1.079663	     -61.860136
	 D(12,24,21,22)   =         3.030651	     173.643518
	 D(12,24,21,23)   =         1.033226	      59.199470
	 D(13,12,24,21)   =        -0.324240	     -18.577605
	 D(13,12,24,25)   =        -2.492673	    -142.819629
	 D(13,12,24,26)   =         1.773731	     101.627324
	 D(14,12,24,21)   =        -2.344039	    -134.303545
	 D(14,12,24,25)   =         1.770714	     101.454431
	 D(14,12,24,26)   =        -0.246067	     -14.098615
	 D(15,18,21,22)   =         0.649378	      37.206635
	 D(15,18,21,23)   =         2.655300	     152.137496
	 D(15,18,21,24)   =        -1.530622	     -87.698153
	 D(16,15,18,19)   =         1.007248	      57.711034
	 D(16,15,18,20)   =         2.995172	     171.610688
	 D(16,15,18,21)   =        -1.109918	     -63.593642
	 D(17,15,18,19)   =        -0.985280	     -56.452361
	 D(17,15,18,20)   =         1.002644	      57.447293
	 D(17,15,18,21)   =        -3.102446	    -177.757037
	 D(18,21,24,25)   =         1.071503	      61.392627
	 D(18,21,24,26)   =         3.087258	     176.886832
	 D(19,18,21,22)   =        -1.455197	     -83.376645
	 D(19,18,21,23)   =         0.550725	      31.554216
	 D(19,18,21,24)   =         2.647989	     151.718567
	 D(20,18,21,22)   =         2.825959	     161.915499
	 D(20,18,21,23)   =        -1.451305	     -83.153640
	 D(20,18,21,24)   =         0.645959	      37.010711
	 D(22,21,24,25)   =        -1.101368	     -63.103718
	 D(22,21,24,26)   =         0.914386	      52.390487
	 D(23,21,24,25)   =        -3.098793	    -177.547767
	 D(23,21,24,26)   =        -1.083039	     -62.053562
	 R(1,21)          =         6.526402	       3.453623
	 R(1,24)          =         6.640760	       3.514139
	 R(5,18)          =         6.792911	       3.594654
	 R(9,24)          =         6.476098	       3.427003

	Current energy   :      -314.9734293205

	Generating empirical Hessian (Schlegel '84) for each fragment.
	Taking RFO optimization step.
	Going to follow RFO solution 1.
	Using RFO vector 1.
	Norm of target step-size    0.00014
	Projected energy change by RFO approximation:        -0.0000000000

	Back-transformation to cartesian coordinates...
	Successfully converged to displaced geometry.

	--- Internal Coordinate Step in ANG or DEG, aJ/ANG or AJ/DEG ---
	 ---------------------------------------------------------------------------
	   Coordinate                Previous        Force       Change         New 
	   ----------                --------       ------       ------       ------
	    1 R(1,2)          =      1.088604    -0.000000    -0.000000     1.088604
	    2 R(1,3)          =      1.090960    -0.000000    -0.000000     1.090960
	    3 R(1,4)          =      1.090415     0.000000     0.000000     1.090415
	    4 R(1,9)          =      1.526610     0.000001     0.000000     1.526610
	    5 R(5,6)          =      1.090350    -0.000000    -0.000000     1.090350
	    6 R(5,7)          =      1.091040     0.000000     0.000000     1.091040
	    7 R(5,8)          =      1.089484    -0.000000    -0.000000     1.089484
	    8 R(5,12)         =      1.526323     0.000000     0.000000     1.526324
	    9 R(9,10)         =      1.092105    -0.000000    -0.000000     1.092105
	   10 R(9,11)         =      1.092337     0.000000     0.000000     1.092337
	   11 R(9,15)         =      1.534963    -0.000001    -0.000000     1.534962
	   12 R(12,13)        =      1.093470     0.000000     0.000000     1.093470
	   13 R(12,14)        =      1.091475    -0.000001    -0.000000     1.091475
	   14 R(12,24)        =      1.539684    -0.000001    -0.000000     1.539684
	   15 R(15,16)        =      1.095145    -0.000002    -0.000000     1.095144
	   16 R(15,17)        =      1.092772    -0.000002    -0.000000     1.092771
	   17 R(15,18)        =      1.531258    -0.000001    -0.000000     1.531258
	   18 R(18,19)        =      1.093071    -0.000000    -0.000000     1.093071
	   19 R(18,20)        =      1.092984    -0.000000    -0.000000     1.092984
	   20 R(18,21)        =      1.533052     0.000001     0.000000     1.533053
	   21 R(21,22)        =      1.094085     0.000000     0.000000     1.094085
	   22 R(21,23)        =      1.093852     0.000000     0.000000     1.093852
	   23 R(21,24)        =      1.531954     0.000001     0.000000     1.531954
	   24 R(24,25)        =      1.091143     0.000002     0.000000     1.091143
	   25 R(24,26)        =      1.092372     0.000001     0.000000     1.092373
	   26 B(1,9,10)       =    107.953234    -0.000000     0.000013   107.953247
	   27 B(1,9,11)       =    110.355782    -0.000000    -0.000034   110.355748
	   28 B(1,9,15)       =    113.605533     0.000000     0.000016   113.605550
	   29 B(2,1,3)        =    107.501741     0.000000     0.000022   107.501763
	   30 B(2,1,4)        =    107.897403     0.000000     0.000014   107.897417
	   31 B(2,1,9)        =    112.072250    -0.000000     0.000005   112.072255
	   32 B(3,1,4)        =    107.812003     0.000000    -0.000007   107.811996
	   33 B(3,1,9)        =    110.022279    -0.000000    -0.000010   110.022269
	   34 B(4,1,9)        =    111.358345    -0.000000    -0.000023   111.358322
	   35 B(5,12,13)      =    109.671459     0.000000     0.000027   109.671486
	   36 B(5,12,14)      =    108.261666     0.000000    -0.000000   108.261666
	   37 B(5,12,24)      =    113.791351    -0.000000    -0.000062   113.791289
	   38 B(6,5,7)        =    107.853787     0.000000    -0.000004   107.853783
	   39 B(6,5,8)        =    107.825057     0.000000     0.000021   107.825077
	   40 B(6,5,12)       =    111.356199    -0.000000    -0.000010   111.356190
	   41 B(7,5,8)        =    107.510626     0.000000     0.000001   107.510627
	   42 B(7,5,12)       =    110.372569    -0.000000    -0.000015   110.372554
	   43 B(8,5,12)       =    111.750069     0.000000     0.000008   111.750076
	   44 B(9,15,16)      =    108.643059     0.000000     0.000018   108.643077
	   45 B(9,15,17)      =    108.960143    -0.000000    -0.000049   108.960093
	   46 B(9,15,18)      =    116.810547    -0.000000    -0.000013   116.810534
	   47 B(10,9,11)      =    105.976557     0.000000     0.000001   105.976559
	   48 B(10,9,15)      =    108.907874    -0.000000     0.000001   108.907875
	   49 B(11,9,15)      =    109.732961    -0.000000     0.000002   109.732963
	   50 B(12,24,21)     =    113.673702     0.000000     0.000073   113.673775
	   51 B(12,24,25)     =    109.042357    -0.000000    -0.000029   109.042328
	   52 B(12,24,26)     =    109.398014     0.000000     0.000000   109.398014
	   53 B(13,12,14)     =    106.005917    -0.000000     0.000021   106.005938
	   54 B(13,12,24)     =    109.370019     0.000000     0.000012   109.370032
	   55 B(14,12,24)     =    109.443818     0.000000     0.000008   109.443825
	   56 B(15,18,19)     =    106.949613     0.000000     0.000005   106.949617
	   57 B(15,18,20)     =    109.321590    -0.000000    -0.000045   109.321545
	   58 B(15,18,21)     =    116.565544     0.000000     0.000052   116.565596
	   59 B(16,15,17)     =    105.994656    -0.000000     0.000012   105.994668
	   60 B(16,15,18)     =    108.791072     0.000000     0.000017   108.791089
	   61 B(17,15,18)     =    107.117322     0.000000     0.000018   107.117341
	   62 B(18,21,22)     =    109.148346    -0.000000     0.000015   109.148361
	   63 B(18,21,23)     =    108.452860    -0.000000    -0.000075   108.452785
	   64 B(18,21,24)     =    116.101043     0.000000     0.000119   116.101162
	   65 B(19,18,20)     =    105.619720    -0.000000    -0.000053   105.619667
	   66 B(19,18,21)     =    108.310500    -0.000000    -0.000013   108.310486
	   67 B(20,18,21)     =    109.492538     0.000000     0.000043   109.492582
	   68 B(21,24,25)     =    110.862845    -0.000000    -0.000001   110.862844
	   69 B(21,24,26)     =    107.532302    -0.000000    -0.000020   107.532282
	   70 B(22,21,23)     =    105.896700     0.000000    -0.000042   105.896658
	   71 B(22,21,24)     =    109.944948    -0.000000     0.000048   109.944995
	   72 B(23,21,24)     =    106.785016    -0.000000    -0.000084   106.784932
	   73 B(25,24,26)     =    106.035558    -0.000000    -0.000030   106.035528
	   74 D(1,9,15,16)    =     31.374305     0.000000    -0.000217    31.374088
	   75 D(1,9,15,17)    =    146.423383     0.000000    -0.000220   146.423163
	   76 D(1,9,15,18)    =    -92.088805     0.000000    -0.000244   -92.089050
	   77 D(2,1,9,10)     =    178.581921     0.000000    -0.000533   178.581388
	   78 D(2,1,9,11)     =    -66.025339    -0.000000    -0.000542   -66.025882
	   79 D(2,1,9,15)     =     57.695621    -0.000000    -0.000554    57.695067
	   80 D(3,1,9,10)     =     59.033393    -0.000000    -0.000557    59.032836
	   81 D(3,1,9,11)     =    174.426132    -0.000000    -0.000567   174.425565
	   82 D(3,1,9,15)     =    -61.852907    -0.000000    -0.000579   -61.853486
	   83 D(4,1,9,10)     =    -60.444447     0.000000    -0.000528   -60.444975
	   84 D(4,1,9,11)     =     54.948292    -0.000000    -0.000537    54.947754
	   85 D(4,1,9,15)     =    178.669252    -0.000000    -0.000549   178.668703
	   86 D(5,12,24,21)   =    104.444252    -0.000000     0.000268   104.444520
	   87 D(5,12,24,25)   =    -19.797772    -0.000000     0.000239   -19.797532
	   88 D(5,12,24,26)   =   -135.350818     0.000000     0.000291  -135.350527
	   89 D(6,5,12,13)    =    -58.105663    -0.000000    -0.000272   -58.105934
	   90 D(6,5,12,14)    =     57.128579     0.000000    -0.000233    57.128346
	   91 D(6,5,12,24)    =    179.037424    -0.000000    -0.000264   179.037160
	   92 D(7,5,12,13)    =   -177.865292    -0.000000    -0.000250  -177.865542
	   93 D(7,5,12,14)    =    -62.631051     0.000000    -0.000211   -62.631262
	   94 D(7,5,12,24)    =     59.277795     0.000000    -0.000242    59.277552
	   95 D(8,5,12,13)    =     62.549681    -0.000000    -0.000247    62.549435
	   96 D(8,5,12,14)    =    177.783923     0.000000    -0.000208   177.783715
	   97 D(8,5,12,24)    =    -60.307232     0.000000    -0.000239   -60.307471
	   98 D(9,15,18,19)   =   -178.901838     0.000000     0.001477  -178.900361
	   99 D(9,15,18,20)   =    -65.002184     0.000000     0.001395   -65.000789
	  100 D(9,15,18,21)   =     59.793485     0.000000     0.001456    59.794942
	  101 D(10,9,15,16)   =    -88.974431    -0.000000    -0.000245   -88.974676
	  102 D(10,9,15,17)   =     26.074648    -0.000000    -0.000248    26.074400
	  103 D(10,9,15,18)   =    147.562459    -0.000000    -0.000272   147.562187
	  104 D(11,9,15,16)   =    155.433554     0.000000    -0.000248   155.433306
	  105 D(11,9,15,17)   =    -89.517367     0.000000    -0.000251   -89.517618
	  106 D(11,9,15,18)   =     31.970444    -0.000000    -0.000276    31.970169
	  107 D(12,24,21,18)  =    -61.860136     0.000000     0.001858   -61.858277
	  108 D(12,24,21,22)  =    173.643518     0.000000     0.001705   173.645223
	  109 D(12,24,21,23)  =     59.199470     0.000000     0.001776    59.201246
	  110 D(13,12,24,21)  =    -18.577605     0.000000     0.000267   -18.577338
	  111 D(13,12,24,25)  =   -142.819629     0.000000     0.000239  -142.819390
	  112 D(13,12,24,26)  =    101.627324     0.000000     0.000290   101.627615
	  113 D(14,12,24,21)  =   -134.303545    -0.000000     0.000231  -134.303314
	  114 D(14,12,24,25)  =    101.454431    -0.000000     0.000202   101.454634
	  115 D(14,12,24,26)  =    -14.098615    -0.000000     0.000254   -14.098361
	  116 D(15,18,21,22)  =     37.206635     0.000000     0.000889    37.207524
	  117 D(15,18,21,23)  =    152.137496     0.000000     0.000807   152.138303
	  118 D(15,18,21,24)  =    -87.698153     0.000000     0.000721   -87.697432
	  119 D(16,15,18,19)  =     57.711034     0.000000     0.001449    57.712483
	  120 D(16,15,18,20)  =    171.610688    -0.000000     0.001367   171.612056
	  121 D(16,15,18,21)  =    -63.593642     0.000000     0.001428   -63.592214
	  122 D(17,15,18,19)  =    -56.452361     0.000000     0.001418   -56.450943
	  123 D(17,15,18,20)  =     57.447293    -0.000000     0.001336    57.448630
	  124 D(17,15,18,21)  =   -177.757037     0.000000     0.001397  -177.755640
	  125 D(18,21,24,25)  =     61.392627     0.000000     0.001873    61.394501
	  126 D(18,21,24,26)  =    176.886832     0.000000     0.001826   176.888658
	  127 D(19,18,21,22)  =    -83.376645     0.000000     0.000858   -83.375787
	  128 D(19,18,21,23)  =     31.554216    -0.000000     0.000776    31.554992
	  129 D(19,18,21,24)  =    151.718567    -0.000000     0.000690   151.719257
	  130 D(20,18,21,22)  =    161.915499     0.000000     0.000905   161.916404
	  131 D(20,18,21,23)  =    -83.153640     0.000000     0.000823   -83.152817
	  132 D(20,18,21,24)  =     37.010711     0.000000     0.000737    37.011448
	  133 D(22,21,24,25)  =    -63.103718     0.000000     0.001720   -63.101998
	  134 D(22,21,24,26)  =     52.390487    -0.000000     0.001672    52.392159
	  135 D(23,21,24,25)  =   -177.547767     0.000000     0.001791  -177.545976
	  136 D(23,21,24,26)  =    -62.053562     0.000000     0.001743   -62.051819
	  137 R(1,21)         =      3.453623     0.000001     0.000014     3.453637
	  138 R(1,24)         =      3.514139    -0.000002    -0.000016     3.514123
	  139 R(5,18)         =      3.594654     0.000000    -0.000003     3.594650
	  140 R(9,24)         =      3.427003     0.000001     0.000002     3.427006
	 ---------------------------------------------------------------------------

  ==> Convergence Check <==

  Measures of convergence in internal coordinates in au.
  Criteria marked as inactive (o), active & met (*), and active & unmet ( ).
  --------------------------------------------------------------------------------------------- ~
   Step     Total Energy     Delta E     MAX Force     RMS Force      MAX Disp      RMS Disp    ~
  --------------------------------------------------------------------------------------------- ~
    Convergence Criteria             o    2.00e-06 *    1.00e-06 *    6.00e-06 *    4.00e-06 *  ~
  --------------------------------------------------------------------------------------------- ~
      1    -314.97342932   -3.15e+02 o    3.02e-07 *    7.52e-08 *    3.27e-05      1.16e-05    ~
  ---------------------------------------------------------------------------------------------

	Writing optimization data to binary file.
	Structure for next step:
	Cartesian Geometry (in Angstrom)
	    C     2.1669911569  -1.1484677122   0.9268076497
	    H     1.4937173648  -0.6781025759   1.6413133546
	    H     3.1699005057  -0.7646551264   1.1193046586
	    H     2.1752942108  -2.2198662151   1.1293925557
	    C    -2.2436843365  -1.1486284793  -0.8762559907
	    H    -3.1524967318  -1.2263963056  -1.4736456055
	    H    -2.0703172446  -2.1165079233  -0.4034747844
	    H    -1.4127913056  -0.9622425581  -1.5558536028
	    C     1.7646655636  -0.8587382959  -0.5170515991
	    H     2.4948936225  -1.3379968397  -1.1726206394
	    H     0.8039042134  -1.3259171875  -0.7448291538
	    C    -2.3656137880  -0.0548943285   0.1813556297
	    H    -2.5767519650   0.9028422631  -0.3022122223
	    H    -3.2347718027  -0.2760256580   0.8034350046
	    C     1.7047276132   0.6385268421  -0.8497884266
	    H     2.4504130120   1.1622705994  -0.2423457711
	    H     2.0077192001   0.7835591303  -1.8896494736
	    C     0.3505500035   1.3314103912  -0.6740994139
	    H     0.4854920011   2.3746796159  -0.9710575143
	    H    -0.3649574007   0.9128525397  -1.3864709985
	    C    -0.2550678680   1.3059320883   0.7340299204
	    H     0.5462262894   1.4126114992   1.4713008075
	    H    -0.8912875836   2.1876986903   0.8533002364
	    C    -1.1192769829   0.0875782596   1.0740888979
	    H    -0.5341869183  -0.8317213651   1.0179563117
	    H    -1.4292398653   0.1847741922   2.1170431976
			--------------------------
			 OPTKING Finished Execution 
			--------------------------

    Structure for next step:
    Molecular point group: c1
    Full point group: C1

    Geometry (in Angstrom), charge = 0, multiplicity = 1:

    C            2.166991604663    -1.148469945698     0.926807548458
    H            1.493717812637    -0.678104809424     1.641313253335
    H            3.169900953473    -0.764657359894     1.119304557382
    H            2.175294658653    -2.219868448597     1.129392454463
    C           -2.243683888722    -1.148630712730    -0.876256091909
    H           -3.152496283998    -1.226398539053    -1.473645706737
    H           -2.070316796747    -2.116510156818    -0.403474885638
    H           -1.412790857801    -0.962244791618    -1.555853704062
    C            1.764666011441    -0.858740529342    -0.517051700348
    H            2.494894070298    -1.337999073216    -1.172620740651
    H            0.803904661259    -1.325919420932    -0.744829255006
    C           -2.365613340147    -0.054896561949     0.181355528449
    H           -2.576751517189     0.902840029630    -0.302212323513
    H           -3.234771354916    -0.276027891481     0.803434903393
    C            1.704728061025     0.638524608619    -0.849788527847
    H            2.450413459831     1.162268365934    -0.242345872360
    H            2.007719647876     0.783556896795    -1.889649574796
    C            0.350550451299     1.331408157700    -0.674099515147
    H            0.485492448916     2.374677382417    -0.971057615496
    H           -0.364956952876     0.912850306173    -1.386471099740
    C           -0.255067420183     1.305929854863     0.734029819127
    H            0.546226737252     1.412609265704     1.471300706301
    H           -0.891287135758     2.187696456819     0.853300135201
    C           -1.119276535095     0.087576026117     1.074088796653
    H           -0.534186470486    -0.831723598529     1.017956210448
    H           -1.429239417504     0.184771958756     2.117043096369

gradient() will perform analytic gradient computation.

*** tstart() called on wr41
*** at Tue Sep 27 23:45:36 2016


         ---------------------------------------------------------
                                   SCF
            by Justin Turney, Rob Parrish, and Andy Simmonett
                              RHF Reference
                       24 Threads,  40000 MiB Core
         ---------------------------------------------------------

  ==> Geometry <==

    Molecular point group: c1
    Full point group: C1

    Geometry (in Angstrom), charge = 0, multiplicity = 1:

       Center              X                  Y                   Z               Mass       
    ------------   -----------------  -----------------  -----------------  -----------------
           C          2.166991604663    -1.148469945698     0.926807548458    12.000000000000
           H          1.493717812637    -0.678104809424     1.641313253335     1.007825032070
           H          3.169900953473    -0.764657359894     1.119304557382     1.007825032070
           H          2.175294658653    -2.219868448597     1.129392454463     1.007825032070
           C         -2.243683888722    -1.148630712730    -0.876256091909    12.000000000000
           H         -3.152496283998    -1.226398539053    -1.473645706737     1.007825032070
           H         -2.070316796747    -2.116510156818    -0.403474885638     1.007825032070
           H         -1.412790857801    -0.962244791618    -1.555853704062     1.007825032070
           C          1.764666011441    -0.858740529342    -0.517051700348    12.000000000000
           H          2.494894070298    -1.337999073216    -1.172620740651     1.007825032070
           H          0.803904661259    -1.325919420932    -0.744829255006     1.007825032070
           C         -2.365613340147    -0.054896561949     0.181355528449    12.000000000000
           H         -2.576751517189     0.902840029630    -0.302212323513     1.007825032070
           H         -3.234771354916    -0.276027891481     0.803434903393     1.007825032070
           C          1.704728061025     0.638524608619    -0.849788527847    12.000000000000
           H          2.450413459831     1.162268365934    -0.242345872360     1.007825032070
           H          2.007719647876     0.783556896795    -1.889649574796     1.007825032070
           C          0.350550451299     1.331408157700    -0.674099515147    12.000000000000
           H          0.485492448916     2.374677382417    -0.971057615496     1.007825032070
           H         -0.364956952876     0.912850306173    -1.386471099740     1.007825032070
           C         -0.255067420183     1.305929854863     0.734029819127    12.000000000000
           H          0.546226737252     1.412609265704     1.471300706301     1.007825032070
           H         -0.891287135758     2.187696456819     0.853300135201     1.007825032070
           C         -1.119276535095     0.087576026117     1.074088796653    12.000000000000
           H         -0.534186470486    -0.831723598529     1.017956210448     1.007825032070
           H         -1.429239417504     0.184771958756     2.117043096369     1.007825032070

  Running in c1 symmetry.

  Rotational constants: A =      0.08181  B =      0.03917  C =      0.03619 [cm^-1]
  Rotational constants: A =   2452.51161  B =   1174.28758  C =   1084.85912 [MHz]
  Nuclear repulsion =  411.056038706087804

  Charge       = 0
  Multiplicity = 1
  Electrons    = 66
  Nalpha       = 33
  Nbeta        = 33

  ==> Algorithm <==

  SCF Algorithm Type is DF.
  DIIS enabled.
  MOM disabled.
  Fractional occupation disabled.
  Guess Type is READ.
  Energy threshold   = 1.00e-10
  Density threshold  = 1.00e-10
  Integral threshold = 0.00e+00

  ==> Primary Basis <==

  Basis Set: AUG-CC-PVTZ
    Number of shells: 274
    Number of basis function: 782
    Number of Cartesian functions: 890
    Spherical Harmonics?: true
    Max angular momentum: 3

  ==> Pre-Iterations <==

   -------------------------------------------------------
    Irrep   Nso     Nmo     Nalpha   Nbeta   Ndocc  Nsocc
   -------------------------------------------------------
     A        782     782       0       0       0       0
   -------------------------------------------------------
    Total     782     782      33      33      33       0
   -------------------------------------------------------

  ==> Integral Setup <==

  ==> DFJK: Density-Fitted J/K Matrices <==

    J tasked:                  Yes
    K tasked:                  Yes
    wK tasked:                  No
    OpenMP threads:             24
    Integrals threads:          24
    Memory (MB):             28610
    Algorithm:                Core
    Integral Cache:           NONE
    Schwarz Cutoff:          1E-12
    Fitting Condition:       1E-12

   => Auxiliary Basis Set <=

  Basis Set: 
    Number of shells: 492
    Number of basis function: 1660
    Number of Cartesian functions: 2038
    Spherical Harmonics?: true
    Max angular momentum: 4

  Minimum eigenvalue in the overlap matrix is 1.4354968624E-06.
  Using Symmetric Orthogonalization.
  SCF Guess: Reading in previously saved MOs, projecting if necessary.

  Using orbitals from previous SCF, no projection.
  Recomputing DOCC and SOCC from number of alpha and beta electrons from previous calculation.
              A 
    DOCC [    33 ]

  ==> Iterations <==

                           Total Energy        Delta E     RMS |[F,P]|

   @DF-RHF iter   0:  -313.52694833851587   -3.13527e+02   1.23498e-07 
   @DF-RHF iter   1:  -313.52696669794540   -1.83594e-05   2.48210e-08 
   @DF-RHF iter   2:  -313.52696669824940   -3.03999e-10   1.04834e-08 DIIS
   @DF-RHF iter   3:  -313.52696669829351   -4.41105e-11   3.88929e-09 DIIS
   @DF-RHF iter   4:  -313.52696669830408   -1.05729e-11   4.44244e-10 DIIS
   @DF-RHF iter   5:  -313.52696669830362    4.54747e-13   1.53501e-10 DIIS
   @DF-RHF iter   6:  -313.52696669830328    3.41061e-13   4.27350e-11 DIIS

  ==> Post-Iterations <==

    Orbital Energies (a.u.)
    -----------------------

    Doubly Occupied:                                                      

       1A    -11.213060     2A    -11.212272     3A    -11.211382  
       4A    -11.210989     5A    -11.210101     6A    -11.209483  
       7A    -11.207888     8A    -11.206009     9A     -1.092425  
      10A     -1.054659    11A     -1.005863    12A     -0.954807  
      13A     -0.884914    14A     -0.829429    15A     -0.787926  
      16A     -0.758040    17A     -0.639289    18A     -0.634086  
      19A     -0.605776    20A     -0.587939    21A     -0.575492  
      22A     -0.570914    23A     -0.547239    24A     -0.540116  
      25A     -0.503774    26A     -0.500252    27A     -0.498625  
      28A     -0.471330    29A     -0.467311    30A     -0.463068  
      31A     -0.439698    32A     -0.434287    33A     -0.430136  

    Virtual:                                                              

      34A      0.029046    35A      0.032986    36A      0.034266  
      37A      0.035544    38A      0.047549    39A      0.048737  
      40A      0.050103    41A      0.051935    42A      0.053390  
      43A      0.071369    44A      0.071639    45A      0.073550  
      46A      0.074410    47A      0.075537    48A      0.080871  
      49A      0.084371    50A      0.100355    51A      0.103219  
      52A      0.113494    53A      0.119280    54A      0.124381  
      55A      0.126600    56A      0.132481    57A      0.133292  
      58A      0.135710    59A      0.136217    60A      0.137833  
      61A      0.143104    62A      0.147243    63A      0.148722  
      64A      0.149671    65A      0.153444    66A      0.158600  
      67A      0.166899    68A      0.172544    69A      0.174731  
      70A      0.176016    71A      0.179734    72A      0.180642  
      73A      0.184159    74A      0.190903    75A      0.194935  
      76A      0.198894    77A      0.202014    78A      0.222432  
      79A      0.224597    80A      0.232710    81A      0.240728  
      82A      0.242637    83A      0.248802    84A      0.262819  
      85A      0.269395    86A      0.282609    87A      0.287181  
      88A      0.292022    89A      0.293578    90A      0.296703  
      91A      0.298960    92A      0.307893    93A      0.314467  
      94A      0.320866    95A      0.322557    96A      0.324785  
      97A      0.329164    98A      0.331177    99A      0.334588  
     100A      0.340646   101A      0.343065   102A      0.346430  
     103A      0.352124   104A      0.353400   105A      0.356685  
     106A      0.362547   107A      0.363833   108A      0.367568  
     109A      0.371761   110A      0.378213   111A      0.379239  
     112A      0.380920   113A      0.386627   114A      0.391500  
     115A      0.394110   116A      0.397166   117A      0.400392  
     118A      0.403325   119A      0.404608   120A      0.414010  
     121A      0.418024   122A      0.423801   123A      0.425111  
     124A      0.433520   125A      0.439506   126A      0.446584  
     127A      0.448251   128A      0.450405   129A      0.454394  
     130A      0.457417   131A      0.463781   132A      0.465647  
     133A      0.473506   134A      0.474244   135A      0.479735  
     136A      0.483869   137A      0.485881   138A      0.492057  
     139A      0.495465   140A      0.501075   141A      0.504864  
     142A      0.506329   143A      0.510166   144A      0.515749  
     145A      0.518307   146A      0.520508   147A      0.525351  
     148A      0.532683   149A      0.533873   150A      0.539415  
     151A      0.542716   152A      0.550782   153A      0.560025  
     154A      0.562111   155A      0.565185   156A      0.570383  
     157A      0.576264   158A      0.581865   159A      0.584364  
     160A      0.586919   161A      0.593575   162A      0.597497  
     163A      0.597724   164A      0.605148   165A      0.609799  
     166A      0.611498   167A      0.617239   168A      0.619960  
     169A      0.622838   170A      0.631012   171A      0.638067  
     172A      0.639906   173A      0.640675   174A      0.646874  
     175A      0.650750   176A      0.660637   177A      0.663351  
     178A      0.669895   179A      0.673724   180A      0.678837  
     181A      0.685448   182A      0.689372   183A      0.692025  
     184A      0.697202   185A      0.699476   186A      0.701386  
     187A      0.712768   188A      0.715600   189A      0.718795  
     190A      0.722938   191A      0.735376   192A      0.735849  
     193A      0.743053   194A      0.748874   195A      0.751772  
     196A      0.761444   197A      0.769331   198A      0.773482  
     199A      0.790140   200A      0.794539   201A      0.800684  
     202A      0.806939   203A      0.813368   204A      0.831761  
     205A      0.835411   206A      0.844217   207A      0.848597  
     208A      0.852866   209A      0.864157   210A      0.869052  
     211A      0.874220   212A      0.880030   213A      0.885169  
     214A      0.889300   215A      0.900119   216A      0.905309  
     217A      0.906847   218A      0.912479   219A      0.914922  
     220A      0.921154   221A      0.922744   222A      0.927496  
     223A      0.937112   224A      0.941080   225A      0.945579  
     226A      0.957396   227A      0.959979   228A      0.962364  
     229A      0.969618   230A      0.975674   231A      0.977068  
     232A      0.985038   233A      0.990095   234A      0.994744  
     235A      0.995937   236A      1.005550   237A      1.006365  
     238A      1.012884   239A      1.015223   240A      1.025663  
     241A      1.027976   242A      1.035009   243A      1.038102  
     244A      1.047526   245A      1.053732   246A      1.055609  
     247A      1.058860   248A      1.066649   249A      1.071753  
     250A      1.086541   251A      1.089926   252A      1.093446  
     253A      1.099109   254A      1.103795   255A      1.106848  
     256A      1.120143   257A      1.122561   258A      1.128819  
     259A      1.132670   260A      1.138287   261A      1.145603  
     262A      1.148615   263A      1.154347   264A      1.160022  
     265A      1.163527   266A      1.166011   267A      1.173116  
     268A      1.176941   269A      1.183317   270A      1.186599  
     271A      1.189823   272A      1.203267   273A      1.205226  
     274A      1.211691   275A      1.216530   276A      1.220538  
[...]
	 D(17,15,18,19)   =        -0.985274	     -56.452058
	 D(17,15,18,20)   =         1.002649	      57.447542
	 D(17,15,18,21)   =        -3.102440	    -177.756736
	 D(18,21,24,25)   =         1.071504	      61.392685
	 D(18,21,24,26)   =         3.087258	     176.886852
	 D(19,18,21,22)   =        -1.455189	     -83.376214
	 D(19,18,21,23)   =         0.550731	      31.554588
	 D(19,18,21,24)   =         2.647995	     151.718939
	 D(20,18,21,22)   =         2.825967	     161.915980
	 D(20,18,21,23)   =        -1.451297	     -83.153218
	 D(20,18,21,24)   =         0.645966	      37.011133
	 D(22,21,24,25)   =        -1.101367	     -63.103704
	 D(22,21,24,26)   =         0.914386	      52.390464
	 D(23,21,24,25)   =        -3.098792	    -177.547715
	 D(23,21,24,26)   =        -1.083039	     -62.053547
	 R(1,21)          =         6.526416	       3.453630
	 R(1,24)          =         6.640756	       3.514137
	 R(5,18)          =         6.792906	       3.594651
	 R(9,24)          =         6.476094	       3.427001

	Current energy   :      -314.9734293226

	Energy change for the previous step:
		Projected    :        -0.0000000019
		Actual       :        -0.0000000039

	Performing BFGS update.
	Previous computed or guess Hessian on step 1.
	Denominators (dg)(dq) or (dq)(dq) are very small.
	 Skipping Hessian update for step 9.
	Denominators (dg)(dq) or (dq)(dq) are very small.
	 Skipping Hessian update for step 8.
	Denominators (dg)(dq) or (dq)(dq) are very small.
	 Skipping Hessian update for step 7.
	Denominators (dg)(dq) or (dq)(dq) are very small.
	 Skipping Hessian update for step 6.
	Denominators (dg)(dq) or (dq)(dq) are very small.
	 Skipping Hessian update for step 5.
	Denominators (dg)(dq) or (dq)(dq) are very small.
	 Skipping Hessian update for step 4.
	Denominators (dg)(dq) or (dq)(dq) are very small.
	 Skipping Hessian update for step 3.
	Denominators (dg)(dq) or (dq)(dq) are very small.
	 Skipping Hessian update for step 2.
	Steps to be used in Hessian update: 1
	Taking RFO optimization step.
	Going to follow RFO solution 1.
	Using RFO vector 1.
	Norm of target step-size    0.00001
	Projected energy change by RFO approximation:        -0.0000000000

	Back-transformation to cartesian coordinates...
	Successfully converged to displaced geometry.

	--- Internal Coordinate Step in ANG or DEG, aJ/ANG or AJ/DEG ---
	 ---------------------------------------------------------------------------
	   Coordinate                Previous        Force       Change         New 
	   ----------                --------       ------       ------       ------
	    1 R(1,2)          =      1.088604    -0.000000    -0.000000     1.088604
	    2 R(1,3)          =      1.090960    -0.000000    -0.000000     1.090960
	    3 R(1,4)          =      1.090415    -0.000001    -0.000000     1.090415
	    4 R(1,9)          =      1.526610    -0.000000    -0.000000     1.526610
	    5 R(5,6)          =      1.090350    -0.000001    -0.000000     1.090349
	    6 R(5,7)          =      1.091040    -0.000001    -0.000000     1.091040
	    7 R(5,8)          =      1.089484    -0.000001    -0.000000     1.089484
	    8 R(5,12)         =      1.526324    -0.000000    -0.000000     1.526324
	    9 R(9,10)         =      1.092105    -0.000001    -0.000000     1.092104
	   10 R(9,11)         =      1.092337    -0.000000    -0.000000     1.092337
	   11 R(9,15)         =      1.534963     0.000000    -0.000000     1.534962
	   12 R(12,13)        =      1.093470    -0.000001    -0.000000     1.093470
	   13 R(12,14)        =      1.091475    -0.000001    -0.000000     1.091475
	   14 R(12,24)        =      1.539684     0.000000     0.000000     1.539684
	   15 R(15,16)        =      1.095144     0.000002     0.000000     1.095144
	   16 R(15,17)        =      1.092771     0.000001     0.000000     1.092772
	   17 R(15,18)        =      1.531258     0.000000     0.000000     1.531258
	   18 R(18,19)        =      1.093071     0.000001     0.000000     1.093071
	   19 R(18,20)        =      1.092984     0.000003     0.000000     1.092985
	   20 R(18,21)        =      1.533052     0.000000     0.000000     1.533052
	   21 R(21,22)        =      1.094085     0.000001     0.000000     1.094085
	   22 R(21,23)        =      1.093852     0.000001     0.000000     1.093853
	   23 R(21,24)        =      1.531954    -0.000001    -0.000000     1.531954
	   24 R(24,25)        =      1.091143     0.000001     0.000000     1.091143
	   25 R(24,26)        =      1.092372     0.000000     0.000000     1.092372
	   26 B(1,9,10)       =    107.953245     0.000000     0.000032   107.953276
	   27 B(1,9,11)       =    110.355737     0.000000    -0.000007   110.355730
	   28 B(1,9,15)       =    113.605523    -0.000000    -0.000033   113.605490
	   29 B(2,1,3)        =    107.501748     0.000000     0.000006   107.501754
	   30 B(2,1,4)        =    107.897439    -0.000000    -0.000006   107.897433
	   31 B(2,1,9)        =    112.072217     0.000000     0.000006   112.072223
	   32 B(3,1,4)        =    107.812005     0.000000     0.000009   107.812013
	   33 B(3,1,9)        =    110.022267    -0.000000    -0.000005   110.022262
	   34 B(4,1,9)        =    111.358348    -0.000000    -0.000009   111.358339
	   35 B(5,12,13)      =    109.671465     0.000000     0.000011   109.671476
	   36 B(5,12,14)      =    108.261658     0.000000     0.000007   108.261665
	   37 B(5,12,24)      =    113.791342    -0.000000    -0.000017   113.791325
	   38 B(6,5,7)        =    107.853780     0.000000     0.000004   107.853784
	   39 B(6,5,8)        =    107.825068    -0.000000    -0.000002   107.825066
	   40 B(6,5,12)       =    111.356178     0.000000     0.000010   111.356188
	   41 B(7,5,8)        =    107.510639     0.000000     0.000002   107.510641
	   42 B(7,5,12)       =    110.372548    -0.000000    -0.000005   110.372543
	   43 B(8,5,12)       =    111.750095    -0.000000    -0.000008   111.750086
	   44 B(9,15,16)      =    108.643070    -0.000000    -0.000009   108.643061
	   45 B(9,15,17)      =    108.960132     0.000000     0.000026   108.960158
	   46 B(9,15,18)      =    116.810521     0.000000     0.000014   116.810535
	   47 B(10,9,11)      =    105.976560    -0.000000     0.000007   105.976567
	   48 B(10,9,15)      =    108.907911     0.000000     0.000016   108.907926
	   49 B(11,9,15)      =    109.732969     0.000000    -0.000011   109.732959
	   50 B(12,24,21)     =    113.673756    -0.000000    -0.000014   113.673742
	   51 B(12,24,25)     =    109.042355    -0.000000     0.000000   109.042355
	   52 B(12,24,26)     =    109.397992    -0.000000     0.000004   109.397995
	   53 B(13,12,14)     =    106.005933    -0.000000     0.000003   106.005937
	   54 B(13,12,24)     =    109.370023    -0.000000    -0.000002   109.370021
	   55 B(14,12,24)     =    109.443812    -0.000000    -0.000001   109.443811
	   56 B(15,18,19)     =    106.949633    -0.000000    -0.000049   106.949584
	   57 B(15,18,20)     =    109.321564     0.000000     0.000030   109.321594
	   58 B(15,18,21)     =    116.565578     0.000000     0.000014   116.565593
	   59 B(16,15,17)     =    105.994663    -0.000000    -0.000008   105.994655
	   60 B(16,15,18)     =    108.791078     0.000000     0.000002   108.791081
	   61 B(17,15,18)     =    107.117337    -0.000000    -0.000028   107.117309
	   62 B(18,21,22)     =    109.148314    -0.000000    -0.000001   109.148314
	   63 B(18,21,23)     =    108.452821     0.000000     0.000011   108.452833
	   64 B(18,21,24)     =    116.101152    -0.000000    -0.000017   116.101135
	   65 B(19,18,20)     =    105.619675     0.000000     0.000012   105.619688
	   66 B(19,18,21)     =    108.310471     0.000000    -0.000012   108.310459
	   67 B(20,18,21)     =    109.492573    -0.000000     0.000003   109.492576
	   68 B(21,24,25)     =    110.862878     0.000000     0.000012   110.862890
	   69 B(21,24,26)     =    107.532258    -0.000000    -0.000002   107.532256
	   70 B(22,21,23)     =    105.896683     0.000000     0.000008   105.896691
	   71 B(22,21,24)     =    109.944949    -0.000000     0.000002   109.944951
	   72 B(23,21,24)     =    106.784982    -0.000000    -0.000001   106.784981
	   73 B(25,24,26)     =    106.035533    -0.000000     0.000002   106.035535
	   74 D(1,9,15,16)    =     31.373979     0.000000     0.000141    31.374120
	   75 D(1,9,15,17)    =    146.423066     0.000000     0.000141   146.423207
	   76 D(1,9,15,18)    =    -92.089130     0.000000     0.000135   -92.088995
	   77 D(2,1,9,10)     =    178.581340     0.000000     0.000070   178.581411
	   78 D(2,1,9,11)     =    -66.025936     0.000000     0.000093   -66.025843
	   79 D(2,1,9,15)     =     57.694993     0.000000     0.000049    57.695042
	   80 D(3,1,9,10)     =     59.032834    -0.000000     0.000062    59.032896
	   81 D(3,1,9,11)     =    174.425557     0.000000     0.000085   174.425642
	   82 D(3,1,9,15)     =    -61.853514    -0.000000     0.000041   -61.853473
	   83 D(4,1,9,10)     =    -60.445003    -0.000000     0.000060   -60.444942
	   84 D(4,1,9,11)     =     54.947721     0.000000     0.000083    54.947804
	   85 D(4,1,9,15)     =    178.668650    -0.000000     0.000040   178.668689
	   86 D(5,12,24,21)   =    104.443861     0.000000     0.000022   104.443883
	   87 D(5,12,24,25)   =    -19.798243    -0.000000     0.000017   -19.798226
	   88 D(5,12,24,26)   =   -135.351247     0.000000     0.000012  -135.351234
	   89 D(6,5,12,13)    =    -58.105915     0.000000     0.000012   -58.105902
	   90 D(6,5,12,14)    =     57.128344     0.000000     0.000026    57.128370
	   91 D(6,5,12,24)    =    179.037170     0.000000     0.000018   179.037189
	   92 D(7,5,12,13)    =   -177.865507    -0.000000     0.000004  -177.865503
	   93 D(7,5,12,14)    =    -62.631249     0.000000     0.000018   -62.631231
	   94 D(7,5,12,24)    =     59.277577    -0.000000     0.000010    59.277588
	   95 D(8,5,12,13)    =     62.549447    -0.000000     0.000011    62.549458
	   96 D(8,5,12,14)    =    177.783706     0.000000     0.000025   177.783731
	   97 D(8,5,12,24)    =    -60.307468    -0.000000     0.000017   -60.307451
	   98 D(9,15,18,19)   =   -178.901516    -0.000000     0.000005  -178.901510
	   99 D(9,15,18,20)   =    -65.001915    -0.000000     0.000009   -65.001907
	  100 D(9,15,18,21)   =     59.793807    -0.000000     0.000049    59.793856
	  101 D(10,9,15,16)   =    -88.974789     0.000000     0.000112   -88.974677
	  102 D(10,9,15,17)   =     26.074298     0.000000     0.000111    26.074409
	  103 D(10,9,15,18)   =    147.562102    -0.000000     0.000105   147.562208
	  104 D(11,9,15,16)   =    155.433168    -0.000000     0.000100   155.433268
	  105 D(11,9,15,17)   =    -89.517745    -0.000000     0.000099   -89.517645
	  106 D(11,9,15,18)   =     31.970059    -0.000000     0.000094    31.970153
	  107 D(12,24,21,18)  =    -61.860141    -0.000000    -0.000030   -61.860171
	  108 D(12,24,21,22)  =    173.643470    -0.000000    -0.000018   173.643452
	  109 D(12,24,21,23)  =     59.199459    -0.000000    -0.000027    59.199432
	  110 D(13,12,24,21)  =    -18.578001     0.000000     0.000021   -18.577980
	  111 D(13,12,24,25)  =   -142.820104    -0.000000     0.000016  -142.820088
	  112 D(13,12,24,26)  =    101.626892    -0.000000     0.000011   101.626904
	  113 D(14,12,24,21)  =   -134.303958     0.000000     0.000019  -134.303940
	  114 D(14,12,24,25)  =    101.453938    -0.000000     0.000013   101.453952
	  115 D(14,12,24,26)  =    -14.099065     0.000000     0.000009   -14.099056
	  116 D(15,18,21,22)  =     37.207094    -0.000000    -0.000129    37.206964
	  117 D(15,18,21,23)  =    152.137896    -0.000000    -0.000114   152.137782
	  118 D(15,18,21,24)  =    -87.697753    -0.000000    -0.000118   -87.697872
	  119 D(16,15,18,19)  =     57.711355    -0.000000     0.000005    57.711360
	  120 D(16,15,18,20)  =    171.610956    -0.000000     0.000008   171.610964
	  121 D(16,15,18,21)  =    -63.593322    -0.000000     0.000048   -63.593274
	  122 D(17,15,18,19)  =    -56.452058     0.000000     0.000027   -56.452031
	  123 D(17,15,18,20)  =     57.447542     0.000000     0.000031    57.447573
	  124 D(17,15,18,21)  =   -177.756736     0.000000     0.000071  -177.756665
	  125 D(18,21,24,25)  =     61.392685    -0.000000    -0.000031    61.392653
	  126 D(18,21,24,26)  =    176.886852    -0.000000    -0.000024   176.886828
	  127 D(19,18,21,22)  =    -83.376214     0.000000    -0.000065   -83.376280
	  128 D(19,18,21,23)  =     31.554588     0.000000    -0.000050    31.554538
	  129 D(19,18,21,24)  =    151.718939     0.000000    -0.000054   151.718885
	  130 D(20,18,21,22)  =    161.915980    -0.000000    -0.000075   161.915904
	  131 D(20,18,21,23)  =    -83.153218     0.000000    -0.000060   -83.153278
	  132 D(20,18,21,24)  =     37.011133     0.000000    -0.000064    37.011069
	  133 D(22,21,24,25)  =    -63.103704    -0.000000    -0.000019   -63.103723
	  134 D(22,21,24,26)  =     52.390464     0.000000    -0.000012    52.390452
	  135 D(23,21,24,25)  =   -177.547715    -0.000000    -0.000028  -177.547743
	  136 D(23,21,24,26)  =    -62.053547     0.000000    -0.000021   -62.053568
	  137 R(1,21)         =      3.453630    -0.000001    -0.000002     3.453629
	  138 R(1,24)         =      3.514137     0.000001    -0.000000     3.514137
	  139 R(5,18)         =      3.594651    -0.000001    -0.000001     3.594651
	  140 R(9,24)         =      3.427001     0.000001     0.000003     3.427004
	 ---------------------------------------------------------------------------

  ==> Convergence Check <==

  Measures of convergence in internal coordinates in au.
  Criteria marked as inactive (o), active & met (*), and active & unmet ( ).
  ---------------------------------------------------------------------------------------------
   Step     Total Energy     Delta E     MAX Force     RMS Force      MAX Disp      RMS Disp   
  ---------------------------------------------------------------------------------------------
    Convergence Criteria             o    2.00e-06 *    1.00e-06 *    6.00e-06 *    4.00e-06 *
  ---------------------------------------------------------------------------------------------
     10    -314.97342932   -3.91e-09 o    3.07e-07 *    6.28e-08 *    4.94e-06 *    9.17e-07 *  ~
  ---------------------------------------------------------------------------------------------


  **** Optimization is complete! (in 10 steps) ****

  ==> Optimization Summary <==

  Measures of convergence in internal coordinates in au.
  --------------------------------------------------------------------------------------------------------------- ~
   Step         Total Energy             Delta E       MAX Force       RMS Force        MAX Disp        RMS Disp  ~
  --------------------------------------------------------------------------------------------------------------- ~
      1    -314.973429320522   -314.973429320522      0.00000030      0.00000008      0.00003269      0.00001163  ~
      2    -314.973429320063      0.000000000460      0.00000112      0.00000034      0.00004897      0.00001288  ~
      3    -314.973429319018      0.000000001044      0.00000076      0.00000016      0.00002664      0.00000796  ~
      4    -314.973429315193      0.000000003825      0.00000155      0.00000022      0.00002861      0.00000836  ~
      5    -314.973429321240     -0.000000006047      0.00000147      0.00000030      0.00001070      0.00000432  ~
      6    -314.973429321309     -0.000000000070      0.00000180      0.00000039      0.00001077      0.00000394  ~
      7    -314.973429317205      0.000000004105      0.00000131      0.00000029      0.00000791      0.00000307  ~
      8    -314.973429321510     -0.000000004306      0.00000147      0.00000039      0.00007392      0.00002665  ~
      9    -314.973429318694      0.000000002817      0.00000188      0.00000047      0.00008669      0.00002998  ~
     10    -314.973429322607     -0.000000003913      0.00000031      0.00000006      0.00000494      0.00000092  ~
  --------------------------------------------------------------------------------------------------------------- ~

	Writing optimization data to binary file.
	Final energy is   -314.9734293226072
	Final (previous) structure:
	Cartesian Geometry (in Angstrom)
	    C     2.1670273757  -1.1484414277   0.9268340716
	    H     1.4937550425  -0.6780672249   1.6413351763
	    H     3.1699349838  -0.7646171037   1.1193164871
	    H     2.1753402393  -2.2198358557   1.1294398247
	    C    -2.2437304879  -1.1485960678  -0.8762810345
	    H    -3.1525575216  -1.2263459800  -1.4736507350
	    H    -2.0703520155  -2.1164896151  -0.4035329093
	    H    -1.4128542641  -0.9621899299  -1.5558934867
	    C     1.7646889651  -0.8587426374  -0.5170278815
	    H     2.4949161758  -1.3380077123  -1.1725930522
	    H     0.8039298905  -1.3259337426  -0.7447894473
	    C    -2.3656343542  -0.0548935430   0.1813663244
	    H    -2.5767847799   0.9028572214  -0.3021680410
	    H    -3.2347772465  -0.2760437357   0.8034601420
	    C     1.7047360567   0.6385160978  -0.8497918784
	    H     2.4504201256   1.1622774921  -0.2423626587
	    H     2.0077205838   0.7835327105  -1.8896571986
	    C     0.3505531784   1.3313908448  -0.6741076552
	    H     0.4854889816   2.3746608896  -0.9710657442
	    H    -0.3649494867   0.9128278265  -1.3864809224
	    C    -0.2550684571   1.3059093753   0.7340196360
	    H     0.5462242671   1.4125869499   1.4712923142
	    H    -0.8912888048   2.1876753783   0.8532907393
	    C    -1.1192764738   0.0875537047   1.0740739830
	    H    -0.5341932780  -0.8317481700   1.0179104890
	    H    -1.4292154522   0.1847313605   2.1170370401
	Saving final (previous) structure.
			--------------------------
			 OPTKING Finished Execution 
			--------------------------

    Final optimized geometry and variables:
    Molecular point group: c1
    Full point group: C1

    Geometry (in Angstrom), charge = 0, multiplicity = 1:

    C            2.167027375716    -1.148441427680     0.926834071585
    H            1.493755042474    -0.678067224865     1.641335176276
    H            3.169934983826    -0.764617103731     1.119316487119
    H            2.175340239281    -2.219835855713     1.129439824669
    C           -2.243730487880    -1.148596067784    -0.876281034542
    H           -3.152557521598    -1.226345979997    -1.473650735010
    H           -2.070352015494    -2.116489615142    -0.403532909349
    H           -1.412854264052    -0.962189929908    -1.555893486715
    C            1.764688965069    -0.858742637434    -0.517027881518
    H            2.494916175846    -1.338007712302    -1.172593052211
    H            0.803929890475    -1.325933742588    -0.744789447264
    C           -2.365634354198    -0.054893542997     0.181366324422
    H           -2.576784779864     0.902857221446    -0.302168040970
    H           -3.234777246469    -0.276043735727     0.803460142034
    C            1.704736056686     0.638516097826    -0.849791878422
    H            2.450420125583     1.162277492082    -0.242362658719
    H            2.007720583813     0.783532710526    -1.889657198620
    C            0.350553178366     1.331390844777    -0.674107655238
    H            0.485488981568     2.374660889612    -0.971065744162
    H           -0.364949486694     0.912827826492    -1.386480922414
    C           -0.255068457126     1.305909375326     0.734019636038
    H            0.546224267096     1.412586949950     1.471292314190
    H           -0.891288804769     2.187675378291     0.853290739271
    C           -1.119276473838     0.087553704694     1.074073982983
    H           -0.534193278035    -0.831748170048     1.017910489015
    H           -1.429215452237     0.184731360505     2.117037040076

	Cleaning optimization helper files.

*** Psi4 exiting successfully. Buy a developer a beer!
