    -----------------------------------------------------------------------
          Psi4: An Open-Source Ab Initio Electronic Structure Package
                              Psi4 1.0.0 Driver

                          Git: Rev {master} 6a9a71b dirty

    J. M. Turney, A. C. Simmonett, R. M. Parrish, E. G. Hohenstein,
    F. A. Evangelista, J. T. Fermann, B. J. Mintz, L. A. Burns, J. J. Wilke,
    M. L. Abrams, N. J. Russ, M. L. Leininger, C. L. Janssen, E. T. Seidl,
    W. D. Allen, H. F. Schaefer, R. A. King, E. F. Valeev, C. D. Sherrill,
    and T. D. Crawford, WIREs Comput. Mol. Sci. 2, 556-565 (2012)
    (doi: 10.1002/wcms.93)

                         Additional Contributions by
    A. E. DePrince, U. Bozkaya, A. Yu. Sokolov, D. G. A. Smith, R. Di Remigio,
    R. M. Richard, J. F. Gonthier, H. R. McAlexander, M. Saitow, and
    B. P. Pritchard
    -----------------------------------------------------------------------


    Psi4 started on: Wed Sep 21 10:40:22 2016

    Process ID:  28501
    PSI4DATADIR: /usr/local/hpc5/psi4conda/share/psi4
    Memory level set to 256.000 MB

  ==> Input File <==

--------------------------------------------------------------------------
memory 60 Gb

molecule molecule_18_psi {
0 1
C           -2.687130000443    -1.292082109325    -0.462441540051
H           -2.132667030686    -1.154585587182    -1.390631238753
H           -3.645860771364    -0.781646541716    -0.569721169406
H           -2.885638509546    -2.357808463114    -0.351139409529
C            2.770301937524    -1.311897686075    -0.075851014517
H            2.211887331387    -1.608509002595    -0.962897212186
H            2.323562405585    -1.814614923857     0.783943406161
H            3.788640788136    -1.683361906635    -0.188058449413
C           -1.917337323085    -0.746240466499     0.735161493601
H           -0.949902271966    -1.249509541472     0.808692808281
H           -2.457103371174    -0.989857920919     1.652989203579
C            2.752493653460     0.200704780561     0.118993400997
H            3.406470096206     0.462133194188     0.953878380511
H            3.167411092855     0.690438642997    -0.766344996194
C           -1.710793094404     0.766483935859     0.676157656530
H           -1.179197283954     1.091201431020     1.573593456297
H           -2.688092318760     1.257225629297     0.705127891183
C           -0.957603709228     1.247963131078    -0.565770396540
H           -0.799343907329     2.327116271446    -0.483251850499
H           -1.580019667180     1.097641671382    -1.451048222562
C            0.391667156663     0.563654606628    -0.778799607490
H            0.235068496626    -0.501640255521    -0.963137173471
H            0.855161932077     0.966099770311    -1.684953431766
C            1.354522637452     0.752726240438     0.388835080366
H            1.423259747490     1.821036285006     0.616473453539
H            0.952546758806     0.269785173402     1.284444407484
}

set globals {
  reference rhf
  g_convergence gau_verytight
  basis aug-cc-pvtz
  freeze_core true
  scf_type df
  mp_type df
}
optimize('mp2')
--------------------------------------------------------------------------
/usr/local/hpc5/psi4conda/lib/python2.7/site-packages/v2rdm_casscf/v2rdm_casscf.so loaded.

  Memory set to  60.000 GiB by Python script.
gradient() will perform analytic gradient computation.

*** tstart() called on wr39
*** at Wed Sep 21 10:40:24 2016


         ---------------------------------------------------------
                                   SCF
            by Justin Turney, Rob Parrish, and Andy Simmonett
                              RHF Reference
                       12 Threads,  60000 MiB Core
         ---------------------------------------------------------

  ==> Geometry <==

    Molecular point group: c1
    Full point group: C1

    Geometry (in Angstrom), charge = 0, multiplicity = 1:

       Center              X                  Y                   Z               Mass       
    ------------   -----------------  -----------------  -----------------  -----------------
           C         -2.687130000443    -1.292082109325    -0.462441540051    12.000000000000
           H         -2.132667030686    -1.154585587182    -1.390631238753     1.007825032070
           H         -3.645860771364    -0.781646541716    -0.569721169406     1.007825032070
           H         -2.885638509546    -2.357808463114    -0.351139409529     1.007825032070
           C          2.770301937524    -1.311897686075    -0.075851014517    12.000000000000
           H          2.211887331387    -1.608509002595    -0.962897212186     1.007825032070
           H          2.323562405585    -1.814614923857     0.783943406161     1.007825032070
           H          3.788640788136    -1.683361906635    -0.188058449413     1.007825032070
           C         -1.917337323085    -0.746240466499     0.735161493601    12.000000000000
           H         -0.949902271966    -1.249509541472     0.808692808281     1.007825032070
           H         -2.457103371174    -0.989857920919     1.652989203579     1.007825032070
           C          2.752493653460     0.200704780561     0.118993400997    12.000000000000
           H          3.406470096206     0.462133194188     0.953878380511     1.007825032070
           H          3.167411092855     0.690438642997    -0.766344996194     1.007825032070
           C         -1.710793094404     0.766483935859     0.676157656530    12.000000000000
           H         -1.179197283954     1.091201431020     1.573593456297     1.007825032070
           H         -2.688092318760     1.257225629297     0.705127891183     1.007825032070
           C         -0.957603709228     1.247963131078    -0.565770396540    12.000000000000
           H         -0.799343907329     2.327116271446    -0.483251850499     1.007825032070
           H         -1.580019667180     1.097641671382    -1.451048222562     1.007825032070
           C          0.391667156663     0.563654606628    -0.778799607490    12.000000000000
           H          0.235068496626    -0.501640255521    -0.963137173471     1.007825032070
           H          0.855161932077     0.966099770311    -1.684953431766     1.007825032070
           C          1.354522637452     0.752726240438     0.388835080366    12.000000000000
           H          1.423259747490     1.821036285006     0.616473453539     1.007825032070
           H          0.952546758806     0.269785173402     1.284444407484     1.007825032070

  Running in c1 symmetry.

  Rotational constants: A =      0.10186  B =      0.03197  C =      0.02822 [cm^-1]
  Rotational constants: A =   3053.78286  B =    958.41315  C =    846.09412 [MHz]
  Nuclear repulsion =  403.154508927062807

  Charge       = 0
  Multiplicity = 1
  Electrons    = 66
  Nalpha       = 33
  Nbeta        = 33

  ==> Algorithm <==

  SCF Algorithm Type is DF.
  DIIS enabled.
  MOM disabled.
  Fractional occupation disabled.
  Guess Type is SAD.
  Energy threshold   = 1.00e-10
  Density threshold  = 1.00e-10
  Integral threshold = 0.00e+00

  ==> Primary Basis <==

  Basis Set: AUG-CC-PVTZ
    Number of shells: 274
    Number of basis function: 782
    Number of Cartesian functions: 890
    Spherical Harmonics?: true
    Max angular momentum: 3

  ==> Pre-Iterations <==

   -------------------------------------------------------
    Irrep   Nso     Nmo     Nalpha   Nbeta   Ndocc  Nsocc
   -------------------------------------------------------
     A        782     782       0       0       0       0
   -------------------------------------------------------
    Total     782     782      33      33      33       0
   -------------------------------------------------------

  ==> Integral Setup <==

  ==> DFJK: Density-Fitted J/K Matrices <==

    J tasked:                  Yes
    K tasked:                  Yes
    wK tasked:                  No
    OpenMP threads:             12
    Integrals threads:          12
    Memory (MB):             42915
    Algorithm:                Core
    Integral Cache:           NONE
    Schwarz Cutoff:          1E-12
    Fitting Condition:       1E-12

   => Auxiliary Basis Set <=

  Basis Set: 
    Number of shells: 492
    Number of basis function: 1660
    Number of Cartesian functions: 2038
    Spherical Harmonics?: true
    Max angular momentum: 4

  Minimum eigenvalue in the overlap matrix is 1.6379304742E-06.
  Using Symmetric Orthogonalization.
  SCF Guess: Superposition of Atomic Densities via on-the-fly atomic UHF.

  ==> Iterations <==

                           Total Energy        Delta E     RMS |[F,P]|

   @DF-RHF iter   0:  -317.05983813756870   -3.17060e+02   7.06147e-03 
   @DF-RHF iter   1:  -313.29676733437577    3.76307e+00   7.12366e-04 
   @DF-RHF iter   2:  -313.50682510085778   -2.10058e-01   2.67769e-04 DIIS
   @DF-RHF iter   3:  -313.53417860227330   -2.73535e-02   1.04033e-04 DIIS
   @DF-RHF iter   4:  -313.53948543874935   -5.30684e-03   1.61349e-05 DIIS
   @DF-RHF iter   5:  -313.53966039033662   -1.74952e-04   4.46367e-06 DIIS
   @DF-RHF iter   6:  -313.53967243636862   -1.20460e-05   1.30351e-06 DIIS
   @DF-RHF iter   7:  -313.53967339669555   -9.60327e-07   2.88343e-07 DIIS
   @DF-RHF iter   8:  -313.53967345452838   -5.78328e-08   7.49526e-08 DIIS
   @DF-RHF iter   9:  -313.53967345859644   -4.06806e-09   2.33290e-08 DIIS
   @DF-RHF iter  10:  -313.53967345893068   -3.34239e-10   7.10845e-09 DIIS
   @DF-RHF iter  11:  -313.53967345896478   -3.41061e-11   1.45786e-09 DIIS
   @DF-RHF iter  12:  -313.53967345896569   -9.09495e-13   4.02943e-10 DIIS
   @DF-RHF iter  13:  -313.53967345896694   -1.25056e-12   1.20594e-10 DIIS
   @DF-RHF iter  14:  -313.53967345896604    9.09495e-13   3.18478e-11 DIIS

  ==> Post-Iterations <==

    Orbital Energies (a.u.)
    -----------------------

    Doubly Occupied:                                                      

       1A    -11.212952     2A    -11.212262     3A    -11.210164  
       4A    -11.210028     5A    -11.209501     6A    -11.208929  
       7A    -11.207001     8A    -11.206860     9A     -1.096366  
      10A     -1.059184    11A     -1.005462    12A     -0.943497  
      13A     -0.893260    14A     -0.836693    15A     -0.784953  
      16A     -0.744446    17A     -0.650940    18A     -0.629608  
      19A     -0.610151    20A     -0.603648    21A     -0.575037  
      22A     -0.554243    23A     -0.547368    24A     -0.533032  
      25A     -0.510096    26A     -0.503668    27A     -0.494373  
      28A     -0.469909    29A     -0.469846    30A     -0.461787  
      31A     -0.441969    32A     -0.437702    33A     -0.435008  

    Virtual:                                                              

      34A      0.029113    35A      0.033110    36A      0.033957  
      37A      0.034179    38A      0.046715    39A      0.048042  
      40A      0.050387    41A      0.053535    42A      0.054758  
      43A      0.068262    44A      0.068694    45A      0.071256  
      46A      0.073886    47A      0.077259    48A      0.082225  
      49A      0.095543    50A      0.097975    51A      0.103459  
      52A      0.115359    53A      0.117408    54A      0.117667  
      55A      0.121595    56A      0.130461    57A      0.132991  
      58A      0.134737    59A      0.139494    60A      0.140634  
      61A      0.141796    62A      0.144255    63A      0.150336  
      64A      0.153161    65A      0.154894    66A      0.164191  
      67A      0.164976    68A      0.167077    69A      0.169593  
      70A      0.174071    71A      0.179231    72A      0.182376  
      73A      0.187773    74A      0.189228    75A      0.192987  
      76A      0.194584    77A      0.212809    78A      0.216693  
      79A      0.220225    80A      0.232082    81A      0.239308  
      82A      0.245023    83A      0.254182    84A      0.256280  
      85A      0.273979    86A      0.279335    87A      0.280649  
      88A      0.287043    89A      0.293188    90A      0.298309  
      91A      0.300497    92A      0.307222    93A      0.311212  
      94A      0.314252    95A      0.316949    96A      0.323165  
      97A      0.324933    98A      0.327296    99A      0.327717  
     100A      0.333748   101A      0.339934   102A      0.343593  
     103A      0.347530   104A      0.351432   105A      0.353333  
     106A      0.358349   107A      0.361448   108A      0.366488  
     109A      0.370703   110A      0.371188   111A      0.371578  
     112A      0.380153   113A      0.384384   114A      0.385586  
     115A      0.392095   116A      0.394445   117A      0.396496  
     118A      0.402549   119A      0.412076   120A      0.416158  
     121A      0.420367   122A      0.424760   123A      0.428650  
     124A      0.436622   125A      0.439743   126A      0.441076  
     127A      0.444384   128A      0.450801   129A      0.454402  
     130A      0.457032   131A      0.461491   132A      0.462329  
     133A      0.466754   134A      0.468253   135A      0.471686  
     136A      0.477460   137A      0.481024   138A      0.482619  
     139A      0.488503   140A      0.492609   141A      0.497914  
     142A      0.499974   143A      0.501461   144A      0.504433  
     145A      0.510291   146A      0.512226   147A      0.520476  
     148A      0.522547   149A      0.525135   150A      0.529695  
     151A      0.534642   152A      0.540023   153A      0.546048  
     154A      0.549719   155A      0.550518   156A      0.553756  
     157A      0.561469   158A      0.566514   159A      0.567582  
     160A      0.575572   161A      0.579872   162A      0.587917  
     163A      0.590021   164A      0.592013   165A      0.595231  
     166A      0.606106   167A      0.609845   168A      0.611426  
     169A      0.615037   170A      0.623566   171A      0.626645  
     172A      0.630283   173A      0.637892   174A      0.639792  
     175A      0.643350   176A      0.649934   177A      0.652419  
     178A      0.656280   179A      0.668797   180A      0.672962  
     181A      0.678047   182A      0.679180   183A      0.687562  
     184A      0.694575   185A      0.697196   186A      0.699832  
     187A      0.707187   188A      0.710561   189A      0.713088  
     190A      0.721308   191A      0.733142   192A      0.740238  
     193A      0.743377   194A      0.751984   195A      0.753089  
     196A      0.762382   197A      0.766173   198A      0.770030  
     199A      0.783843   200A      0.784776   201A      0.794685  
     202A      0.802078   203A      0.811754   204A      0.827364  
     205A      0.828741   206A      0.834352   207A      0.846940  
     208A      0.853583   209A      0.861769   210A      0.864024  
     211A      0.868996   212A      0.873979   213A      0.882574  
     214A      0.884852   215A      0.893098   216A      0.897153  
     217A      0.901258   218A      0.913064   219A      0.913587  
     220A      0.917706   221A      0.924791   222A      0.927922  
     223A      0.931417   224A      0.932308   225A      0.942092  
     226A      0.943688   227A      0.950882   228A      0.953579  
     229A      0.960065   230A      0.967027   231A      0.975663  
     232A      0.977635   233A      0.983420   234A      0.985416  
     235A      0.991927   236A      1.003640   237A      1.005053  
     238A      1.007538   239A      1.017889   240A      1.021129  
     241A      1.026430   242A      1.029636   243A      1.035891  
     244A      1.037968   245A      1.042146   246A      1.043771  
     247A      1.051145   248A      1.061555   249A      1.062980  
     250A      1.065204   251A      1.076010   252A      1.080273  
     253A      1.082136   254A      1.087656   255A      1.096664  
     256A      1.098991   257A      1.102379   258A      1.107592  
     259A      1.112593   260A      1.119113   261A      1.128209  
     262A      1.134892   263A      1.137516   264A      1.143654  
     265A      1.150883   266A      1.156389   267A      1.163992  
     268A      1.168791   269A      1.176354   270A      1.179065  
     271A      1.183133   272A      1.186928   273A      1.191327  
     274A      1.200675   275A      1.202363   276A      1.209988  
     277A      1.217418   278A      1.222158   279A      1.223245  
     280A      1.228095   281A      1.234599   282A      1.243200  
     283A      1.247379   284A      1.253350   285A      1.256902  
     286A      1.267708   287A      1.269397   288A      1.271625  
     289A      1.273489   290A      1.281681   291A      1.288374  
     292A      1.292311   293A      1.299257   294A      1.301772  
     295A      1.308496   296A      1.310233   297A      1.321160  
     298A      1.326870   299A      1.331495   300A      1.344237  
     301A      1.349244   302A      1.350006   303A      1.359170  
     304A      1.362834   305A      1.376065   306A      1.388715  
     307A      1.393548   308A      1.397585   309A      1.404767  
     310A      1.406556   311A      1.421071   312A      1.428365  
     313A      1.436576   314A      1.443286   315A      1.450101  
     316A      1.455589   317A      1.465237   318A      1.470165  
     319A      1.482479   320A      1.495451   321A      1.500145  
     322A      1.503963   323A      1.506503   324A      1.518764  
     325A      1.520701   326A      1.528060   327A      1.531230  
     328A      1.537532   329A      1.551736   330A      1.556959  
     331A      1.564408   332A      1.570785   333A      1.578621  
     334A      1.580911   335A      1.593573   336A      1.597696  
     337A      1.606136   338A      1.612117   339A      1.618177  
     340A      1.625254   341A      1.627499   342A      1.641227  
     343A      1.642292   344A      1.654266   345A      1.660588  
     346A      1.668542   347A      1.675619   348A      1.678931  
     349A      1.687921   350A      1.698760   351A      1.699092  
     352A      1.704408   353A      1.711436   354A      1.712883  
     355A      1.722557   356A      1.728849   357A      1.739896  
     358A      1.743698   359A      1.749244   360A      1.753705  
     361A      1.761083   362A      1.767230   363A      1.774190  
     364A      1.785247   365A      1.790371   366A      1.791724  
     367A      1.797138   368A      1.804596   369A      1.806504  
     370A      1.810614   371A      1.823045   372A      1.830357  
     373A      1.837607   374A      1.841031   375A      1.850562  
     376A      1.860088   377A      1.864546   378A      1.872303  
     379A      1.876692   380A      1.878973   381A      1.886285  
     382A      1.888952   383A      1.889168   384A      1.903304  
     385A      1.910654   386A      1.918188   387A      1.930800  
     388A      1.935338   389A      1.943232   390A      1.947730  
     391A      1.951977   392A      1.959275   393A      1.964640  
     394A      1.976485   395A      1.981565   396A      1.988487  
     397A      1.997671   398A      2.001230   399A      2.004932  
     400A      2.009688   401A      2.021763   402A      2.029590  
     403A      2.033237   404A      2.038732   405A      2.046408  
     406A      2.046938   407A      2.054245   408A      2.063079  
     409A      2.074831   410A      2.077629   411A      2.085046  
     412A      2.092973   413A      2.100397   414A      2.106667  
     415A      2.113596   416A      2.118840   417A      2.125960  
     418A      2.128218   419A      2.133210   420A      2.144856  
     421A      2.153162   422A      2.165475   423A      2.179748  
     424A      2.181120   425A      2.190845   426A      2.201581  
     427A      2.202070   428A      2.219691   429A      2.237590  
     430A      2.240898   431A      2.251434   432A      2.261001  
     433A      2.274269   434A      2.278613   435A      2.294142  
     436A      2.295642   437A      2.305734   438A      2.313338  
     439A      2.318601   440A      2.329129   441A      2.335264  
     442A      2.351671   443A      2.356150   444A      2.363924  
     445A      2.374412   446A      2.376489   447A      2.378851  
     448A      2.394814   449A      2.407340   450A      2.417181  
     451A      2.422272   452A      2.431187   453A      2.435330  
     454A      2.445826   455A      2.461245   456A      2.472966  
     457A      2.491153   458A      2.494835   459A      2.503593  
     460A      2.509252   461A      2.523125   462A      2.527948  
     463A      2.542664   464A      2.551799   465A      2.564666  
     466A      2.575589   467A      2.585100   468A      2.594989  
     469A      2.603972   470A      2.620076   471A      2.630799  
     472A      2.646976   473A      2.653264   474A      2.682154  
     475A      2.692063   476A      2.707334   477A      2.717763  
     478A      2.725914   479A      2.735547   480A      2.755640  
     481A      2.772600   482A      2.784940   483A      2.826495  
     484A      2.906885   485A      2.928924   486A      2.960871  
     487A      2.988071   488A      3.013320   489A      3.078819  
     490A      3.129697   491A      3.211497   492A      3.261686  
     493A      3.273793   494A      3.311843   495A      3.379031  
     496A      3.414110   497A      3.435719   498A      3.442917  
     499A      3.456739   500A      3.472611   501A      3.484899  
     502A      3.496548   503A      3.521596   504A      3.529302  
     505A      3.554893   506A      3.561353   507A      3.577624  
     508A      3.582082   509A      3.584150   510A      3.597453  
     511A      3.617039   512A      3.618429   513A      3.640891  
     514A      3.646765   515A      3.663829   516A      3.665152  
     517A      3.681825   518A      3.692350   519A      3.695633  
     520A      3.708990   521A      3.719062   522A      3.728313  
     523A      3.745755   524A      3.750906   525A      3.753602  
     526A      3.770965   527A      3.776437   528A      3.782383  
     529A      3.787174   530A      3.791770   531A      3.800221  
     532A      3.812699   533A      3.816840   534A      3.826693  
     535A      3.833708   536A      3.849312   537A      3.863877  
     538A      3.872736   539A      3.881045   540A      3.887064  
     541A      3.889174   542A      3.897468   543A      3.902875  
     544A      3.913812   545A      3.921760   546A      3.932722  
     547A      3.944027   548A      3.952731   549A      3.959621  
     550A      3.962361   551A      3.970283   552A      3.992174  
     553A      3.992763   554A      4.007650   555A      4.013921  
     556A      4.015658   557A      4.019444   558A      4.020766  
     559A      4.027003   560A      4.033560   561A      4.042023  
     562A      4.050212   563A      4.057982   564A      4.060733  
     565A      4.070680   566A      4.077046   567A      4.087344  
     568A      4.092100   569A      4.099319   570A      4.104022  
     571A      4.110215   572A      4.116509   573A      4.128721  
     574A      4.140356   575A      4.147472   576A      4.158182  
     577A      4.168799   578A      4.172406   579A      4.183268  
     580A      4.189970   581A      4.197673   582A      4.202477  
     583A      4.213528   584A      4.221289   585A      4.237014  
     586A      4.245613   587A      4.247069   588A      4.257049  
     589A      4.264696   590A      4.279453   591A      4.285610  
     592A      4.296914   593A      4.308808   594A      4.320563  
     595A      4.332294   596A      4.335156   597A      4.351340  
     598A      4.357849   599A      4.367778   600A      4.379002  
     601A      4.392925   602A      4.403447   603A      4.404330  
     604A      4.415194   605A      4.429608   606A      4.438130  
     607A      4.453415   608A      4.462824   609A      4.481563  
     610A      4.488558   611A      4.507674   612A      4.520572  
     613A      4.525408   614A      4.551862   615A      4.559727  
     616A      4.570867   617A      4.597742   618A      4.606683  
     619A      4.621624   620A      4.634106   621A      4.646484  
     622A      4.653714   623A      4.673722   624A      4.682109  
     625A      4.686186   626A      4.698577   627A      4.710745  
     628A      4.724502   629A      4.736068   630A      4.738833  
     631A      4.757550   632A      4.759990   633A      4.770705  
     634A      4.781519   635A      4.788675   636A      4.802227  
     637A      4.828149   638A      4.831526   639A      4.839753  
     640A      4.841064   641A      4.851476   642A      4.858436  
     643A      4.872906   644A      4.874094   645A      4.889131  
     646A      4.905505   647A      4.921575   648A      4.926725  
     649A      4.942518   650A      4.944015   651A      4.949888  
     652A      4.962503   653A      4.977055   654A      4.987625  
     655A      4.998555   656A      5.014617   657A      5.027688  
     658A      5.054215   659A      5.062389   660A      5.071679  
     661A      5.095082   662A      5.105536   663A      5.122208  
     664A      5.132293   665A      5.142181   666A      5.154239  
     667A      5.166401   668A      5.179031   669A      5.194193  
     670A      5.203644   671A      5.215987   672A      5.226157  
     673A      5.238084   674A      5.248160   675A      5.261955  
     676A      5.271964   677A      5.275983   678A      5.283796  
     679A      5.295601   680A      5.305574   681A      5.318047  
     682A      5.328080   683A      5.353406   684A      5.355456  
     685A      5.362534   686A      5.374037   687A      5.387321  
     688A      5.395291   689A      5.413240   690A      5.424903  
     691A      5.431701   692A      5.439171   693A      5.449662  
     694A      5.457091   695A      5.466700   696A      5.472279  
     697A      5.480209   698A      5.490228   699A      5.497176  
     700A      5.507308   701A      5.518433   702A      5.564384  
     703A      5.571848   704A      5.585992   705A      5.595425  
     706A      5.602256   707A      5.623005   708A      5.628739  
     709A      5.630346   710A      5.645965   711A      5.667744  
     712A      5.674232   713A      5.679793   714A      5.681463  
     715A      5.695438   716A      5.702861   717A      5.720031  
     718A      5.732165   719A      5.743666   720A      5.763524  
     721A      5.772609   722A      5.778835   723A      5.808761  
     724A      5.822458   725A      5.829403   726A      5.845544  
     727A      5.848147   728A      5.875530   729A      5.892708  
     730A      5.926945   731A      5.952808   732A      5.967676  
     733A      5.974468   734A      6.004236   735A      6.023932  
     736A      6.037772   737A      6.050283   738A      6.073368  
     739A      6.087788   740A      6.118541   741A      6.148838  
     742A      6.155823   743A      6.163649   744A      6.193739  
     745A      6.224139   746A      6.241886   747A      6.263902  
     748A      6.277483   749A      6.305638   750A      6.313182  
     751A      6.331043   752A      6.338134   753A      6.356514  
     754A      6.360695   755A      6.383112   756A      6.393179  
     757A      6.410721   758A      6.433377   759A      6.587580  
     760A      6.656133   761A      6.685228   762A      6.691324  
     763A      6.737476   764A      6.803008   765A      6.807988  
     766A      6.875071   767A      6.925001   768A      6.929968  
     769A      6.956833   770A      7.014116   771A      7.041393  
     772A      7.105641   773A      7.122205   774A      7.174549  
     775A     17.956694   776A     18.114942   777A     18.341170  
     778A     18.525959   779A     18.693465   780A     18.934572  
     781A     19.485393   782A     19.834225  

    Final Occupation by Irrep:
              A 
    DOCC [    33 ]

  Energy converged.

  @DF-RHF Final Energy:  -313.53967345896604

   => Energetics <=

    Nuclear Repulsion Energy =            403.1545089270628068
    One-Electron Energy =               -1221.4484781789999488
    Two-Electron Energy =                 504.7542957929708223
    DFT Exchange-Correlation Energy =       0.0000000000000000
    Empirical Dispersion Energy =           0.0000000000000000
    PCM Polarization Energy =               0.0000000000000000
    EFP Energy =                            0.0000000000000000
    Total Energy =                       -313.5396734589663197


  Saving occupied orbitals to File 180.

*** tstop() called on wr39 at Wed Sep 21 10:41:37 2016
Module time:
	user time   =     747.10 seconds =      12.45 minutes
	system time =       9.83 seconds =       0.16 minutes
	total time  =         73 seconds =       1.22 minutes
Total time:
	user time   =     747.10 seconds =      12.45 minutes
	system time =       9.83 seconds =       0.16 minutes
	total time  =         73 seconds =       1.22 minutes


Properties will be evaluated at   0.000000,   0.000000,   0.000000 Bohr

Properties computed using the SCF density matrix

  Nuclear Dipole Moment: (a.u.)
     X:     0.0433      Y:    -2.0239      Z:    -0.4050

  Electronic Dipole Moment: (a.u.)
     X:    -0.0288      Y:     2.0513      Z:     0.4257

  Dipole Moment: (a.u.)
     X:     0.0145      Y:     0.0274      Z:     0.0207     Total:     0.0373

  Dipole Moment: (Debye)
     X:     0.0369      Y:     0.0697      Z:     0.0526     Total:     0.0948


  //>>>>>>>>>>>>>>>>>>>>>>>>>>>>>>>>>>>//
  //               DFMP2               //
  //<<<<<<<<<<<<<<<<<<<<<<<<<<<<<<<<<<<//


*** tstart() called on wr39
*** at Wed Sep 21 10:41:37 2016


*** tstop() called on wr39 at Wed Sep 21 10:41:38 2016
Module time:
	user time   =       4.15 seconds =       0.07 minutes
	system time =       0.17 seconds =       0.00 minutes
	total time  =          1 seconds =       0.02 minutes
Total time:
	user time   =     751.41 seconds =      12.52 minutes
	system time =      10.01 seconds =       0.17 minutes
	total time  =         74 seconds =       1.23 minutes
	 --------------------------------------------------------
	                          DF-MP2                         
	      2nd-Order Density-Fitted Moller-Plesset Theory     
	              RMP2 Wavefunction,  12 Threads             
	                                                         
	        Rob Parrish, Justin Turney, Andy Simmonett,      
	           Ed Hohenstein, and C. David Sherrill          
	 --------------------------------------------------------

   => Auxiliary Basis Set <=

  Basis Set: 
    Number of shells: 476
    Number of basis function: 1676
    Number of Cartesian functions: 2078
    Spherical Harmonics?: true
    Max angular momentum: 4

	 --------------------------------------------------------
	                 NBF =   782, NAUX =  1676
	 --------------------------------------------------------
	   CLASS    FOCC     OCC    AOCC    AVIR     VIR    FVIR
	   PAIRS       8      33      25     749     749       0
	 --------------------------------------------------------

DGAS Warning! /src/lib/libfock/apps.cc:80 is not currently checking restricted

         ------------------------------------------------------------
                                     CPHF                           
                                  Rob Parrish                       
         ------------------------------------------------------------

  ==> Geometry <==

    Molecular point group: c1
    Full point group: C1

    Geometry (in Angstrom), charge = 0, multiplicity = 1:

       Center              X                  Y                   Z               Mass       
    ------------   -----------------  -----------------  -----------------  -----------------
           C         -2.687130000443    -1.292082109325    -0.462441540051    12.000000000000
           H         -2.132667030686    -1.154585587182    -1.390631238753     1.007825032070
           H         -3.645860771364    -0.781646541716    -0.569721169406     1.007825032070
           H         -2.885638509546    -2.357808463114    -0.351139409529     1.007825032070
           C          2.770301937524    -1.311897686075    -0.075851014517    12.000000000000
           H          2.211887331387    -1.608509002595    -0.962897212186     1.007825032070
           H          2.323562405585    -1.814614923857     0.783943406161     1.007825032070
           H          3.788640788136    -1.683361906635    -0.188058449413     1.007825032070
           C         -1.917337323085    -0.746240466499     0.735161493601    12.000000000000
           H         -0.949902271966    -1.249509541472     0.808692808281     1.007825032070
           H         -2.457103371174    -0.989857920919     1.652989203579     1.007825032070
           C          2.752493653460     0.200704780561     0.118993400997    12.000000000000
           H          3.406470096206     0.462133194188     0.953878380511     1.007825032070
           H          3.167411092855     0.690438642997    -0.766344996194     1.007825032070
           C         -1.710793094404     0.766483935859     0.676157656530    12.000000000000
           H         -1.179197283954     1.091201431020     1.573593456297     1.007825032070
           H         -2.688092318760     1.257225629297     0.705127891183     1.007825032070
           C         -0.957603709228     1.247963131078    -0.565770396540    12.000000000000
           H         -0.799343907329     2.327116271446    -0.483251850499     1.007825032070
           H         -1.580019667180     1.097641671382    -1.451048222562     1.007825032070
           C          0.391667156663     0.563654606628    -0.778799607490    12.000000000000
           H          0.235068496626    -0.501640255521    -0.963137173471     1.007825032070
           H          0.855161932077     0.966099770311    -1.684953431766     1.007825032070
           C          1.354522637452     0.752726240438     0.388835080366    12.000000000000
           H          1.423259747490     1.821036285006     0.616473453539     1.007825032070
           H          0.952546758806     0.269785173402     1.284444407484     1.007825032070

  Nuclear repulsion =  403.154508927062807
  Reference energy  = -313.539673458966035

  ==> Basis Set <==

  Basis Set: AUG-CC-PVTZ
    Number of shells: 274
    Number of basis function: 782
    Number of Cartesian functions: 890
    Spherical Harmonics?: true
    Max angular momentum: 3

  ==> CGRSolver (by Rob Parrish) <==

   Number of roots    =         1
   Preconditioning    =    JACOBI
   Convergence cutoff =     1E-06
   Maximum iterations =       100

  ==> CPHFRHamiltonian (by Rob Parrish) <== 

  ==> DFJK: Density-Fitted J/K Matrices <==

    J tasked:                  Yes
    K tasked:                  Yes
    wK tasked:                  No
    OpenMP threads:             12
    Integrals threads:          12
    Memory (MB):             42915
    Algorithm:                Core
    Integral Cache:           NONE
    Schwarz Cutoff:          1E-12
    Fitting Condition:       1E-12

   => Auxiliary Basis Set <=

  Basis Set: 
    Number of shells: 492
    Number of basis function: 1660
    Number of Cartesian functions: 2038
    Spherical Harmonics?: true
    Max angular momentum: 4

  ==> CPHF Iterations <==

  => Iterations <=

             Iter  Converged  Remaining    Residual
  CGR           1          0          1   9.384E-02
  CGR           2          0          1   1.346E-02
  CGR           3          0          1   3.905E-03
  CGR           4          0          1   8.825E-04
  CGR           5          0          1   2.251E-04
  CGR           6          0          1   4.942E-05
  CGR           7          0          1   1.330E-05
  CGR           8          0          1   3.599E-06
  CGR           9          1          0   9.388E-07

    CGRSolver converged.

  ==> DFCorrGrad: Density-Fitted Correlated Gradients <==

    OpenMP threads:             12
    Integrals threads:          12
    Memory (MB):             42915
    Schwarz Cutoff:          0E+00
    Fitting Condition:       1E-12

   => Auxiliary Basis Set <=

  Basis Set: 
    Number of shells: 492
    Number of basis function: 1660
    Number of Cartesian functions: 2038
    Spherical Harmonics?: true
    Max angular momentum: 4

	-----------------------------------------------------------
	 ==================> DF-MP2 Energies <==================== 
	-----------------------------------------------------------
	 Reference Energy          =    -313.5396734589660355 [Eh]
	 Singles Energy            =      -0.0000000000000001 [Eh]
	 Same-Spin Energy          =      -0.3173910266843810 [Eh]
	 Opposite-Spin Energy      =      -1.1266984977132508 [Eh]
	 Correlation Energy        =      -1.4440895243976317 [Eh]
	 Total Energy              =    -314.9837629833636470 [Eh]
	-----------------------------------------------------------
	 ================> DF-SCS-MP2 Energies <================== 
	-----------------------------------------------------------
	 SCS Same-Spin Scale       =       0.3333333333333333 [-]
	 SCS Opposite-Spin Scale   =       1.2000000000000000 [-]
	 SCS Same-Spin Energy      =      -0.1057970088947937 [Eh]
	 SCS Opposite-Spin Energy  =      -1.3520381972559010 [Eh]
	 SCS Correlation Energy    =      -1.4578352061506947 [Eh]
	 SCS Total Energy          =    -314.9975086651167544 [Eh]
	-----------------------------------------------------------


  -Total Gradient:
     Atom            X                  Y                   Z
    ------   -----------------  -----------------  -----------------
       1       -0.000000231306    -0.000000464179    -0.000000529046
       2       -0.000000243817    -0.000000002912     0.000000346518
       3        0.000000397678    -0.000000253159     0.000000140063
       4        0.000000063890     0.000000212836    -0.000000171745
       5        0.000000074786     0.000000188610     0.000000055560
       6       -0.000000057672     0.000000032558    -0.000000112170
       7       -0.000000100566    -0.000000080797     0.000000144572
       8        0.000000203265    -0.000000015271     0.000000034452
       9        0.000000197463    -0.000000066315     0.000000764274
      10       -0.000000684930     0.000000440541    -0.000000209277
      11        0.000000355437    -0.000000077679    -0.000000173214
      12        0.000000239342     0.000000050928    -0.000000018381
      13        0.000000079443    -0.000000038464     0.000000048617
      14       -0.000000108281     0.000000020714     0.000000050750
      15       -0.000000016644     0.000000632905     0.000000244685
      16       -0.000000330480    -0.000000202079    -0.000000709350
      17        0.000000613535    -0.000000381087     0.000000008178
      18       -0.000000431641     0.000000461227    -0.000000880858
      19       -0.000000013137    -0.000000843346    -0.000000350404
      20        0.000000632245     0.000000280226     0.000001085802
      21       -0.000001102009    -0.000000593852    -0.000000690076
      22       -0.000000133000     0.000001148434     0.000000127501
      23       -0.000000068598    -0.000000290829     0.000000171964
      24        0.000000917697     0.000000024978     0.000000854371
      25       -0.000000062318    -0.000000411133    -0.000000095269
      26       -0.000000190383     0.000000227142    -0.000000137514


			-----------------------------------------
			 OPTKING 2.0: for geometry optimizations 
			  - R.A. King,  Bethel University        
			-----------------------------------------

	Internal coordinates to be generated automatically.
	Detected frag 1 with atoms:  1 2 3 4 5 6 7 8 9 10 11 12 13 14 15 16 17 18 19 20
	 21 22 23 24 25 26
	---Fragment 1 Bond Connectivity---
	 1 : 2 3 4 9
	 2 : 1
	 3 : 1
	 4 : 1
	 5 : 6 7 8 12
	 6 : 5
	 7 : 5
	 8 : 5
	 9 : 1 10 11 15
	 10 : 9
	 11 : 9
	 12 : 5 13 14 24
	 13 : 12
	 14 : 12
	 15 : 9 16 17 18
	 16 : 15
	 17 : 15
	 18 : 15 19 20 21
	 19 : 18
	 20 : 18
	 21 : 18 22 23 24
	 22 : 21
	 23 : 21
	 24 : 12 21 25 26
	 25 : 24
	 26 : 24

	---Fragment 1 Geometry and Gradient---
	 C          -5.0779397843       -2.4416813278       -0.8738878632
	 H          -4.0301566206       -2.1818505568       -2.6279121931
	 H          -6.8896783765       -1.4770978966       -1.0766169823
	 H          -5.4530665015       -4.4556122691       -0.6635573185
	 C           5.2351119673       -2.4791273410       -0.1433376443
	 H           4.1798612931       -3.0396414972       -1.8196120252
	 H           4.3908965992       -3.4291252427        1.4814383413
	 H           7.1594935055       -3.1810929861       -0.3553789664
	 C          -3.6232424450       -1.4101901110        1.3892538863
	 H          -1.7950551470       -2.3612308338        1.5282079333
	 H          -4.6432524517       -1.8705603810        3.1236968954
	 C           5.2014591875        0.3792770688        0.2248649395
	 H           6.4372955617        0.8733051739        1.8025689032
	 H           5.9855395158        1.3047399468       -1.4481821661
	 C          -3.2329304185        1.4484447240        1.2777527935
	 H          -2.2283599233        2.0620718604        2.9736606769
	 H          -5.0797583024        2.3758121266        1.3324986030
	 C          -1.8096087543        2.3583085417       -1.0691511036
	 H          -1.5105410708        4.3976124324       -0.9132136507
	 H          -2.9858044555        2.0742421510       -2.7420837463
	 C           0.7401436613        1.0651528401       -1.4717179706
	 H           0.4442150811       -0.9479627002       -1.8200654863
	 H           1.6160218509        1.8256639829       -3.1841005327
	 C           2.5596768256        1.4224464475        0.7347918128
	 H           2.6895711387        3.4412598567        1.1649659954
	 H           1.8000525029        0.5098200924        2.4272481631
	            -0.0000002313       -0.0000004642       -0.0000005290
	            -0.0000002438       -0.0000000029        0.0000003465
	             0.0000003977       -0.0000002532        0.0000001401
	             0.0000000639        0.0000002128       -0.0000001717
	             0.0000000748        0.0000001886        0.0000000556
	            -0.0000000577        0.0000000326       -0.0000001122
	            -0.0000001006       -0.0000000808        0.0000001446
	             0.0000002033       -0.0000000153        0.0000000345
	             0.0000001975       -0.0000000663        0.0000007643
	            -0.0000006849        0.0000004405       -0.0000002093
	             0.0000003554       -0.0000000777       -0.0000001732
	             0.0000002393        0.0000000509       -0.0000000184
	             0.0000000794       -0.0000000385        0.0000000486
	            -0.0000001083        0.0000000207        0.0000000508
	            -0.0000000166        0.0000006329        0.0000002447
	            -0.0000003305       -0.0000002021       -0.0000007093
	             0.0000006135       -0.0000003811        0.0000000082
	            -0.0000004316        0.0000004612       -0.0000008809
	            -0.0000000131       -0.0000008433       -0.0000003504
	             0.0000006322        0.0000002802        0.0000010858
	            -0.0000011020       -0.0000005939       -0.0000006901
	            -0.0000001330        0.0000011484        0.0000001275
	            -0.0000000686       -0.0000002908        0.0000001720
	             0.0000009177        0.0000000250        0.0000008544
	            -0.0000000623       -0.0000004111       -0.0000000953
	            -0.0000001904        0.0000002271       -0.0000001375

	Previous optimization step data not found.  Starting new optimization.

	---Fragment 1 Intrafragment Coordinates---
	 - Coordinate -           - BOHR/RAD -       - ANG/DEG -
	 R(1,2)           =         2.059603	       1.089895
	 R(1,3)           =         2.062503	       1.091429
	 R(1,4)           =         2.059339	       1.089755
	 R(1,9)           =         2.881307	       1.524722
	 R(5,6)           =         2.058549	       1.089337
	 R(5,7)           =         2.062788	       1.091580
	 R(5,8)           =         2.059360	       1.089766
	 R(5,12)          =         2.882218	       1.525204
	 R(9,10)          =         2.065443	       1.092985
	 R(9,11)          =         2.064135	       1.092293
	 R(9,15)          =         2.887312	       1.527900
	 R(12,13)         =         2.064099	       1.092274
	 R(12,14)         =         2.066483	       1.093535
	 R(12,24)         =         2.885696	       1.527045
	 R(15,16)         =         2.064414	       1.092441
	 R(15,17)         =         2.067312	       1.093975
	 R(15,18)         =         2.891653	       1.530197
	 R(18,19)         =         2.067007	       1.093813
	 R(18,20)         =         2.064663	       1.092573
	 R(18,21)         =         2.887135	       1.527806
	 R(21,22)         =         2.064353	       1.092409
	 R(21,23)         =         2.068283	       1.094488
	 R(21,24)         =         2.882194	       1.525192
	 R(24,25)         =         2.068219	       1.094454
	 R(24,26)         =         2.067444	       1.094044
	 B(1,9,10)        =         1.912276	     109.565365
	 B(1,9,11)        =         1.907808	     109.309321
	 B(1,9,15)        =         1.973988	     113.101173
	 B(2,1,3)         =         1.879862	     107.708155
	 B(2,1,4)         =         1.878662	     107.639401
	 B(2,1,9)         =         1.946484	     111.525319
	 B(3,1,4)         =         1.883247	     107.902112
	 B(3,1,9)         =         1.931860	     110.687434
	 B(4,1,9)         =         1.941043	     111.213559
	 B(5,12,13)       =         1.905004	     109.148704
	 B(5,12,14)       =         1.913767	     109.650789
	 B(5,12,24)       =         1.973355	     113.064889
	 B(6,5,7)         =         1.881993	     107.830257
	 B(6,5,8)         =         1.877967	     107.599562
	 B(6,5,12)        =         1.947737	     111.597094
	 B(7,5,8)         =         1.882367	     107.851657
	 B(7,5,12)        =         1.929792	     110.568918
	 B(8,5,12)        =         1.941331	     111.230087
	 B(9,15,16)       =         1.905347	     109.168366
	 B(9,15,17)       =         1.899001	     108.804719
	 B(9,15,18)       =         1.992602	     114.167659
	 B(10,9,11)       =         1.852683	     106.150924
	 B(10,9,15)       =         1.916464	     109.805290
	 B(11,9,15)       =         1.896598	     108.667070
	 B(12,24,21)      =         1.979963	     113.443549
	 B(12,24,25)      =         1.909345	     109.397435
	 B(12,24,26)      =         1.898055	     108.750554
	 B(13,12,14)      =         1.859247	     106.527002
	 B(13,12,24)      =         1.903428	     109.058407
	 B(14,12,24)      =         1.905540	     109.179407
	 B(15,18,19)      =         1.896972	     108.688494
	 B(15,18,20)      =         1.911264	     109.507355
	 B(15,18,21)      =         1.989889	     114.012245
	 B(16,15,17)      =         1.854197	     106.237642
	 B(16,15,18)      =         1.911012	     109.492937
	 B(17,15,18)      =         1.896595	     108.666885
	 B(18,21,22)      =         1.911038	     109.494384
	 B(18,21,23)      =         1.901534	     108.949878
	 B(18,21,24)      =         1.977145	     113.282071
	 B(19,18,20)      =         1.853854	     106.218033
	 B(19,18,21)      =         1.901428	     108.943773
	 B(20,18,21)      =         1.905515	     109.177988
	 B(21,24,25)      =         1.896405	     108.655992
	 B(21,24,26)      =         1.917749	     109.878925
	 B(22,21,23)      =         1.854147	     106.234814
	 B(22,21,24)      =         1.918321	     109.911719
	 B(23,21,24)      =         1.897481	     108.717633
	 B(25,24,26)      =         1.858437	     106.480622
	 D(1,9,15,16)     =         3.115015	     178.477200
	 D(1,9,15,17)     =         1.098509	      62.939936
	 D(1,9,15,18)     =        -1.023123	     -58.620649
	 D(2,1,9,10)      =        -1.021298	     -58.516074
	 D(2,1,9,11)      =        -3.044729	    -174.450096
	 D(2,1,9,15)      =         1.122951	      64.340361
	 D(3,1,9,10)      =        -3.113904	    -178.413546
	 D(3,1,9,11)      =         1.145851	      65.652432
	 D(3,1,9,15)      =        -0.969655	     -55.557111
	 D(4,1,9,10)      =         1.076003	      61.650446
	 D(4,1,9,11)      =        -0.947427	     -54.283576
	 D(4,1,9,15)      =        -3.062933	    -175.493119
	 D(5,12,24,21)    =        -1.118063	     -64.060266
	 D(5,12,24,25)    =         3.044738	     174.450620
	 D(5,12,24,26)    =         1.021517	      58.528593
	 D(6,5,12,13)     =        -3.039378	    -174.143525
	 D(6,5,12,14)     =        -1.008812	     -57.800643
	 D(6,5,12,24)     =         1.122005	      64.286135
	 D(7,5,12,13)     =         1.149073	      65.837046
	 D(7,5,12,14)     =        -3.103546	    -177.820071
	 D(7,5,12,24)     =        -0.972729	     -55.733294
	 D(8,5,12,13)     =        -0.941913	     -53.967655
	 D(8,5,12,14)     =         1.088653	      62.375228
	 D(8,5,12,24)     =        -3.063716	    -175.537994
	 D(9,15,18,19)    =        -3.073772	    -176.114136
	 D(9,15,18,20)    =         1.191214	      68.251553
	 D(9,15,18,21)    =        -0.949242	     -54.387532
	 D(10,9,15,16)    =        -1.026247	     -58.799609
	 D(10,9,15,17)    =        -3.042752	    -174.336873
	 D(10,9,15,18)    =         1.118800	      64.102542
	 D(11,9,15,16)    =         0.993188	      56.905470
	 D(11,9,15,17)    =        -1.023318	     -58.631794
	 D(11,9,15,18)    =         3.138235	     179.807621
	 D(12,24,21,18)   =        -3.033194	    -173.789217
	 D(12,24,21,22)   =         1.106068	      63.373020
	 D(12,24,21,23)   =        -0.916640	     -52.519626
	 D(13,12,24,21)   =         3.042433	     174.318550
	 D(13,12,24,25)   =         0.922048	      52.829436
	 D(13,12,24,26)   =        -1.101173	     -63.092591
	 D(14,12,24,21)   =         1.017355	      58.290148
	 D(14,12,24,25)   =        -1.103030	     -63.198966
	 D(14,12,24,26)   =        -3.126251	    -179.120993
	 D(15,18,21,22)   =         1.118602	      64.091191
	 D(15,18,21,23)   =         3.139569	     179.884065
	 D(15,18,21,24)   =        -1.029345	     -58.977123
	 D(16,15,18,19)   =        -0.931806	     -53.388564
	 D(16,15,18,20)   =        -2.950006	    -169.022875
	 D(16,15,18,21)   =         1.192724	      68.338040
	 D(17,15,18,19)   =         1.086455	      62.249284
	 D(17,15,18,20)   =        -0.931744	     -53.385027
	 D(17,15,18,21)   =        -3.072200	    -176.024112
	 D(18,21,24,25)   =        -0.905582	     -51.886046
	 D(18,21,24,26)   =         1.121341	      64.248105
	 D(19,18,21,22)   =        -3.042515	    -174.323287
	 D(19,18,21,23)   =        -1.021548	     -58.530414
	 D(19,18,21,24)   =         1.092723	      62.608399
	 D(20,18,21,22)   =        -1.024993	     -58.727787
	 D(20,18,21,23)   =         0.995974	      57.065086
	 D(20,18,21,24)   =         3.110245	     178.203898
	 D(22,21,24,25)   =        -3.049506	    -174.723809
	 D(22,21,24,26)   =        -1.022582	     -58.589659
	 D(23,21,24,25)   =         1.210971	      69.383545
	 D(23,21,24,26)   =        -3.045291	    -174.482304
	 R(1,21)          =         6.819485	       3.608716
	 R(9,24)          =         6.832323	       3.615510

	Current energy   :      -314.9837629834

	Generating empirical Hessian (Schlegel '84) for each fragment.
	Taking RFO optimization step.
	Going to follow RFO solution 1.
	Using RFO vector 1.
	Norm of target step-size    0.00018
	Projected energy change by RFO approximation:         0.0000000004

	Back-transformation to cartesian coordinates...
	Successfully converged to displaced geometry.

	--- Internal Coordinate Step in ANG or DEG, aJ/ANG or AJ/DEG ---
	 ---------------------------------------------------------------------------
	   Coordinate                Previous        Force       Change         New 
	   ----------                --------       ------       ------       ------
	    1 R(1,2)          =      1.089895     0.000003     0.000001     1.089895
	    2 R(1,3)          =      1.091429     0.000004     0.000001     1.091430
	    3 R(1,4)          =      1.089755     0.000002     0.000000     1.089756
	    4 R(1,9)          =      1.524722    -0.000003    -0.000001     1.524721
	    5 R(5,6)          =      1.089337    -0.000001    -0.000000     1.089337
	    6 R(5,7)          =      1.091580    -0.000002    -0.000000     1.091580
	    7 R(5,8)          =      1.089766    -0.000002    -0.000000     1.089766
	    8 R(5,12)         =      1.525204     0.000001     0.000000     1.525204
	    9 R(9,10)         =      1.092985     0.000007     0.000001     1.092987
	   10 R(9,11)         =      1.092293     0.000003     0.000000     1.092294
	   11 R(9,15)         =      1.527900    -0.000002    -0.000000     1.527899
	   12 R(12,13)        =      1.092274    -0.000001    -0.000000     1.092274
	   13 R(12,14)        =      1.093535     0.000001     0.000000     1.093536
	   14 R(12,24)        =      1.527045    -0.000002    -0.000000     1.527044
	   15 R(15,16)        =      1.092441     0.000007     0.000001     1.092442
	   16 R(15,17)        =      1.093975     0.000006     0.000001     1.093976
	   17 R(15,18)        =      1.530197     0.000001     0.000000     1.530197
	   18 R(18,19)        =      1.093813     0.000007     0.000001     1.093814
	   19 R(18,20)        =      1.092573     0.000011     0.000002     1.092575
	   20 R(18,21)        =      1.527806     0.000002     0.000001     1.527807
	   21 R(21,22)        =      1.092409     0.000009     0.000002     1.092410
	   22 R(21,23)        =      1.094488     0.000002     0.000000     1.094489
	   23 R(21,24)        =      1.525192    -0.000011    -0.000002     1.525189
	   24 R(24,25)        =      1.094454     0.000004     0.000001     1.094455
	   25 R(24,26)        =      1.094044     0.000001     0.000000     1.094044
	   26 B(1,9,10)       =    109.565365     0.000000     0.000167   109.565532
	   27 B(1,9,11)       =    109.309321     0.000000    -0.000139   109.309182
	   28 B(1,9,15)       =    113.101173    -0.000000    -0.000070   113.101103
	   29 B(2,1,3)        =    107.708155    -0.000000     0.000013   107.708168
	   30 B(2,1,4)        =    107.639401     0.000000     0.000014   107.639415
	   31 B(2,1,9)        =    111.525319     0.000000     0.000010   111.525329
	   32 B(3,1,4)        =    107.902112     0.000000     0.000006   107.902118
	   33 B(3,1,9)        =    110.687434     0.000000     0.000055   110.687489
	   34 B(4,1,9)        =    111.213559    -0.000000    -0.000095   111.213464
	   35 B(5,12,13)      =    109.148704     0.000000     0.000028   109.148732
	   36 B(5,12,14)      =    109.650789     0.000000     0.000007   109.650796
	   37 B(5,12,24)      =    113.064889    -0.000000    -0.000060   113.064829
	   38 B(6,5,7)        =    107.830257    -0.000000    -0.000008   107.830249
	   39 B(6,5,8)        =    107.599562    -0.000000    -0.000015   107.599547
	   40 B(6,5,12)       =    111.597094     0.000000     0.000041   111.597134
	   41 B(7,5,8)        =    107.851657    -0.000000    -0.000014   107.851643
	   42 B(7,5,12)       =    110.568918    -0.000000    -0.000023   110.568894
	   43 B(8,5,12)       =    111.230087     0.000000     0.000018   111.230105
	   44 B(9,15,16)      =    109.168366    -0.000000     0.000049   109.168416
	   45 B(9,15,17)      =    108.804719     0.000000    -0.000055   108.804664
	   46 B(9,15,18)      =    114.167659    -0.000000     0.000038   114.167697
	   47 B(10,9,11)      =    106.150924    -0.000000     0.000038   106.150961
	   48 B(10,9,15)      =    109.805290     0.000000     0.000211   109.805502
	   49 B(11,9,15)      =    108.667070    -0.000000    -0.000206   108.666864
	   50 B(12,24,21)     =    113.443549    -0.000000    -0.000183   113.443366
	   51 B(12,24,25)     =    109.397435     0.000000     0.000092   109.397527
	   52 B(12,24,26)     =    108.750554    -0.000000    -0.000145   108.750409
	   53 B(13,12,14)     =    106.527002    -0.000000    -0.000005   106.526997
	   54 B(13,12,24)     =    109.058407     0.000000    -0.000020   109.058388
	   55 B(14,12,24)     =    109.179407     0.000000     0.000053   109.179460
	   56 B(15,18,19)     =    108.688494    -0.000000    -0.000188   108.688306
	   57 B(15,18,20)     =    109.507355    -0.000000     0.000044   109.507399
	   58 B(15,18,21)     =    114.012245     0.000000     0.000129   114.012374
	   59 B(16,15,17)     =    106.237642    -0.000000    -0.000021   106.237621
	   60 B(16,15,18)     =    109.492937     0.000000     0.000113   109.493050
	   61 B(17,15,18)     =    108.666885    -0.000000    -0.000131   108.666754
	   62 B(18,21,22)     =    109.494384     0.000000     0.000178   109.494562
	   63 B(18,21,23)     =    108.949878    -0.000000    -0.000047   108.949832
	   64 B(18,21,24)     =    113.282071    -0.000000    -0.000110   113.281960
	   65 B(19,18,20)     =    106.218033     0.000000     0.000054   106.218087
	   66 B(19,18,21)     =    108.943773     0.000000     0.000008   108.943781
	   67 B(20,18,21)     =    109.177988    -0.000000    -0.000052   109.177936
	   68 B(21,24,25)     =    108.655992     0.000000     0.000077   108.656069
	   69 B(21,24,26)     =    109.878925     0.000000     0.000095   109.879020
	   70 B(22,21,23)     =    106.234814    -0.000000     0.000059   106.234873
	   71 B(22,21,24)     =    109.911719    -0.000000    -0.000061   109.911658
	   72 B(23,21,24)     =    108.717633     0.000000    -0.000010   108.717624
	   73 B(25,24,26)     =    106.480622    -0.000000     0.000082   106.480704
	   74 D(1,9,15,16)    =    178.477200    -0.000000     0.001592   178.478792
	   75 D(1,9,15,17)    =     62.939936    -0.000000     0.001620    62.941556
	   76 D(1,9,15,18)    =    -58.620649     0.000000     0.001804   -58.618845
	   77 D(2,1,9,10)     =    -58.516074     0.000000     0.001713   -58.514362
	   78 D(2,1,9,11)     =   -174.450096    -0.000000     0.001652  -174.448444
	   79 D(2,1,9,15)     =     64.340361     0.000000     0.002060    64.342421
	   80 D(3,1,9,10)     =   -178.413546    -0.000000     0.001653  -178.411892
	   81 D(3,1,9,11)     =     65.652432    -0.000000     0.001593    65.654025
	   82 D(3,1,9,15)     =    -55.557111     0.000000     0.002001   -55.555110
	   83 D(4,1,9,10)     =     61.650446     0.000000     0.001672    61.652118
	   84 D(4,1,9,11)     =    -54.283576    -0.000000     0.001611   -54.281965
	   85 D(4,1,9,15)     =   -175.493119     0.000000     0.002020  -175.491099
	   86 D(5,12,24,21)   =    -64.060266    -0.000000    -0.000864   -64.061130
	   87 D(5,12,24,25)   =    174.450620     0.000000    -0.000905   174.449716
	   88 D(5,12,24,26)   =     58.528593    -0.000000    -0.000972    58.527621
	   89 D(6,5,12,13)    =   -174.143525    -0.000000    -0.000681  -174.144207
	   90 D(6,5,12,14)    =    -57.800643    -0.000000    -0.000668   -57.801311
	   91 D(6,5,12,24)    =     64.286135     0.000000    -0.000636    64.285499
	   92 D(7,5,12,13)    =     65.837046    -0.000000    -0.000682    65.836365
	   93 D(7,5,12,14)    =   -177.820071    -0.000000    -0.000668  -177.820740
	   94 D(7,5,12,24)    =    -55.733294     0.000000    -0.000636   -55.733930
	   95 D(8,5,12,13)    =    -53.967655    -0.000000    -0.000660   -53.968315
	   96 D(8,5,12,14)    =     62.375228    -0.000000    -0.000647    62.374581
	   97 D(8,5,12,24)    =   -175.537994     0.000000    -0.000615  -175.538609
	   98 D(9,15,18,19)   =   -176.114136    -0.000000    -0.001275  -176.115411
	   99 D(9,15,18,20)   =     68.251553    -0.000000    -0.001259    68.250294
	  100 D(9,15,18,21)   =    -54.387532    -0.000000    -0.001316   -54.388848
	  101 D(10,9,15,16)   =    -58.799609     0.000000     0.001915   -58.797694
	  102 D(10,9,15,17)   =   -174.336873     0.000000     0.001943  -174.334930
	  103 D(10,9,15,18)   =     64.102542     0.000000     0.002127    64.104669
	  104 D(11,9,15,16)   =     56.905470     0.000000     0.001961    56.907431
	  105 D(11,9,15,17)   =    -58.631794     0.000000     0.001989   -58.629805
	  106 D(11,9,15,18)   =    179.807621     0.000000     0.002172   179.809794
	  107 D(12,24,21,18)  =   -173.789217    -0.000000    -0.001215  -173.790432
	  108 D(12,24,21,22)  =     63.373020    -0.000000    -0.001323    63.371697
	  109 D(12,24,21,23)  =    -52.519626    -0.000000    -0.001354   -52.520980
	  110 D(13,12,24,21)  =    174.318550    -0.000000    -0.000845   174.317705
	  111 D(13,12,24,25)  =     52.829436     0.000000    -0.000886    52.828550
	  112 D(13,12,24,26)  =    -63.092591    -0.000000    -0.000953   -63.093544
	  113 D(14,12,24,21)  =     58.290148    -0.000000    -0.000857    58.289290
	  114 D(14,12,24,25)  =    -63.198966    -0.000000    -0.000898   -63.199864
	  115 D(14,12,24,26)  =   -179.120993    -0.000000    -0.000965  -179.121958
	  116 D(15,18,21,22)  =     64.091191    -0.000000     0.000420    64.091611
	  117 D(15,18,21,23)  =    179.884065     0.000000     0.000562   179.884626
	  118 D(15,18,21,24)  =    -58.977123     0.000000     0.000444   -58.976679
	  119 D(16,15,18,19)  =    -53.388564    -0.000000    -0.001098   -53.389662
	  120 D(16,15,18,20)  =   -169.022875     0.000000    -0.001082  -169.023956
	  121 D(16,15,18,21)  =     68.338040     0.000000    -0.001139    68.336901
	  122 D(17,15,18,19)  =     62.249284    -0.000000    -0.001134    62.248150
	  123 D(17,15,18,20)  =    -53.385027     0.000000    -0.001118   -53.386144
	  124 D(17,15,18,21)  =   -176.024112     0.000000    -0.001175  -176.025287
	  125 D(18,21,24,25)  =    -51.886046    -0.000000    -0.001165   -51.887210
	  126 D(18,21,24,26)  =     64.248105     0.000000    -0.000971    64.247134
	  127 D(19,18,21,22)  =   -174.323287    -0.000000     0.000271  -174.323016
	  128 D(19,18,21,23)  =    -58.530414     0.000000     0.000413   -58.530000
	  129 D(19,18,21,24)  =     62.608399    -0.000000     0.000295    62.608694
	  130 D(20,18,21,22)  =    -58.727787    -0.000000     0.000311   -58.727477
	  131 D(20,18,21,23)  =     57.065086     0.000000     0.000453    57.065539
	  132 D(20,18,21,24)  =    178.203898    -0.000000     0.000335   178.204233
	  133 D(22,21,24,25)  =   -174.723809    -0.000000    -0.001272  -174.725081
	  134 D(22,21,24,26)  =    -58.589659     0.000000    -0.001078   -58.590737
	  135 D(23,21,24,25)  =     69.383545    -0.000000    -0.001303    69.382242
	  136 D(23,21,24,26)  =   -174.482304     0.000000    -0.001109  -174.483414
	  137 R(1,21)         =      3.608716    -0.000000    -0.000007     3.608709
	  138 R(9,24)         =      3.615510     0.000002     0.000016     3.615526
	 ---------------------------------------------------------------------------

  ==> Convergence Check <==

  Measures of convergence in internal coordinates in au.
  Criteria marked as inactive (o), active & met (*), and active & unmet ( ).
  --------------------------------------------------------------------------------------------- ~
   Step     Total Energy     Delta E     MAX Force     RMS Force      MAX Disp      RMS Disp    ~
  --------------------------------------------------------------------------------------------- ~
    Convergence Criteria             o    2.00e-06 *    1.00e-06 *    6.00e-06 *    4.00e-06 *  ~
  --------------------------------------------------------------------------------------------- ~
      1    -314.98376298   -3.15e+02 o    1.33e-06 *    2.81e-07 *    3.79e-05      1.52e-05    ~
  ---------------------------------------------------------------------------------------------

	Writing optimization data to binary file.
	Structure for next step:
	Cartesian Geometry (in Angstrom)
	    C    -2.6871178600  -1.2920778960  -0.4624558432
	    H    -2.1326229034  -1.1546112610  -1.3906315954
	    H    -3.6458282705  -0.7816095565  -0.5697687918
	    H    -2.8856669394  -2.3577963797  -0.3511469895
	    C     2.7702904625  -1.3118992947  -0.0758357971
	    H     2.2118562532  -1.6085266170  -0.9628640596
	    H     2.3235677286  -1.8145980184   0.7839778173
	    H     3.7886253661  -1.6833691883  -0.1880574348
	    C    -1.9173401989  -0.7462519020   0.7351632809
	    H    -0.9499111450  -1.2495326327   0.8087125250
	    H    -2.4571287355  -0.9898670212   1.6529789445
	    C     2.7524911391   0.2007071514   0.1189798695
	    H     3.4064765972   0.4621489491   0.9538534491
	    H     3.1674022350   0.6904223082  -0.7663719936
	    C    -1.7107837160   0.7664708873   0.6761727656
	    H    -1.1791740730   1.0911757410   1.5736064252
	    H    -2.6880798227   1.2572202608   0.7051600902
	    C    -0.9576090775   1.2479580730  -0.5657615107
	    H    -0.7993605055   2.3271139949  -0.4832404650
	    H    -1.5800315272   1.0976313708  -1.4510363312
	    C     0.3916680615   0.5636649977  -0.7788045801
	    H     0.2350824453  -0.5016322218  -0.9631498664
	    H     0.8551535178   0.9661244253  -1.6849573587
	    C     1.3545252244   0.7527385713   0.3888252547
	    H     1.4232684487   1.8210499319   0.6164588093
	    H     0.9525520703   0.2698016853   1.2844383120
			--------------------------
			 OPTKING Finished Execution 
			--------------------------

    Structure for next step:
    Molecular point group: c1
    Full point group: C1

    Geometry (in Angstrom), charge = 0, multiplicity = 1:

    C           -2.687118127443    -1.292077718358    -0.462455685944
    H           -2.132623170814    -1.154611083340    -1.390631438125
    H           -3.645828537937    -0.781609378834    -0.569768634479
    H           -2.885667206825    -2.357796201998    -0.351146832205
    C            2.770290195032    -1.311899117035    -0.075835639810
    H            2.211855985791    -1.608526439368    -0.962863902282
    H            2.323567461160    -1.814597840760     0.783977974568
    H            3.788625098616    -1.683369010624    -0.188057277509
    C           -1.917340466317    -0.746251724305     0.735163438204
    H           -0.949911412483    -1.249532455005     0.808712682269
    H           -2.457129002916    -0.989866843533     1.652979101755
    C            2.752490871622     0.200707329015     0.118980026817
    H            3.406476329729     0.462149126737     0.953853606354
    H            3.167401967507     0.690422485832    -0.766371836302
    C           -1.710783983421     0.766471064924     0.676172922858
    H           -1.179174340404     1.091175918703     1.573606582470
    H           -2.688080090182     1.257220438505     0.705160247448
    C           -0.957609344980     1.247958250653    -0.565761353431
    H           -0.799360772946     2.327114172578    -0.483240307714
    H           -1.580031794613     1.097631548464    -1.451036173873
    C            0.391667794009     0.563665175313    -0.778804422764
    H            0.235082177899    -0.501632044157    -0.963149709090
    H            0.855153250338     0.966124602953    -1.684957201433
    C            1.354524956992     0.752738748953     0.388825412011
    H            1.423268181200     1.821050109520     0.616458966602
    H            0.952551802838     0.269801862967     1.284438469322

gradient() will perform analytic gradient computation.

*** tstart() called on wr39
*** at Wed Sep 21 10:45:56 2016


         ---------------------------------------------------------
                                   SCF
            by Justin Turney, Rob Parrish, and Andy Simmonett
                              RHF Reference
                       12 Threads,  60000 MiB Core
         ---------------------------------------------------------

  ==> Geometry <==

    Molecular point group: c1
    Full point group: C1

    Geometry (in Angstrom), charge = 0, multiplicity = 1:

       Center              X                  Y                   Z               Mass       
    ------------   -----------------  -----------------  -----------------  -----------------
           C         -2.687118127443    -1.292077718358    -0.462455685944    12.000000000000
           H         -2.132623170814    -1.154611083340    -1.390631438125     1.007825032070
           H         -3.645828537937    -0.781609378834    -0.569768634479     1.007825032070
           H         -2.885667206825    -2.357796201998    -0.351146832205     1.007825032070
           C          2.770290195032    -1.311899117035    -0.075835639810    12.000000000000
           H          2.211855985791    -1.608526439368    -0.962863902282     1.007825032070
           H          2.323567461160    -1.814597840760     0.783977974568     1.007825032070
           H          3.788625098616    -1.683369010624    -0.188057277509     1.007825032070
           C         -1.917340466317    -0.746251724305     0.735163438204    12.000000000000
           H         -0.949911412483    -1.249532455005     0.808712682269     1.007825032070
           H         -2.457129002916    -0.989866843533     1.652979101755     1.007825032070
           C          2.752490871622     0.200707329015     0.118980026817    12.000000000000
           H          3.406476329729     0.462149126737     0.953853606354     1.007825032070
           H          3.167401967507     0.690422485832    -0.766371836302     1.007825032070
           C         -1.710783983421     0.766471064924     0.676172922858    12.000000000000
           H         -1.179174340404     1.091175918703     1.573606582470     1.007825032070
           H         -2.688080090182     1.257220438505     0.705160247448     1.007825032070
           C         -0.957609344980     1.247958250653    -0.565761353431    12.000000000000
           H         -0.799360772946     2.327114172578    -0.483240307714     1.007825032070
           H         -1.580031794613     1.097631548464    -1.451036173873     1.007825032070
           C          0.391667794009     0.563665175313    -0.778804422764    12.000000000000
           H          0.235082177899    -0.501632044157    -0.963149709090     1.007825032070
           H          0.855153250338     0.966124602953    -1.684957201433     1.007825032070
           C          1.354524956992     0.752738748953     0.388825412011    12.000000000000
           H          1.423268181200     1.821050109520     0.616458966602     1.007825032070
           H          0.952551802838     0.269801862967     1.284438469322     1.007825032070

  Running in c1 symmetry.

  Rotational constants: A =      0.10186  B =      0.03197  C =      0.02822 [cm^-1]
  Rotational constants: A =   3053.77484  B =    958.41638  C =    846.09695 [MHz]
  Nuclear repulsion =  403.154634579763012

  Charge       = 0
  Multiplicity = 1
  Electrons    = 66
  Nalpha       = 33
  Nbeta        = 33

  ==> Algorithm <==

  SCF Algorithm Type is DF.
  DIIS enabled.
  MOM disabled.
  Fractional occupation disabled.
  Guess Type is READ.
  Energy threshold   = 1.00e-10
  Density threshold  = 1.00e-10
  Integral threshold = 0.00e+00

  ==> Primary Basis <==

  Basis Set: AUG-CC-PVTZ
    Number of shells: 274
    Number of basis function: 782
    Number of Cartesian functions: 890
    Spherical Harmonics?: true
    Max angular momentum: 3

  ==> Pre-Iterations <==

   -------------------------------------------------------
    Irrep   Nso     Nmo     Nalpha   Nbeta   Ndocc  Nsocc
   -------------------------------------------------------
     A        782     782       0       0       0       0
   -------------------------------------------------------
    Total     782     782      33      33      33       0
   -------------------------------------------------------

  ==> Integral Setup <==

  ==> DFJK: Density-Fitted J/K Matrices <==

    J tasked:                  Yes
    K tasked:                  Yes
    wK tasked:                  No
    OpenMP threads:             12
    Integrals threads:          12
    Memory (MB):             42915
    Algorithm:                Core
    Integral Cache:           NONE
    Schwarz Cutoff:          1E-12
    Fitting Condition:       1E-12

   => Auxiliary Basis Set <=

  Basis Set: 
    Number of shells: 492
    Number of basis function: 1660
    Number of Cartesian functions: 2038
    Spherical Harmonics?: true
    Max angular momentum: 4

  Minimum eigenvalue in the overlap matrix is 1.6379545697E-06.
  Using Symmetric Orthogonalization.
  SCF Guess: Reading in previously saved MOs, projecting if necessary.

  Using orbitals from previous SCF, no projection.
  Recomputing DOCC and SOCC from number of alpha and beta electrons from previous calculation.
              A 
    DOCC [    33 ]

  ==> Iterations <==

                           Total Energy        Delta E     RMS |[F,P]|

   @DF-RHF iter   0:  -313.53965461713113   -3.13540e+02   8.41546e-08 
   @DF-RHF iter   1:  -313.53967333025031   -1.87131e-05   1.94585e-08 
   @DF-RHF iter   2:  -313.53967333047143   -2.21121e-10   7.98047e-09 DIIS
   @DF-RHF iter   3:  -313.53967333050463   -3.31966e-11   3.52483e-09 DIIS
   @DF-RHF iter   4:  -313.53967333051145   -6.82121e-12   4.19731e-10 DIIS
   @DF-RHF iter   5:  -313.53967333051213   -6.82121e-13   1.36405e-10 DIIS
   @DF-RHF iter   6:  -313.53967333051202    1.13687e-13   3.01704e-11 DIIS

  ==> Post-Iterations <==

    Orbital Energies (a.u.)
    -----------------------

    Doubly Occupied:                                                      

       1A    -11.212952     2A    -11.212262     3A    -11.210164  
       4A    -11.210028     5A    -11.209501     6A    -11.208930  
       7A    -11.207001     8A    -11.206860     9A     -1.096366  
      10A     -1.059184    11A     -1.005462    12A     -0.943496  
      13A     -0.893260    14A     -0.836693    15A     -0.784953  
      16A     -0.744446    17A     -0.650940    18A     -0.629608  
      19A     -0.610151    20A     -0.603648    21A     -0.575038  
      22A     -0.554242    23A     -0.547368    24A     -0.533031  
      25A     -0.510096    26A     -0.503668    27A     -0.494373  
      28A     -0.469909    29A     -0.469846    30A     -0.461786  
      31A     -0.441968    32A     -0.437702    33A     -0.435008  

    Virtual:                                                              

      34A      0.029113    35A      0.033110    36A      0.033957  
      37A      0.034179    38A      0.046715    39A      0.048042  
      40A      0.050387    41A      0.053535    42A      0.054758  
      43A      0.068262    44A      0.068694    45A      0.071256  
      46A      0.073886    47A      0.077259    48A      0.082225  
      49A      0.095543    50A      0.097975    51A      0.103458  
      52A      0.115359    53A      0.117408    54A      0.117668  
      55A      0.121594    56A      0.130460    57A      0.132991  
      58A      0.134737    59A      0.139494    60A      0.140633  
      61A      0.141796    62A      0.144255    63A      0.150336  
      64A      0.153161    65A      0.154894    66A      0.164191  
      67A      0.164976    68A      0.167076    69A      0.169592  
      70A      0.174071    71A      0.179231    72A      0.182377  
      73A      0.187773    74A      0.189229    75A      0.192987  
      76A      0.194584    77A      0.212809    78A      0.216693  
      79A      0.220224    80A      0.232081    81A      0.239309  
      82A      0.245023    83A      0.254183    84A      0.256279  
      85A      0.273979    86A      0.279334    87A      0.280649  
      88A      0.287042    89A      0.293188    90A      0.298309  
      91A      0.300497    92A      0.307222    93A      0.311213  
      94A      0.314251    95A      0.316949    96A      0.323165  
      97A      0.324933    98A      0.327296    99A      0.327717  
     100A      0.333747   101A      0.339934   102A      0.343593  
     103A      0.347531   104A      0.351432   105A      0.353333  
     106A      0.358350   107A      0.361449   108A      0.366488  
     109A      0.370703   110A      0.371188   111A      0.371578  
     112A      0.380154   113A      0.384385   114A      0.385585  
     115A      0.392096   116A      0.394444   117A      0.396496  
     118A      0.402549   119A      0.412077   120A      0.416158  
     121A      0.420367   122A      0.424761   123A      0.428651  
     124A      0.436622   125A      0.439743   126A      0.441076  
     127A      0.444383   128A      0.450801   129A      0.454403  
     130A      0.457033   131A      0.461491   132A      0.462330  
     133A      0.466753   134A      0.468251   135A      0.471686  
     136A      0.477459   137A      0.481024   138A      0.482618  
     139A      0.488503   140A      0.492609   141A      0.497914  
     142A      0.499974   143A      0.501462   144A      0.504433  
     145A      0.510291   146A      0.512226   147A      0.520476  
     148A      0.522547   149A      0.525135   150A      0.529695  
     151A      0.534645   152A      0.540022   153A      0.546048  
     154A      0.549719   155A      0.550519   156A      0.553757  
     157A      0.561470   158A      0.566513   159A      0.567583  
     160A      0.575571   161A      0.579871   162A      0.587917  
     163A      0.590021   164A      0.592013   165A      0.595231  
     166A      0.606107   167A      0.609845   168A      0.611426  
     169A      0.615037   170A      0.623565   171A      0.626643  
     172A      0.630284   173A      0.637893   174A      0.639793  
     175A      0.643351   176A      0.649935   177A      0.652418  
     178A      0.656280   179A      0.668797   180A      0.672962  
     181A      0.678048   182A      0.679181   183A      0.687559  
     184A      0.694575   185A      0.697195   186A      0.699832  
     187A      0.707187   188A      0.710561   189A      0.713089  
     190A      0.721309   191A      0.733141   192A      0.740236  
     193A      0.743378   194A      0.751986   195A      0.753092  
     196A      0.762384   197A      0.766172   198A      0.770030  
     199A      0.783843   200A      0.784775   201A      0.794683  
     202A      0.802077   203A      0.811752   204A      0.827363  
     205A      0.828740   206A      0.834352   207A      0.846939  
     208A      0.853583   209A      0.861769   210A      0.864024  
     211A      0.868996   212A      0.873979   213A      0.882575  
     214A      0.884853   215A      0.893097   216A      0.897151  
     217A      0.901259   218A      0.913064   219A      0.913588  
     220A      0.917705   221A      0.924791   222A      0.927923  
     223A      0.931416   224A      0.932307   225A      0.942091  
     226A      0.943688   227A      0.950881   228A      0.953579  
     229A      0.960065   230A      0.967027   231A      0.975662  
     232A      0.977635   233A      0.983421   234A      0.985416  
     235A      0.991928   236A      1.003640   237A      1.005054  
     238A      1.007540   239A      1.017888   240A      1.021131  
     241A      1.026431   242A      1.029637   243A      1.035892  
     244A      1.037969   245A      1.042145   246A      1.043769  
     247A      1.051145   248A      1.061553   249A      1.062980  
     250A      1.065204   251A      1.076009   252A      1.080276  
     253A      1.082135   254A      1.087654   255A      1.096664  
     256A      1.098991   257A      1.102380   258A      1.107588  
     259A      1.112596   260A      1.119114   261A      1.128209  
     262A      1.134892   263A      1.137514   264A      1.143654  
     265A      1.150882   266A      1.156390   267A      1.163993  
     268A      1.168791   269A      1.176354   270A      1.179065  
     271A      1.183132   272A      1.186929   273A      1.191329  
     274A      1.200672   275A      1.202364   276A      1.209987  
     277A      1.217417   278A      1.222158   279A      1.223246  
     280A      1.228097   281A      1.234598   282A      1.243197  
     283A      1.247379   284A      1.253350   285A      1.256902  
     286A      1.267712   287A      1.269396   288A      1.271626  
[...]
	   10 R(9,11)         =      1.092293    -0.000001     0.000000     1.092294
	   11 R(9,15)         =      1.527900    -0.000002     0.000000     1.527900
	   12 R(12,13)        =      1.092274    -0.000002    -0.000000     1.092274
	   13 R(12,14)        =      1.093535    -0.000001     0.000000     1.093535
	   14 R(12,24)        =      1.527045    -0.000002    -0.000000     1.527045
	   15 R(15,16)        =      1.092442    -0.000004     0.000000     1.092442
	   16 R(15,17)        =      1.093975    -0.000001     0.000000     1.093976
	   17 R(15,18)        =      1.530197    -0.000003     0.000000     1.530197
	   18 R(18,19)        =      1.093814     0.000002     0.000000     1.093814
	   19 R(18,20)        =      1.092574     0.000003     0.000000     1.092574
	   20 R(18,21)        =      1.527807     0.000002    -0.000000     1.527807
	   21 R(21,22)        =      1.092409     0.000003    -0.000000     1.092409
	   22 R(21,23)        =      1.094488     0.000002     0.000000     1.094488
	   23 R(21,24)        =      1.525191    -0.000011    -0.000000     1.525190
	   24 R(24,25)        =      1.094455    -0.000003    -0.000000     1.094455
	   25 R(24,26)        =      1.094044    -0.000004    -0.000000     1.094044
	   26 B(1,9,10)       =    109.565427     0.000000     0.000036   109.565464
	   27 B(1,9,11)       =    109.309307    -0.000000    -0.000051   109.309256
	   28 B(1,9,15)       =    113.101097    -0.000000     0.000045   113.101142
	   29 B(2,1,3)        =    107.708166    -0.000000    -0.000005   107.708161
	   30 B(2,1,4)        =    107.639406    -0.000000    -0.000006   107.639400
	   31 B(2,1,9)        =    111.525326     0.000000     0.000031   111.525357
	   32 B(3,1,4)        =    107.902111     0.000000    -0.000012   107.902098
	   33 B(3,1,9)        =    110.687458    -0.000000     0.000009   110.687467
	   34 B(4,1,9)        =    111.213515     0.000000    -0.000018   111.213497
	   35 B(5,12,13)      =    109.148701     0.000000     0.000007   109.148708
	   36 B(5,12,14)      =    109.650808    -0.000000    -0.000012   109.650796
	   37 B(5,12,24)      =    113.064810    -0.000000     0.000007   113.064817
	   38 B(6,5,7)        =    107.830262    -0.000000    -0.000003   107.830260
	   39 B(6,5,8)        =    107.599545    -0.000000    -0.000002   107.599543
	   40 B(6,5,12)       =    111.597114     0.000000    -0.000002   111.597112
	   41 B(7,5,8)        =    107.851645    -0.000000     0.000005   107.851649
	   42 B(7,5,12)       =    110.568870     0.000000     0.000003   110.568873
	   43 B(8,5,12)       =    111.230138     0.000000    -0.000001   111.230136
	   44 B(9,15,16)      =    109.168431     0.000000    -0.000002   109.168428
	   45 B(9,15,17)      =    108.804668     0.000000    -0.000044   108.804624
	   46 B(9,15,18)      =    114.167715    -0.000000     0.000068   114.167782
	   47 B(10,9,11)      =    106.150954    -0.000000     0.000003   106.150958
	   48 B(10,9,15)      =    109.805412    -0.000000    -0.000021   109.805391
	   49 B(11,9,15)      =    108.666949     0.000000    -0.000016   108.666933
	   50 B(12,24,21)     =    113.443442    -0.000000    -0.000017   113.443424
	   51 B(12,24,25)     =    109.397479     0.000000    -0.000022   109.397457
	   52 B(12,24,26)     =    108.750407     0.000000     0.000036   108.750443
	   53 B(13,12,14)     =    106.526996    -0.000000    -0.000004   106.526993
	   54 B(13,12,24)     =    109.058438    -0.000000     0.000024   109.058462
	   55 B(14,12,24)     =    109.179450     0.000000    -0.000022   109.179427
	   56 B(15,18,19)     =    108.688391    -0.000000    -0.000004   108.688387
	   57 B(15,18,20)     =    109.507407    -0.000000    -0.000042   109.507365
	   58 B(15,18,21)     =    114.012279     0.000000     0.000091   114.012370
	   59 B(16,15,17)     =    106.237629    -0.000000    -0.000008   106.237621
	   60 B(16,15,18)     =    109.492930     0.000000    -0.000014   109.492916
	   61 B(17,15,18)     =    108.666831     0.000000    -0.000004   108.666827
	   62 B(18,21,22)     =    109.494505     0.000000     0.000025   109.494530
	   63 B(18,21,23)     =    108.949817    -0.000000     0.000004   108.949821
	   64 B(18,21,24)     =    113.281984     0.000000    -0.000010   113.281974
	   65 B(19,18,20)     =    106.218066     0.000000    -0.000013   106.218053
	   66 B(19,18,21)     =    108.943764    -0.000000    -0.000042   108.943722
	   67 B(20,18,21)     =    109.177979    -0.000000     0.000002   109.177981
	   68 B(21,24,25)     =    108.655996     0.000000    -0.000035   108.655961
	   69 B(21,24,26)     =    109.879066     0.000000     0.000050   109.879116
	   70 B(22,21,23)     =    106.234815     0.000000    -0.000009   106.234805
	   71 B(22,21,24)     =    109.911798    -0.000000    -0.000066   109.911732
	   72 B(23,21,24)     =    108.717583     0.000000     0.000057   108.717641
	   73 B(25,24,26)     =    106.480699    -0.000000    -0.000011   106.480688
	   74 D(1,9,15,16)    =    178.477614    -0.000000     0.000032   178.477645
	   75 D(1,9,15,17)    =     62.940358    -0.000000     0.000066    62.940425
	   76 D(1,9,15,18)    =    -58.620156    -0.000000     0.000059   -58.620097
	   77 D(2,1,9,10)     =    -58.515249     0.000000    -0.000086   -58.515335
	   78 D(2,1,9,11)     =   -174.449335     0.000000    -0.000082  -174.449417
	   79 D(2,1,9,15)     =     64.341337     0.000000    -0.000055    64.341282
	   80 D(3,1,9,10)     =   -178.412754     0.000000    -0.000107  -178.412860
	   81 D(3,1,9,11)     =     65.653160     0.000000    -0.000102    65.653058
	   82 D(3,1,9,15)     =    -55.556168     0.000000    -0.000075   -55.556243
	   83 D(4,1,9,10)     =     61.651253     0.000000    -0.000086    61.651167
	   84 D(4,1,9,11)     =    -54.282833     0.000000    -0.000081   -54.282915
	   85 D(4,1,9,15)     =   -175.492162     0.000000    -0.000054  -175.492216
	   86 D(5,12,24,21)   =    -64.061012     0.000000     0.000118   -64.060894
	   87 D(5,12,24,25)   =    174.449910     0.000000     0.000192   174.450101
	   88 D(5,12,24,26)   =     58.527848     0.000000     0.000197    58.528045
	   89 D(6,5,12,13)    =   -174.143976    -0.000000     0.000023  -174.143953
	   90 D(6,5,12,14)    =    -57.801092     0.000000     0.000016   -57.801076
	   91 D(6,5,12,24)    =     64.285700    -0.000000    -0.000017    64.285683
	   92 D(7,5,12,13)    =     65.836608    -0.000000     0.000026    65.836634
	   93 D(7,5,12,14)    =   -177.820507     0.000000     0.000018  -177.820489
	   94 D(7,5,12,24)    =    -55.733715     0.000000    -0.000015   -55.733730
	   95 D(8,5,12,13)    =    -53.968079    -0.000000     0.000018   -53.968060
	   96 D(8,5,12,14)    =     62.374806    -0.000000     0.000011    62.374816
	   97 D(8,5,12,24)    =   -175.538402    -0.000000    -0.000022  -175.538424
	   98 D(9,15,18,19)   =   -176.114589    -0.000000     0.000150  -176.114438
	   99 D(9,15,18,20)   =     68.251089     0.000000     0.000190    68.251280
	  100 D(9,15,18,21)   =    -54.388048     0.000000     0.000155   -54.387894
	  101 D(10,9,15,16)   =    -58.799078     0.000000     0.000095   -58.798983
	  102 D(10,9,15,17)   =   -174.336333    -0.000000     0.000130  -174.336203
	  103 D(10,9,15,18)   =     64.103153     0.000000     0.000122    64.103275
	  104 D(11,9,15,16)   =     56.906037     0.000000     0.000078    56.906116
	  105 D(11,9,15,17)   =    -58.631218    -0.000000     0.000113   -58.631105
	  106 D(11,9,15,18)   =    179.808268     0.000000     0.000105   179.808373
	  107 D(12,24,21,18)  =   -173.789100     0.000000    -0.000021  -173.789121
	  108 D(12,24,21,22)  =     63.372982    -0.000000     0.000003    63.372985
	  109 D(12,24,21,23)  =    -52.519680     0.000000     0.000018   -52.519662
	  110 D(13,12,24,21)  =    174.317838    -0.000000     0.000088   174.317926
	  111 D(13,12,24,25)  =     52.828761     0.000000     0.000161    52.828922
	  112 D(13,12,24,26)  =    -63.093301    -0.000000     0.000166   -63.093135
	  113 D(14,12,24,21)  =     58.289403     0.000000     0.000091    58.289494
	  114 D(14,12,24,25)  =    -63.199675     0.000000     0.000164   -63.199510
	  115 D(14,12,24,26)  =   -179.121736     0.000000     0.000170  -179.121567
	  116 D(15,18,21,22)  =     64.091653    -0.000000    -0.000156    64.091497
	  117 D(15,18,21,23)  =    179.884560    -0.000000    -0.000151   179.884409
	  118 D(15,18,21,24)  =    -58.976793     0.000000    -0.000082   -58.976874
	  119 D(16,15,18,19)  =    -53.388899    -0.000000     0.000184   -53.388715
	  120 D(16,15,18,20)  =   -169.023221     0.000000     0.000224  -169.022997
	  121 D(16,15,18,21)  =     68.337641     0.000000     0.000189    68.337830
	  122 D(17,15,18,19)  =     62.248900    -0.000000     0.000165    62.249064
	  123 D(17,15,18,20)  =    -53.385422     0.000000     0.000205   -53.385218
	  124 D(17,15,18,21)  =   -176.024560     0.000000     0.000169  -176.024391
	  125 D(18,21,24,25)  =    -51.885942     0.000000    -0.000086   -51.886028
	  126 D(18,21,24,26)  =     64.248382     0.000000    -0.000092    64.248289
	  127 D(19,18,21,22)  =   -174.322940    -0.000000    -0.000130  -174.323070
	  128 D(19,18,21,23)  =    -58.530033    -0.000000    -0.000125   -58.530158
	  129 D(19,18,21,24)  =     62.608614     0.000000    -0.000056    62.608559
	  130 D(20,18,21,22)  =    -58.727411    -0.000000    -0.000167   -58.727578
	  131 D(20,18,21,23)  =     57.065495    -0.000000    -0.000162    57.065334
	  132 D(20,18,21,24)  =    178.204143     0.000000    -0.000093   178.204051
	  133 D(22,21,24,25)  =   -174.723860    -0.000000    -0.000062  -174.723922
	  134 D(22,21,24,26)  =    -58.589536    -0.000000    -0.000068   -58.589604
	  135 D(23,21,24,25)  =     69.383478     0.000000    -0.000047    69.383431
	  136 D(23,21,24,26)  =   -174.482198     0.000000    -0.000053  -174.482251
	  137 R(1,21)         =      3.608718    -0.000003     0.000000     3.608718
	  138 R(9,24)         =      3.615513     0.000003     0.000002     3.615515
	 ---------------------------------------------------------------------------

  ==> Convergence Check <==

  Measures of convergence in internal coordinates in au.
  Criteria marked as inactive (o), active & met (*), and active & unmet ( ).
  ---------------------------------------------------------------------------------------------
   Step     Total Energy     Delta E     MAX Force     RMS Force      MAX Disp      RMS Disp   
  ---------------------------------------------------------------------------------------------
    Convergence Criteria             o    2.00e-06 *    1.00e-06 *    6.00e-06 *    4.00e-06 *
  ---------------------------------------------------------------------------------------------
     40    -314.98376298    2.09e-09 o    1.36e-06 *    1.94e-07 *    3.91e-06 *    1.44e-06 *  ~
  ---------------------------------------------------------------------------------------------


  **** Optimization is complete! (in 40 steps) ****

  ==> Optimization Summary <==

  Measures of convergence in internal coordinates in au.
  --------------------------------------------------------------------------------------------------------------- ~
   Step         Total Energy             Delta E       MAX Force       RMS Force        MAX Disp        RMS Disp  ~
  --------------------------------------------------------------------------------------------------------------- ~
      1    -314.983762983364   -314.983762983364      0.00000133      0.00000028      0.00003792      0.00001516  ~
      2    -314.983762982964      0.000000000399      0.00000156      0.00000036      0.00005732      0.00001587  ~
      3    -314.983762987207     -0.000000004243      0.00000123      0.00000028      0.00003517      0.00001122  ~
      4    -314.983762986635      0.000000000572      0.00000143      0.00000039      0.00011853      0.00002739  ~
      5    -314.983762986087      0.000000000548      0.00000414      0.00000078      0.00010503      0.00002577  ~
      6    -314.983762986811     -0.000000000724      0.00000112      0.00000028      0.00001832      0.00000627  ~
      7    -314.983762987731     -0.000000000920      0.00000051      0.00000011      0.00000959      0.00000279  ~
      8    -314.983762984710      0.000000003022      0.00000046      0.00000011      0.00002350      0.00000575  ~
      9    -314.983762982309      0.000000002401      0.00000139      0.00000031      0.00001404      0.00000502  ~
     10    -314.983762983303     -0.000000000994      0.00000143      0.00000030      0.00002386      0.00000706  ~
     11    -314.983762981906      0.000000001396      0.00000161      0.00000042      0.00004345      0.00001816  ~
     12    -314.983762987553     -0.000000005647      0.00000119      0.00000025      0.00004134      0.00001423  ~
     13    -314.983762983028      0.000000004526      0.00000144      0.00000032      0.00002902      0.00000946  ~
     14    -314.983762984999     -0.000000001972      0.00000123      0.00000024      0.00003292      0.00001093  ~
     15    -314.983762986957     -0.000000001958      0.00000097      0.00000026      0.00023399      0.00008658  ~
     16    -314.983762984026      0.000000002931      0.00001195      0.00000231      0.00023947      0.00008841  ~
     17    -314.983762982953      0.000000001073      0.00000080      0.00000021      0.00043997      0.00015002  ~
     18    -314.983762981573      0.000000001380      0.00002033      0.00000364      0.00043652      0.00015028  ~
     19    -314.983762984683     -0.000000003110      0.00000147      0.00000034      0.00000839      0.00000250  ~
     20    -314.983762985658     -0.000000000975      0.00000077      0.00000019      0.00005650      0.00001528  ~
     21    -314.983762982137      0.000000003521      0.00000284      0.00000061      0.00005502      0.00001311  ~
     22    -314.983762985312     -0.000000003175      0.00000191      0.00000045      0.00001160      0.00000325  ~
     23    -314.983762987350     -0.000000002037      0.00000068      0.00000016      0.00002273      0.00000779  ~
     24    -314.983762982413      0.000000004936      0.00000296      0.00000063      0.00011317      0.00003884  ~
     25    -314.983762983211     -0.000000000798      0.00000651      0.00000109      0.00014244      0.00004610  ~
     26    -314.983762987559     -0.000000004347      0.00000232      0.00000055      0.00001066      0.00000383  ~
     27    -314.983762983716      0.000000003843      0.00000072      0.00000016      0.00003850      0.00001368  ~
     28    -314.983762987938     -0.000000004222      0.00000135      0.00000028      0.00002443      0.00000857  ~
     29    -314.983762986374      0.000000001564      0.00000183      0.00000036      0.00001129      0.00000303  ~
     30    -314.983762987198     -0.000000000824      0.00000239      0.00000060      0.00003025      0.00000830  ~
     31    -314.983762986656      0.000000000542      0.00000176      0.00000032      0.00002369      0.00000842  ~
     32    -314.983762983099      0.000000003557      0.00000207      0.00000056      0.00002108      0.00000869  ~
     33    -314.983762982732      0.000000000367      0.00000202      0.00000031      0.00001290      0.00000454  ~
     34    -314.983762988828     -0.000000006095      0.00000184      0.00000039      0.00000602      0.00000237  ~
     35    -314.983762990574     -0.000000001746      0.00000192      0.00000042      0.00001527      0.00000450  ~
     36    -314.983762983308      0.000000007266      0.00000150      0.00000036      0.00003494      0.00000955  ~
     37    -314.983762982987      0.000000000321      0.00000059      0.00000013      0.00001319      0.00000239  ~
     38    -314.983762989473     -0.000000006486      0.00000222      0.00000043      0.00001644      0.00000527  ~
     39    -314.983762983509      0.000000005964      0.00000223      0.00000052      0.00001598      0.00000429  ~
     40    -314.983762981420      0.000000002089      0.00000136      0.00000019      0.00000391      0.00000144  ~
  --------------------------------------------------------------------------------------------------------------- ~

	Writing optimization data to binary file.
	Final energy is   -314.9837629814199
	Final (previous) structure:
	Cartesian Geometry (in Angstrom)
	    C    -2.6871334746  -1.2920773241  -0.4624447712
	    H    -2.1326587870  -1.1545971122  -1.3906302198
	    H    -3.6458540570  -0.7816245665  -0.5697369000
	    H    -2.8856628153  -2.3577993688  -0.3511374700
	    C     2.7703078030  -1.3118950640  -0.0758458055
	    H     2.2118835341  -1.6085154821  -0.9628823420
	    H     2.3235819341  -1.8146079164   0.7839577263
	    H     3.7886464039  -1.6833554550  -0.1880635933
	    C    -1.9173422345  -0.7462432763   0.7351620748
	    H    -0.9499103016  -1.2495198277   0.8086982700
	    H    -2.4571151959  -0.9898567219   1.6529868548
	    C     2.7524940610   0.2007087204   0.1189887897
	    H     3.4064735785   0.4621452904   0.9538684440
	    H     3.1674046158   0.6904387602  -0.7663546337
	    C    -1.7107900617   0.7664801254   0.6761610042
	    H    -1.1791887025   1.0911941249   1.5735960636
	    H    -2.6880875998   1.2572264760   0.7051362155
	    C    -0.9576043186   1.2479598174  -0.5657693651
	    H    -0.7993466913   2.3271138533  -0.4832500168
	    H    -1.5800220612   1.0976370426  -1.4510470441
	    C     0.3916682662   0.5636544857  -0.7788015278
	    H     0.2350736218  -0.5016403776  -0.9631462965
	    H     0.8551626452   0.9661071415  -1.6849519995
	    C     1.3545211835   0.7527240429   0.3888344152
	    H     1.4232539773   1.8210336950   0.6164782446
	    H     0.9525498182   0.2697751491   1.2844416278
	Saving final (previous) structure.
			--------------------------
			 OPTKING Finished Execution 
			--------------------------

    Final optimized geometry and variables:
    Molecular point group: c1
    Full point group: C1

    Geometry (in Angstrom), charge = 0, multiplicity = 1:

    C           -2.687133474612    -1.292077324148    -0.462444771157
    H           -2.132658786986    -1.154597112166    -1.390630219782
    H           -3.645854056959    -0.781624566467    -0.569736899997
    H           -2.885662815349    -2.357799368842    -0.351137469987
    C            2.770307803015    -1.311895063951    -0.075845805461
    H            2.211883534055    -1.608515482116    -0.962882341974
    H            2.323581934081    -1.814607916439     0.783957726303
    H            3.788646403914    -1.683355454994    -0.188063593297
    C           -1.917342234504    -0.746243276294     0.735162074843
    H           -0.949910301649    -1.249519827726     0.808698269975
    H           -2.457115195917    -0.989856721884     1.652986854781
    C            2.752494061041     0.200708720433     0.118988789704
    H            3.406473578474     0.462145290448     0.953868444021
    H            3.167404615808     0.690438760208    -0.766354633730
    C           -1.710790061716     0.766480125375     0.676161004172
    H           -1.179188702541     1.091194124874     1.573596063559
    H           -2.688087599766     1.257226475987     0.705136215527
    C           -0.957604318603     1.247959817393    -0.565769365079
    H           -0.799346691346     2.327113853307    -0.483250016763
    H           -1.580022061195     1.097637042558    -1.451047044087
    C            0.391668266211     0.563654485731    -0.778801527807
    H            0.235073621773    -0.501640377563    -0.963146296475
    H            0.855162645178     0.966107141456    -1.684951999544
    C            1.354521183528     0.752724042871     0.388834415204
    H            1.423253977278     1.821033695031     0.616478244575
    H            0.952549818189     0.269775149068     1.284441627798

	Cleaning optimization helper files.

*** Psi4 exiting successfully. Buy a developer a beer!
