    -----------------------------------------------------------------------
          Psi4: An Open-Source Ab Initio Electronic Structure Package
                              Psi4 1.0.0 Driver

                          Git: Rev {master} 6a9a71b dirty

    J. M. Turney, A. C. Simmonett, R. M. Parrish, E. G. Hohenstein,
    F. A. Evangelista, J. T. Fermann, B. J. Mintz, L. A. Burns, J. J. Wilke,
    M. L. Abrams, N. J. Russ, M. L. Leininger, C. L. Janssen, E. T. Seidl,
    W. D. Allen, H. F. Schaefer, R. A. King, E. F. Valeev, C. D. Sherrill,
    and T. D. Crawford, WIREs Comput. Mol. Sci. 2, 556-565 (2012)
    (doi: 10.1002/wcms.93)

                         Additional Contributions by
    A. E. DePrince, U. Bozkaya, A. Yu. Sokolov, D. G. A. Smith, R. Di Remigio,
    R. M. Richard, J. F. Gonthier, H. R. McAlexander, M. Saitow, and
    B. P. Pritchard
    -----------------------------------------------------------------------


    Psi4 started on: Wed Sep 21 14:02:18 2016

    Process ID:  48648
    PSI4DATADIR: /usr/local/hpc5/psi4conda/share/psi4
    Memory level set to 256.000 MB

  ==> Input File <==

--------------------------------------------------------------------------
memory 30 Gb

molecule molecule_72_psi {
0 1
C           -1.229036926425     1.944062562034    -0.003175871945
H           -1.685343447093     2.357485526090     0.897470738311
H           -1.146560858362     2.748995305272    -0.734315127320
H           -0.221793319071     1.624613960865     0.257169258673
C            2.707221648134     0.965439468986     0.364969603663
H            2.266031915028     0.871726122277     1.356935446399
H            2.242048657499     1.819996631320    -0.128813480021
H            3.765149261389     1.192210410061     0.496027575265
C           -2.076907943685     0.792876532799    -0.537962256499
H           -1.675955644334     0.433599320917    -1.489256273465
H           -3.073019424417     1.182182256856    -0.759175546406
C            2.514259661542    -0.303011354914    -0.459976227983
H            3.018704442490    -0.181748530304    -1.421217350382
H            3.000001423742    -1.145236538398     0.041010200141
C           -2.208043986285    -0.383215954116     0.438098307050
H           -3.185089475524    -0.852062833173     0.297808593857
H           -2.202544135346     0.005038218858     1.461987853650
C           -1.155660108177    -1.488098722007     0.318638028847
H           -1.235110709524    -1.948369264402    -0.671706400697
H           -1.422957080531    -2.267719965267     1.036234803847
C            0.302946684633    -1.076267892162     0.557723286683
H            0.336829855782    -0.287978711831     1.313968008436
H            0.847074893175    -1.925475358930     0.981920251534
C            1.047187354653    -0.649654132681    -0.706454358049
H            0.551038839162     0.202248434158    -1.177316706891
H            0.988764272246    -1.473506840673    -1.423679779313
}

set globals {
  reference rhf
  g_convergence gau_verytight
  basis aug-cc-pvtz
  freeze_core true
  scf_type df
  mp_type df
}
optimize('mp2')
--------------------------------------------------------------------------
/usr/local/hpc5/psi4conda/lib/python2.7/site-packages/v2rdm_casscf/v2rdm_casscf.so loaded.

  Memory set to  30.000 GiB by Python script.
gradient() will perform analytic gradient computation.

*** tstart() called on wr38
*** at Wed Sep 21 14:02:19 2016


         ---------------------------------------------------------
                                   SCF
            by Justin Turney, Rob Parrish, and Andy Simmonett
                              RHF Reference
                       12 Threads,  30000 MiB Core
         ---------------------------------------------------------

  ==> Geometry <==

    Molecular point group: c1
    Full point group: C1

    Geometry (in Angstrom), charge = 0, multiplicity = 1:

       Center              X                  Y                   Z               Mass       
    ------------   -----------------  -----------------  -----------------  -----------------
           C         -1.229036926425     1.944062562034    -0.003175871945    12.000000000000
           H         -1.685343447093     2.357485526090     0.897470738311     1.007825032070
           H         -1.146560858362     2.748995305272    -0.734315127320     1.007825032070
           H         -0.221793319071     1.624613960865     0.257169258673     1.007825032070
           C          2.707221648134     0.965439468986     0.364969603663    12.000000000000
           H          2.266031915028     0.871726122277     1.356935446399     1.007825032070
           H          2.242048657499     1.819996631320    -0.128813480021     1.007825032070
           H          3.765149261389     1.192210410061     0.496027575265     1.007825032070
           C         -2.076907943685     0.792876532799    -0.537962256499    12.000000000000
           H         -1.675955644334     0.433599320917    -1.489256273465     1.007825032070
           H         -3.073019424417     1.182182256856    -0.759175546406     1.007825032070
           C          2.514259661542    -0.303011354914    -0.459976227983    12.000000000000
           H          3.018704442490    -0.181748530304    -1.421217350382     1.007825032070
           H          3.000001423742    -1.145236538398     0.041010200141     1.007825032070
           C         -2.208043986285    -0.383215954116     0.438098307050    12.000000000000
           H         -3.185089475524    -0.852062833173     0.297808593857     1.007825032070
           H         -2.202544135346     0.005038218858     1.461987853650     1.007825032070
           C         -1.155660108177    -1.488098722007     0.318638028847    12.000000000000
           H         -1.235110709524    -1.948369264402    -0.671706400697     1.007825032070
           H         -1.422957080531    -2.267719965267     1.036234803847     1.007825032070
           C          0.302946684633    -1.076267892162     0.557723286683    12.000000000000
           H          0.336829855782    -0.287978711831     1.313968008436     1.007825032070
           H          0.847074893175    -1.925475358930     0.981920251534     1.007825032070
           C          1.047187354653    -0.649654132681    -0.706454358049    12.000000000000
           H          0.551038839162     0.202248434158    -1.177316706891     1.007825032070
           H          0.988764272246    -1.473506840673    -1.423679779313     1.007825032070

  Running in c1 symmetry.

  Rotational constants: A =      0.08817  B =      0.03821  C =      0.03029 [cm^-1]
  Rotational constants: A =   2643.35287  B =   1145.45460  C =    907.97038 [MHz]
  Nuclear repulsion =  406.683818962455121

  Charge       = 0
  Multiplicity = 1
  Electrons    = 66
  Nalpha       = 33
  Nbeta        = 33

  ==> Algorithm <==

  SCF Algorithm Type is DF.
  DIIS enabled.
  MOM disabled.
  Fractional occupation disabled.
  Guess Type is SAD.
  Energy threshold   = 1.00e-10
  Density threshold  = 1.00e-10
  Integral threshold = 0.00e+00

  ==> Primary Basis <==

  Basis Set: AUG-CC-PVTZ
    Number of shells: 274
    Number of basis function: 782
    Number of Cartesian functions: 890
    Spherical Harmonics?: true
    Max angular momentum: 3

  ==> Pre-Iterations <==

   -------------------------------------------------------
    Irrep   Nso     Nmo     Nalpha   Nbeta   Ndocc  Nsocc
   -------------------------------------------------------
     A        782     782       0       0       0       0
   -------------------------------------------------------
    Total     782     782      33      33      33       0
   -------------------------------------------------------

  ==> Integral Setup <==

  ==> DFJK: Density-Fitted J/K Matrices <==

    J tasked:                  Yes
    K tasked:                  Yes
    wK tasked:                  No
    OpenMP threads:             12
    Integrals threads:          12
    Memory (MB):             21457
    Algorithm:                Core
    Integral Cache:           NONE
    Schwarz Cutoff:          1E-12
    Fitting Condition:       1E-12

   => Auxiliary Basis Set <=

  Basis Set: 
    Number of shells: 492
    Number of basis function: 1660
    Number of Cartesian functions: 2038
    Spherical Harmonics?: true
    Max angular momentum: 4

  Minimum eigenvalue in the overlap matrix is 1.4028156892E-06.
  Using Symmetric Orthogonalization.
  SCF Guess: Superposition of Atomic Densities via on-the-fly atomic UHF.

  ==> Iterations <==

                           Total Energy        Delta E     RMS |[F,P]|

   @DF-RHF iter   0:  -316.97051666824098   -3.16971e+02   6.99165e-03 
   @DF-RHF iter   1:  -313.29474029644905    3.67578e+00   7.00409e-04 
   @DF-RHF iter   2:  -313.50496590857085   -2.10226e-01   2.35945e-04 DIIS
   @DF-RHF iter   3:  -313.52821686563948   -2.32510e-02   9.68522e-05 DIIS
   @DF-RHF iter   4:  -313.53265460863906   -4.43774e-03   1.74469e-05 DIIS
   @DF-RHF iter   5:  -313.53285349807925   -1.98889e-04   4.48499e-06 DIIS
   @DF-RHF iter   6:  -313.53286588224000   -1.23842e-05   1.44970e-06 DIIS
   @DF-RHF iter   7:  -313.53286705375615   -1.17152e-06   2.71989e-07 DIIS
   @DF-RHF iter   8:  -313.53286710957821   -5.58221e-08   7.36034e-08 DIIS
   @DF-RHF iter   9:  -313.53286711295630   -3.37809e-09   2.09533e-08 DIIS
   @DF-RHF iter  10:  -313.53286711323801   -2.81716e-10   6.20224e-09 DIIS
   @DF-RHF iter  11:  -313.53286711326132   -2.33058e-11   1.61976e-09 DIIS
   @DF-RHF iter  12:  -313.53286711326325   -1.93268e-12   3.89358e-10 DIIS
   @DF-RHF iter  13:  -313.53286711326314    1.13687e-13   1.27362e-10 DIIS
   @DF-RHF iter  14:  -313.53286711326336   -2.27374e-13   3.39510e-11 DIIS

  ==> Post-Iterations <==

    Orbital Energies (a.u.)
    -----------------------

    Doubly Occupied:                                                      

       1A    -11.212828     2A    -11.212545     3A    -11.211240  
       4A    -11.210641     5A    -11.210099     6A    -11.209377  
       7A    -11.206891     8A    -11.205764     9A     -1.092791  
      10A     -1.057501    11A     -1.007228    12A     -0.950054  
      13A     -0.888401    14A     -0.827815    15A     -0.780813  
      16A     -0.765418    17A     -0.646256    18A     -0.617314  
      19A     -0.613368    20A     -0.593114    21A     -0.580802  
      22A     -0.569080    23A     -0.539383    24A     -0.533585  
      25A     -0.515178    26A     -0.500751    27A     -0.493491  
      28A     -0.471699    29A     -0.463830    30A     -0.460070  
      31A     -0.448870    32A     -0.434378    33A     -0.430909  

    Virtual:                                                              

      34A      0.028738    35A      0.033099    36A      0.034488  
      37A      0.035371    38A      0.046325    39A      0.048573  
      40A      0.050564    41A      0.053880    42A      0.055938  
      43A      0.068164    44A      0.070495    45A      0.071636  
      46A      0.073904    47A      0.078443    48A      0.081635  
      49A      0.091227    50A      0.098632    51A      0.103852  
      52A      0.113374    53A      0.117064    54A      0.119319  
      55A      0.124781    56A      0.127073    57A      0.135136  
      58A      0.137169    59A      0.138270    60A      0.140559  
      61A      0.145943    62A      0.147188    63A      0.150912  
      64A      0.153098    65A      0.157405    66A      0.161721  
      67A      0.165445    68A      0.167473    69A      0.173250  
      70A      0.175382    71A      0.178117    72A      0.182782  
      73A      0.185145    74A      0.188718    75A      0.195335  
      76A      0.203383    77A      0.214684    78A      0.222426  
      79A      0.223757    80A      0.229749    81A      0.231807  
      82A      0.242783    83A      0.251957    84A      0.262600  
      85A      0.270709    86A      0.273132    87A      0.280851  
      88A      0.290343    89A      0.297754    90A      0.300406  
      91A      0.306031    92A      0.309089    93A      0.313417  
      94A      0.314594    95A      0.317243    96A      0.322341  
      97A      0.327703    98A      0.331592    99A      0.336032  
     100A      0.337108   101A      0.342067   102A      0.348117  
     103A      0.349029   104A      0.355017   105A      0.357042  
     106A      0.360221   107A      0.364963   108A      0.370123  
     109A      0.371294   110A      0.375499   111A      0.378956  
     112A      0.383528   113A      0.384435   114A      0.389056  
     115A      0.392236   116A      0.393798   117A      0.396804  
     118A      0.404670   119A      0.405222   120A      0.412878  
     121A      0.417293   122A      0.420924   123A      0.428650  
     124A      0.431104   125A      0.439232   126A      0.440392  
     127A      0.442727   128A      0.448857   129A      0.454970  
     130A      0.458438   131A      0.462334   132A      0.463887  
     133A      0.467023   134A      0.473173   135A      0.476051  
     136A      0.481494   137A      0.488360   138A      0.490771  
     139A      0.496581   140A      0.498435   141A      0.503191  
     142A      0.507603   143A      0.510721   144A      0.514003  
     145A      0.517315   146A      0.518809   147A      0.525858  
     148A      0.528698   149A      0.529798   150A      0.536427  
     151A      0.539407   152A      0.541824   153A      0.545911  
     154A      0.548560   155A      0.556327   156A      0.559646  
     157A      0.563621   158A      0.568559   159A      0.571685  
     160A      0.578774   161A      0.587360   162A      0.593220  
     163A      0.598373   164A      0.603072   165A      0.605699  
     166A      0.611620   167A      0.613671   168A      0.621297  
     169A      0.623744   170A      0.627254   171A      0.634709  
     172A      0.638711   173A      0.642779   174A      0.648247  
     175A      0.648825   176A      0.654188   177A      0.658706  
     178A      0.663400   179A      0.666992   180A      0.672706  
     181A      0.681056   182A      0.685816   183A      0.691446  
     184A      0.696975   185A      0.705667   186A      0.709716  
     187A      0.715090   188A      0.718539   189A      0.723335  
     190A      0.726755   191A      0.733653   192A      0.734599  
     193A      0.738219   194A      0.743501   195A      0.750992  
     196A      0.754677   197A      0.773127   198A      0.776799  
     199A      0.790054   200A      0.793697   201A      0.805579  
     202A      0.808116   203A      0.820777   204A      0.828263  
     205A      0.835060   206A      0.843940   207A      0.849850  
     208A      0.855444   209A      0.863702   210A      0.866033  
     211A      0.871862   212A      0.879132   213A      0.879437  
     214A      0.887388   215A      0.891785   216A      0.898456  
     217A      0.906302   218A      0.909949   219A      0.914715  
     220A      0.919071   221A      0.928392   222A      0.932919  
     223A      0.934644   224A      0.938817   225A      0.944361  
     226A      0.947892   227A      0.954224   228A      0.961195  
     229A      0.965919   230A      0.976315   231A      0.981705  
     232A      0.983478   233A      0.988041   234A      0.993226  
     235A      1.000575   236A      1.002185   237A      1.005428  
     238A      1.010238   239A      1.016025   240A      1.019633  
     241A      1.029343   242A      1.033288   243A      1.035774  
     244A      1.048028   245A      1.050837   246A      1.054287  
     247A      1.057687   248A      1.065498   249A      1.071283  
     250A      1.076098   251A      1.078246   252A      1.081841  
     253A      1.094250   254A      1.100003   255A      1.105594  
     256A      1.111686   257A      1.121329   258A      1.126462  
     259A      1.129670   260A      1.137074   261A      1.142627  
     262A      1.142766   263A      1.148409   264A      1.156639  
     265A      1.158822   266A      1.161863   267A      1.167410  
     268A      1.170761   269A      1.179891   270A      1.181155  
     271A      1.184658   272A      1.186386   273A      1.198567  
     274A      1.201074   275A      1.209018   276A      1.212357  
     277A      1.217172   278A      1.223126   279A      1.226820  
     280A      1.233898   281A      1.244746   282A      1.246559  
     283A      1.257767   284A      1.262499   285A      1.264601  
     286A      1.273080   287A      1.275524   288A      1.278901  
     289A      1.292093   290A      1.299723   291A      1.305822  
     292A      1.308656   293A      1.310913   294A      1.311941  
     295A      1.324394   296A      1.332700   297A      1.339370  
     298A      1.350323   299A      1.351456   300A      1.353811  
     301A      1.363419   302A      1.368587   303A      1.383299  
     304A      1.394221   305A      1.397661   306A      1.400448  
     307A      1.402443   308A      1.410179   309A      1.414658  
     310A      1.420134   311A      1.421989   312A      1.429759  
     313A      1.446005   314A      1.454710   315A      1.459048  
     316A      1.466813   317A      1.476084   318A      1.478324  
     319A      1.485829   320A      1.501749   321A      1.507486  
     322A      1.510511   323A      1.518027   324A      1.524820  
     325A      1.529443   326A      1.537759   327A      1.543592  
     328A      1.550491   329A      1.555086   330A      1.562527  
     331A      1.569384   332A      1.579503   333A      1.587425  
     334A      1.596627   335A      1.601811   336A      1.606413  
     337A      1.617086   338A      1.624214   339A      1.633803  
     340A      1.638534   341A      1.642697   342A      1.650013  
     343A      1.658293   344A      1.659769   345A      1.675941  
     346A      1.676974   347A      1.688986   348A      1.695378  
     349A      1.696702   350A      1.704078   351A      1.705987  
     352A      1.717069   353A      1.718025   354A      1.731088  
     355A      1.733370   356A      1.743219   357A      1.746327  
     358A      1.754189   359A      1.759315   360A      1.761153  
     361A      1.766090   362A      1.780854   363A      1.783597  
     364A      1.788525   365A      1.789822   366A      1.792457  
     367A      1.799341   368A      1.810712   369A      1.816144  
     370A      1.821000   371A      1.831131   372A      1.834913  
     373A      1.845548   374A      1.849470   375A      1.852975  
     376A      1.861011   377A      1.865557   378A      1.874947  
     379A      1.878207   380A      1.887591   381A      1.889665  
     382A      1.899260   383A      1.905761   384A      1.907619  
     385A      1.911386   386A      1.919972   387A      1.932071  
     388A      1.937987   389A      1.946412   390A      1.951482  
     391A      1.952944   392A      1.955964   393A      1.961495  
     394A      1.970573   395A      1.984596   396A      1.994221  
     397A      1.997828   398A      2.002778   399A      2.014953  
     400A      2.021548   401A      2.028823   402A      2.034759  
     403A      2.040366   404A      2.043192   405A      2.048547  
     406A      2.054332   407A      2.064481   408A      2.072425  
     409A      2.075794   410A      2.084069   411A      2.089684  
     412A      2.098804   413A      2.109048   414A      2.112473  
     415A      2.125661   416A      2.134070   417A      2.140591  
     418A      2.142065   419A      2.149744   420A      2.159565  
     421A      2.166009   422A      2.181029   423A      2.189738  
     424A      2.193048   425A      2.214972   426A      2.222159  
     427A      2.228091   428A      2.238307   429A      2.244473  
     430A      2.251306   431A      2.262048   432A      2.267258  
     433A      2.279980   434A      2.293998   435A      2.302514  
     436A      2.316801   437A      2.319399   438A      2.330065  
     439A      2.340550   440A      2.347744   441A      2.355674  
     442A      2.363825   443A      2.364978   444A      2.376892  
     445A      2.381485   446A      2.391769   447A      2.395821  
     448A      2.404433   449A      2.412316   450A      2.427827  
     451A      2.435100   452A      2.449107   453A      2.457701  
     454A      2.467296   455A      2.476024   456A      2.478899  
     457A      2.481985   458A      2.490334   459A      2.502816  
     460A      2.520092   461A      2.530693   462A      2.537481  
     463A      2.541692   464A      2.560705   465A      2.566419  
     466A      2.573795   467A      2.594444   468A      2.612378  
     469A      2.621476   470A      2.628429   471A      2.634229  
     472A      2.652405   473A      2.660173   474A      2.675383  
     475A      2.680575   476A      2.698732   477A      2.714278  
     478A      2.739047   479A      2.756637   480A      2.760842  
     481A      2.765118   482A      2.801173   483A      2.834170  
     484A      2.857506   485A      2.932025   486A      2.987118  
     487A      3.030250   488A      3.071758   489A      3.120177  
     490A      3.154929   491A      3.206686   492A      3.220170  
     493A      3.302062   494A      3.376381   495A      3.402736  
     496A      3.426572   497A      3.439743   498A      3.453536  
     499A      3.475775   500A      3.489478   501A      3.500021  
     502A      3.510498   503A      3.535571   504A      3.547438  
     505A      3.566777   506A      3.571707   507A      3.581071  
     508A      3.595445   509A      3.601758   510A      3.614476  
     511A      3.636088   512A      3.648462   513A      3.652801  
     514A      3.662830   515A      3.670373   516A      3.682567  
     517A      3.687247   518A      3.702360   519A      3.712881  
     520A      3.728075   521A      3.739866   522A      3.744223  
     523A      3.752763   524A      3.758853   525A      3.772804  
     526A      3.777235   527A      3.782665   528A      3.789970  
     529A      3.804234   530A      3.816042   531A      3.822337  
     532A      3.835143   533A      3.842393   534A      3.846060  
     535A      3.852701   536A      3.857262   537A      3.864810  
     538A      3.867866   539A      3.882223   540A      3.890456  
     541A      3.902650   542A      3.914627   543A      3.918440  
     544A      3.928026   545A      3.933221   546A      3.937731  
     547A      3.944999   548A      3.951477   549A      3.954504  
     550A      3.969162   551A      3.977043   552A      3.980538  
     553A      3.986764   554A      3.999650   555A      4.003285  
     556A      4.008296   557A      4.015771   558A      4.016982  
     559A      4.028830   560A      4.044067   561A      4.054657  
     562A      4.057560   563A      4.061450   564A      4.075573  
     565A      4.080716   566A      4.088126   567A      4.094563  
     568A      4.099770   569A      4.109844   570A      4.120073  
     571A      4.127577   572A      4.129195   573A      4.134605  
     574A      4.147469   575A      4.158221   576A      4.175280  
     577A      4.179162   578A      4.186257   579A      4.194753  
     580A      4.217567   581A      4.222230   582A      4.234523  
     583A      4.237906   584A      4.248146   585A      4.263721  
     586A      4.267397   587A      4.277272   588A      4.286239  
     589A      4.297779   590A      4.304360   591A      4.315136  
     592A      4.319711   593A      4.330131   594A      4.333430  
     595A      4.344837   596A      4.358682   597A      4.369425  
     598A      4.375565   599A      4.384488   600A      4.389323  
     601A      4.390759   602A      4.417820   603A      4.421282  
     604A      4.430820   605A      4.443226   606A      4.449213  
     607A      4.457178   608A      4.467492   609A      4.483870  
     610A      4.494791   611A      4.524574   612A      4.537008  
     613A      4.539567   614A      4.563153   615A      4.570595  
     616A      4.585444   617A      4.597724   618A      4.601941  
     619A      4.611548   620A      4.628045   621A      4.644338  
     622A      4.649838   623A      4.661225   624A      4.681445  
     625A      4.685773   626A      4.704195   627A      4.717915  
     628A      4.734580   629A      4.742162   630A      4.759197  
     631A      4.765959   632A      4.780092   633A      4.784852  
     634A      4.793173   635A      4.803404   636A      4.813282  
     637A      4.821190   638A      4.832011   639A      4.843150  
     640A      4.855968   641A      4.871790   642A      4.881588  
     643A      4.889176   644A      4.904411   645A      4.910396  
     646A      4.922648   647A      4.934822   648A      4.938784  
     649A      4.950614   650A      4.953772   651A      4.969397  
     652A      4.983934   653A      4.994352   654A      4.997313  
     655A      5.001486   656A      5.025762   657A      5.037720  
     658A      5.048744   659A      5.077283   660A      5.085063  
     661A      5.091691   662A      5.101936   663A      5.115246  
     664A      5.120182   665A      5.132585   666A      5.143675  
     667A      5.158920   668A      5.165616   669A      5.174000  
     670A      5.183177   671A      5.195122   672A      5.215613  
     673A      5.218936   674A      5.233754   675A      5.244853  
     676A      5.256963   677A      5.270126   678A      5.279320  
     679A      5.288927   680A      5.294423   681A      5.309135  
     682A      5.325094   683A      5.331290   684A      5.349926  
     685A      5.366013   686A      5.373412   687A      5.390506  
     688A      5.395240   689A      5.411796   690A      5.424703  
     691A      5.432389   692A      5.444611   693A      5.447479  
     694A      5.464167   695A      5.469411   696A      5.489916  
     697A      5.492821   698A      5.503913   699A      5.515569  
     700A      5.526870   701A      5.536521   702A      5.541987  
     703A      5.553745   704A      5.580131   705A      5.585275  
     706A      5.593436   707A      5.604418   708A      5.629135  
     709A      5.631054   710A      5.648410   711A      5.657424  
     712A      5.676486   713A      5.683922   714A      5.698897  
     715A      5.704578   716A      5.713051   717A      5.727438  
     718A      5.735530   719A      5.746318   720A      5.752346  
     721A      5.756102   722A      5.777788   723A      5.782296  
     724A      5.799331   725A      5.825968   726A      5.845659  
     727A      5.850930   728A      5.864080   729A      5.893542  
     730A      5.924074   731A      5.937614   732A      5.998651  
     733A      6.008192   734A      6.027686   735A      6.037966  
     736A      6.075534   737A      6.087798   738A      6.104877  
     739A      6.116687   740A      6.149144   741A      6.156388  
     742A      6.166536   743A      6.175752   744A      6.227168  
     745A      6.252617   746A      6.261546   747A      6.274574  
     748A      6.302105   749A      6.323520   750A      6.326688  
     751A      6.333252   752A      6.351008   753A      6.373172  
     754A      6.396217   755A      6.411731   756A      6.454875  
     757A      6.473798   758A      6.490959   759A      6.580242  
     760A      6.653641   761A      6.664528   762A      6.715623  
     763A      6.767627   764A      6.793756   765A      6.817051  
     766A      6.900052   767A      6.953539   768A      6.972529  
     769A      6.983389   770A      7.001431   771A      7.056033  
     772A      7.081312   773A      7.125199   774A      7.193405  
     775A     18.015050   776A     18.277322   777A     18.489770  
     778A     18.685095   779A     19.147080   780A     19.432533  
     781A     19.684042   782A     19.827670  

    Final Occupation by Irrep:
              A 
    DOCC [    33 ]

  Energy converged.

  @DF-RHF Final Energy:  -313.53286711326336

   => Energetics <=

    Nuclear Repulsion Energy =            406.6838189624551205
    One-Electron Energy =               -1228.5103967658330930
    Two-Electron Energy =                 508.2937106901143807
    DFT Exchange-Correlation Energy =       0.0000000000000000
    Empirical Dispersion Energy =           0.0000000000000000
    PCM Polarization Energy =               0.0000000000000000
    EFP Energy =                            0.0000000000000000
    Total Energy =                       -313.5328671132635918


  Saving occupied orbitals to File 180.

*** tstop() called on wr38 at Wed Sep 21 14:03:48 2016
Module time:
	user time   =     908.14 seconds =      15.14 minutes
	system time =      10.71 seconds =       0.18 minutes
	total time  =         89 seconds =       1.48 minutes
Total time:
	user time   =     908.14 seconds =      15.14 minutes
	system time =      10.71 seconds =       0.18 minutes
	total time  =         89 seconds =       1.48 minutes


Properties will be evaluated at   0.000000,   0.000000,   0.000000 Bohr

Properties computed using the SCF density matrix

  Nuclear Dipole Moment: (a.u.)
     X:     1.0943      Y:     2.2087      Z:     0.3141

  Electronic Dipole Moment: (a.u.)
     X:    -1.1071      Y:    -2.2510      Z:    -0.3329

  Dipole Moment: (a.u.)
     X:    -0.0128      Y:    -0.0423      Z:    -0.0187     Total:     0.0481

  Dipole Moment: (Debye)
     X:    -0.0326      Y:    -0.1076      Z:    -0.0477     Total:     0.1221


  //>>>>>>>>>>>>>>>>>>>>>>>>>>>>>>>>>>>//
  //               DFMP2               //
  //<<<<<<<<<<<<<<<<<<<<<<<<<<<<<<<<<<<//


*** tstart() called on wr38
*** at Wed Sep 21 14:03:48 2016


*** tstop() called on wr38 at Wed Sep 21 14:03:49 2016
Module time:
	user time   =       3.34 seconds =       0.06 minutes
	system time =       0.14 seconds =       0.00 minutes
	total time  =          1 seconds =       0.02 minutes
Total time:
	user time   =     912.60 seconds =      15.21 minutes
	system time =      10.85 seconds =       0.18 minutes
	total time  =         90 seconds =       1.50 minutes
	 --------------------------------------------------------
	                          DF-MP2                         
	      2nd-Order Density-Fitted Moller-Plesset Theory     
	              RMP2 Wavefunction,  12 Threads             
	                                                         
	        Rob Parrish, Justin Turney, Andy Simmonett,      
	           Ed Hohenstein, and C. David Sherrill          
	 --------------------------------------------------------

   => Auxiliary Basis Set <=

  Basis Set: 
    Number of shells: 476
    Number of basis function: 1676
    Number of Cartesian functions: 2078
    Spherical Harmonics?: true
    Max angular momentum: 4

	 --------------------------------------------------------
	                 NBF =   782, NAUX =  1676
	 --------------------------------------------------------
	   CLASS    FOCC     OCC    AOCC    AVIR     VIR    FVIR
	   PAIRS       8      33      25     749     749       0
	 --------------------------------------------------------

DGAS Warning! /src/lib/libfock/apps.cc:80 is not currently checking restricted

         ------------------------------------------------------------
                                     CPHF                           
                                  Rob Parrish                       
         ------------------------------------------------------------

  ==> Geometry <==

    Molecular point group: c1
    Full point group: C1

    Geometry (in Angstrom), charge = 0, multiplicity = 1:

       Center              X                  Y                   Z               Mass       
    ------------   -----------------  -----------------  -----------------  -----------------
           C         -1.229036926425     1.944062562034    -0.003175871945    12.000000000000
           H         -1.685343447093     2.357485526090     0.897470738311     1.007825032070
           H         -1.146560858362     2.748995305272    -0.734315127320     1.007825032070
           H         -0.221793319071     1.624613960865     0.257169258673     1.007825032070
           C          2.707221648134     0.965439468986     0.364969603663    12.000000000000
           H          2.266031915028     0.871726122277     1.356935446399     1.007825032070
           H          2.242048657499     1.819996631320    -0.128813480021     1.007825032070
           H          3.765149261389     1.192210410061     0.496027575265     1.007825032070
           C         -2.076907943685     0.792876532799    -0.537962256499    12.000000000000
           H         -1.675955644334     0.433599320917    -1.489256273465     1.007825032070
           H         -3.073019424417     1.182182256856    -0.759175546406     1.007825032070
           C          2.514259661542    -0.303011354914    -0.459976227983    12.000000000000
           H          3.018704442490    -0.181748530304    -1.421217350382     1.007825032070
           H          3.000001423742    -1.145236538398     0.041010200141     1.007825032070
           C         -2.208043986285    -0.383215954116     0.438098307050    12.000000000000
           H         -3.185089475524    -0.852062833173     0.297808593857     1.007825032070
           H         -2.202544135346     0.005038218858     1.461987853650     1.007825032070
           C         -1.155660108177    -1.488098722007     0.318638028847    12.000000000000
           H         -1.235110709524    -1.948369264402    -0.671706400697     1.007825032070
           H         -1.422957080531    -2.267719965267     1.036234803847     1.007825032070
           C          0.302946684633    -1.076267892162     0.557723286683    12.000000000000
           H          0.336829855782    -0.287978711831     1.313968008436     1.007825032070
           H          0.847074893175    -1.925475358930     0.981920251534     1.007825032070
           C          1.047187354653    -0.649654132681    -0.706454358049    12.000000000000
           H          0.551038839162     0.202248434158    -1.177316706891     1.007825032070
           H          0.988764272246    -1.473506840673    -1.423679779313     1.007825032070

  Nuclear repulsion =  406.683818962455121
  Reference energy  = -313.532867113263364

  ==> Basis Set <==

  Basis Set: AUG-CC-PVTZ
    Number of shells: 274
    Number of basis function: 782
    Number of Cartesian functions: 890
    Spherical Harmonics?: true
    Max angular momentum: 3

  ==> CGRSolver (by Rob Parrish) <==

   Number of roots    =         1
   Preconditioning    =    JACOBI
   Convergence cutoff =     1E-06
   Maximum iterations =       100

  ==> CPHFRHamiltonian (by Rob Parrish) <== 

  ==> DFJK: Density-Fitted J/K Matrices <==

    J tasked:                  Yes
    K tasked:                  Yes
    wK tasked:                  No
    OpenMP threads:             12
    Integrals threads:          12
    Memory (MB):             21457
    Algorithm:                Core
    Integral Cache:           NONE
    Schwarz Cutoff:          1E-12
    Fitting Condition:       1E-12

   => Auxiliary Basis Set <=

  Basis Set: 
    Number of shells: 492
    Number of basis function: 1660
    Number of Cartesian functions: 2038
    Spherical Harmonics?: true
    Max angular momentum: 4

  ==> CPHF Iterations <==

  => Iterations <=

             Iter  Converged  Remaining    Residual
  CGR           1          0          1   9.354E-02
  CGR           2          0          1   1.375E-02
  CGR           3          0          1   4.065E-03
  CGR           4          0          1   8.782E-04
  CGR           5          0          1   2.350E-04
  CGR           6          0          1   4.702E-05
  CGR           7          0          1   1.198E-05
  CGR           8          0          1   3.306E-06
  CGR           9          1          0   8.990E-07

    CGRSolver converged.

  ==> DFCorrGrad: Density-Fitted Correlated Gradients <==

    OpenMP threads:             12
    Integrals threads:          12
    Memory (MB):             21457
    Schwarz Cutoff:          0E+00
    Fitting Condition:       1E-12

   => Auxiliary Basis Set <=

  Basis Set: 
    Number of shells: 492
    Number of basis function: 1660
    Number of Cartesian functions: 2038
    Spherical Harmonics?: true
    Max angular momentum: 4

	-----------------------------------------------------------
	 ==================> DF-MP2 Energies <==================== 
	-----------------------------------------------------------
	 Reference Energy          =    -313.5328671132633644 [Eh]
	 Singles Energy            =      -0.0000000000000001 [Eh]
	 Same-Spin Energy          =      -0.3175490815372974 [Eh]
	 Opposite-Spin Energy      =      -1.1275011974455607 [Eh]
	 Correlation Energy        =      -1.4450502789828581 [Eh]
	 Total Energy              =    -314.9779173922462405 [Eh]
	-----------------------------------------------------------
	 ================> DF-SCS-MP2 Energies <================== 
	-----------------------------------------------------------
	 SCS Same-Spin Scale       =       0.3333333333333333 [-]
	 SCS Opposite-Spin Scale   =       1.2000000000000000 [-]
	 SCS Same-Spin Energy      =      -0.1058496938457658 [Eh]
	 SCS Opposite-Spin Energy  =      -1.3530014369346728 [Eh]
	 SCS Correlation Energy    =      -1.4588511307804386 [Eh]
	 SCS Total Energy          =    -314.9917182440437955 [Eh]
	-----------------------------------------------------------


  -Total Gradient:
     Atom            X                  Y                   Z
    ------   -----------------  -----------------  -----------------
       1       -0.000000292652    -0.000000502772    -0.000000236272
       2       -0.000000301043     0.000000236016     0.000000583500
       3       -0.000000030120     0.000000501140    -0.000000501819
       4        0.000000542341    -0.000000147841     0.000000012936
       5        0.000000047258    -0.000000182934    -0.000000147491
       6       -0.000000144524     0.000000019319     0.000000322725
       7       -0.000000132351     0.000000255533    -0.000000166679
       8        0.000000239885     0.000000069510     0.000000059886
       9        0.000000328620    -0.000000034315     0.000000430871
      10        0.000000325196    -0.000000203736    -0.000000701333
      11       -0.000000328218     0.000000278304     0.000000020213
      12       -0.000000099722     0.000000123775     0.000000072602
      13        0.000000100432     0.000000078077    -0.000000201918
      14        0.000000134135    -0.000000147563     0.000000088345
      15       -0.000000110196    -0.000000319657    -0.000000098897
      16       -0.000000091903    -0.000000056365    -0.000000134981
      17       -0.000000052961     0.000000083930     0.000000592443
      18       -0.000000322012    -0.000000002591     0.000000020116
      19       -0.000000179135    -0.000000125574    -0.000000138421
      20       -0.000000200744     0.000000009724     0.000000085697
      21        0.000000186269    -0.000000388397    -0.000000324439
      22        0.000000218517     0.000000265046     0.000000364109
      23        0.000000085434    -0.000000081550     0.000000054931
      24        0.000000354803     0.000000073675     0.000000277617
      25       -0.000000286595     0.000000311940    -0.000000333217
      26        0.000000009284    -0.000000112694    -0.000000000526


			-----------------------------------------
			 OPTKING 2.0: for geometry optimizations 
			  - R.A. King,  Bethel University        
			-----------------------------------------

	Internal coordinates to be generated automatically.
	Detected frag 1 with atoms:  1 2 3 4 5 6 7 8 9 10 11 12 13 14 15 16 17 18 19 20
	 21 22 23 24 25 26
	---Fragment 1 Bond Connectivity---
	 1 : 2 3 4 9
	 2 : 1
	 3 : 1
	 4 : 1
	 5 : 6 7 8 12
	 6 : 5
	 7 : 5
	 8 : 5
	 9 : 1 10 11 15
	 10 : 9
	 11 : 9
	 12 : 5 13 14 24
	 13 : 12
	 14 : 12
	 15 : 9 16 17 18
	 16 : 15
	 17 : 15
	 18 : 15 19 20 21
	 19 : 18
	 20 : 18
	 21 : 18 22 23 24
	 22 : 21
	 23 : 21
	 24 : 12 21 25 26
	 25 : 24
	 26 : 24

	---Fragment 1 Geometry and Gradient---
	 C          -2.3225431981        3.6737458274       -0.0060015282
	 H          -3.1848375549        4.4550020066        1.6959739077
	 H          -2.1666860170        5.1948482676       -1.3876544859
	 H          -0.4191286311        3.0700754577        0.4859794687
	 C           5.1159074960        1.8244161943        0.6896925978
	 H           4.2821797278        1.6473236340        2.5642363737
	 H           4.2368579393        3.4392951960       -0.2434221995
	 H           7.1151009535        2.2529511678        0.9373562716
	 C          -3.9247872168        1.4983195042       -1.0166013346
	 H          -3.1670971787        0.8193839679       -2.8142864985
	 H          -5.8071651132        2.2340007046       -1.4346338695
	 C           4.7512621873       -0.5726084759       -0.8692290985
	 H           5.7045246724       -0.3434549473       -2.6857115675
	 H           5.6691810891       -2.1641834149        0.0774980469
	 C          -4.1725984234       -0.7241732030        0.8278858196
	 H          -6.0189468175       -1.6101654027        0.5627766824
	 H          -4.1622052114        0.0095208538        2.7627566530
	 C          -2.1838811072       -2.8120990433        0.6021386100
	 H          -2.3340209848       -3.6818843155       -1.2693411390
	 H          -2.6889991811       -4.2853696804        1.9581999886
	 C           0.5724862668       -2.0338515618        1.0539442698
	 H           0.6365161808       -0.5442008975        2.4830396833
	 H           1.6007395621       -3.6386211040        1.8555603597
	 C           1.9788973101       -1.2276683919       -1.3350052621
	 H           1.0413124946        0.3821941514       -2.2248061477
	 H           1.8684936845       -2.7845243838       -2.6903648838
	            -0.0000002927       -0.0000005028       -0.0000002363
	            -0.0000003010        0.0000002360        0.0000005835
	            -0.0000000301        0.0000005011       -0.0000005018
	             0.0000005423       -0.0000001478        0.0000000129
	             0.0000000473       -0.0000001829       -0.0000001475
	            -0.0000001445        0.0000000193        0.0000003227
	            -0.0000001324        0.0000002555       -0.0000001667
	             0.0000002399        0.0000000695        0.0000000599
	             0.0000003286       -0.0000000343        0.0000004309
	             0.0000003252       -0.0000002037       -0.0000007013
	            -0.0000003282        0.0000002783        0.0000000202
	            -0.0000000997        0.0000001238        0.0000000726
	             0.0000001004        0.0000000781       -0.0000002019
	             0.0000001341       -0.0000001476        0.0000000883
	            -0.0000001102       -0.0000003197       -0.0000000989
	            -0.0000000919       -0.0000000564       -0.0000001350
	            -0.0000000530        0.0000000839        0.0000005924
	            -0.0000003220       -0.0000000026        0.0000000201
	            -0.0000001791       -0.0000001256       -0.0000001384
	            -0.0000002007        0.0000000097        0.0000000857
	             0.0000001863       -0.0000003884       -0.0000003244
	             0.0000002185        0.0000002650        0.0000003641
	             0.0000000854       -0.0000000816        0.0000000549
	             0.0000003548        0.0000000737        0.0000002776
	            -0.0000002866        0.0000003119       -0.0000003332
	             0.0000000093       -0.0000001127       -0.0000000005

	Previous optimization step data not found.  Starting new optimization.

	---Fragment 1 Intrafragment Coordinates---
	 - Coordinate -           - BOHR/RAD -       - ANG/DEG -
	 R(1,2)           =         2.061706	       1.091008
	 R(1,3)           =         2.060827	       1.090543
	 R(1,4)           =         2.056563	       1.088286
	 R(1,9)           =         2.884610	       1.526470
	 R(5,6)           =         2.059218	       1.089691
	 R(5,7)           =         2.061860	       1.091089
	 R(5,8)           =         2.059552	       1.089868
	 R(5,12)          =         2.882522	       1.525365
	 R(9,10)          =         2.065604	       1.093071
	 R(9,11)          =         2.063813	       1.092123
	 R(9,15)          =         2.898796	       1.533977
	 R(12,13)         =         2.064178	       1.092316
	 R(12,14)         =         2.066876	       1.093744
	 R(12,24)         =         2.886530	       1.527486
	 R(15,16)         =         2.065010	       1.092756
	 R(15,17)         =         2.069333	       1.095044
	 R(15,18)         =         2.892299	       1.530539
	 R(18,19)         =         2.069180	       1.094963
	 R(18,20)         =         2.065084	       1.092796
	 R(18,21)         =         2.899545	       1.534373
	 R(21,22)         =         2.065302	       1.092911
	 R(21,23)         =         2.067650	       1.094154
	 R(21,24)         =         2.887041	       1.527756
	 R(24,25)         =         2.064575	       1.092526
	 R(24,26)         =         2.067121	       1.093873
	 B(1,9,10)        =         1.927337	     110.428284
	 B(1,9,11)        =         1.884673	     107.983831
	 B(1,9,15)        =         1.985333	     113.751187
	 B(2,1,3)         =         1.881148	     107.781857
	 B(2,1,4)         =         1.876373	     107.508277
	 B(2,1,9)         =         1.920561	     110.040054
	 B(3,1,4)         =         1.882884	     107.881327
	 B(3,1,9)         =         1.943103	     111.331613
	 B(4,1,9)         =         1.956839	     112.118597
	 B(5,12,13)       =         1.902004	     108.976804
	 B(5,12,14)       =         1.913932	     109.660215
	 B(5,12,24)       =         1.979566	     113.420783
	 B(6,5,7)         =         1.882537	     107.861420
	 B(6,5,8)         =         1.876996	     107.543973
	 B(6,5,12)        =         1.949358	     111.689988
	 B(7,5,8)         =         1.881049	     107.776185
	 B(7,5,12)        =         1.931159	     110.647287
	 B(8,5,12)        =         1.939982	     111.152764
	 B(9,15,16)       =         1.900431	     108.886676
	 B(9,15,17)       =         1.899359	     108.825270
	 B(9,15,18)       =         2.032000	     116.425047
	 B(10,9,11)       =         1.849854	     105.988822
	 B(10,9,15)       =         1.910407	     109.458237
	 B(11,9,15)       =         1.900976	     108.917897
	 B(12,24,21)      =         1.979834	     113.436137
	 B(12,24,25)      =         1.905784	     109.193404
	 B(12,24,26)      =         1.904999	     109.148388
	 B(13,12,14)      =         1.858210	     106.467614
	 B(13,12,24)      =         1.903650	     109.071105
	 B(14,12,24)      =         1.902554	     109.008323
	 B(15,18,19)      =         1.900911	     108.914153
	 B(15,18,20)      =         1.870852	     107.191952
	 B(15,18,21)      =         2.035008	     116.597360
	 B(16,15,17)      =         1.851105	     106.060499
	 B(16,15,18)      =         1.870288	     107.159610
	 B(17,15,18)      =         1.902312	     108.994467
	 B(18,21,22)      =         1.908037	     109.322468
	 B(18,21,23)      =         1.901642	     108.956037
	 B(18,21,24)      =         1.992269	     114.148584
	 B(19,18,20)      =         1.850723	     106.038602
	 B(19,18,21)      =         1.899412	     108.828282
	 B(20,18,21)      =         1.898304	     108.764829
	 B(21,24,25)      =         1.931723	     110.679586
	 B(21,24,26)      =         1.882020	     107.831809
	 B(22,21,23)      =         1.850551	     106.028765
	 B(22,21,24)      =         1.934846	     110.858484
	 B(23,21,24)      =         1.870540	     107.174028
	 B(25,24,26)      =         1.855042	     106.286051
	 D(1,9,15,16)     =         2.583896	     148.046328
	 D(1,9,15,17)     =         0.573526	      32.860593
	 D(1,9,15,18)     =        -1.583726	     -90.740817
	 D(2,1,9,10)      =         3.051573	     174.842264
	 D(2,1,9,11)      =         1.036354	      59.378722
	 D(2,1,9,15)      =        -1.075738	     -61.635248
	 D(3,1,9,10)      =         0.967044	      55.407550
	 D(3,1,9,11)      =        -1.048175	     -60.055993
	 D(3,1,9,15)      =         3.122918	     178.930037
	 D(4,1,9,10)      =        -1.144219	     -65.558895
	 D(4,1,9,11)      =         3.123748	     178.977562
	 D(4,1,9,15)      =         1.011656	      57.963592
	 D(5,12,24,21)    =        -1.191455	     -68.265358
	 D(5,12,24,25)    =         0.971855	      55.683177
	 D(5,12,24,26)    =         2.992914	     171.481339
	 D(6,5,12,13)     =        -3.087774	    -176.916403
	 D(6,5,12,14)     =        -1.060067	     -60.737339
	 D(6,5,12,24)     =         1.071313	      61.381722
	 D(7,5,12,13)     =         1.097987	      62.909996
	 D(7,5,12,14)     =         3.125694	     179.089060
	 D(7,5,12,24)     =        -1.026112	     -58.791879
	 D(8,5,12,13)     =        -0.991366	     -56.801081
	 D(8,5,12,14)     =         1.036341	      59.377983
	 D(8,5,12,24)     =        -3.115464	    -178.502956
	 D(9,15,18,19)    =        -1.090707	     -62.492898
	 D(9,15,18,20)    =        -3.085854	    -176.806427
	 D(9,15,18,21)    =         1.066166	      61.086815
	 D(10,9,15,16)    =        -1.534234	     -87.905106
	 D(10,9,15,17)    =         2.738581	     156.909159
	 D(10,9,15,18)    =         0.581330	      33.307749
	 D(11,9,15,16)    =         0.480946	      27.556148
	 D(11,9,15,17)    =        -1.529425	     -87.629587
	 D(11,9,15,18)    =         2.596509	     148.769003
	 D(12,24,21,18)   =        -3.096631	    -177.423894
	 D(12,24,21,22)   =         1.022721	      58.597597
	 D(12,24,21,23)   =        -0.989287	     -56.681956
	 D(13,12,24,21)   =         2.968551	     170.085464
	 D(13,12,24,25)   =        -1.151324	     -65.966001
	 D(13,12,24,26)   =         0.869735	      49.832160
	 D(14,12,24,21)   =         0.946239	      54.215517
	 D(14,12,24,25)   =         3.109549	     178.164052
	 D(14,12,24,26)   =        -1.152577	     -66.037787
	 D(15,18,21,22)   =         0.589228	      33.760286
	 D(15,18,21,23)   =         2.604310	     149.215956
	 D(15,18,21,24)   =        -1.588932	     -91.039104
	 D(16,15,18,19)   =         1.040757	      59.630973
	 D(16,15,18,20)   =        -0.954391	     -54.682557
	 D(16,15,18,21)   =        -3.085556	    -176.789314
	 D(17,15,18,19)   =         3.036752	     173.993071
	 D(17,15,18,20)   =         1.041604	      59.679541
	 D(17,15,18,21)   =        -1.089560	     -62.427216
	 D(18,21,24,25)   =         1.037437	      59.440742
	 D(18,21,24,26)   =        -0.984835	     -56.426861
	 D(19,18,21,22)   =         2.746872	     157.384174
	 D(19,18,21,23)   =        -1.521232	     -87.160156
	 D(19,18,21,24)   =         0.568712	      32.584784
	 D(20,18,21,22)   =        -1.527509	     -87.519809
	 D(20,18,21,23)   =         0.487573	      27.935861
	 D(20,18,21,24)   =         2.577516	     147.680801
	 D(22,21,24,25)   =        -1.126397	     -64.537767
	 D(22,21,24,26)   =         3.134518	     179.594630
	 D(23,21,24,25)   =        -3.138404	    -179.817320
	 D(23,21,24,26)   =         1.122510	      64.315077
	 R(1,21)          =         6.487014	       3.432780
	 R(1,24)          =         6.655261	       3.521813
	 R(9,24)          =         6.510444	       3.445179

	Current energy   :      -314.9779173922

	Generating empirical Hessian (Schlegel '84) for each fragment.
	Taking RFO optimization step.
	Going to follow RFO solution 1.
	Using RFO vector 1.
	Norm of target step-size    0.00021
	Projected energy change by RFO approximation:        -0.0000000003

	Back-transformation to cartesian coordinates...
	Successfully converged to displaced geometry.

	--- Internal Coordinate Step in ANG or DEG, aJ/ANG or AJ/DEG ---
	 ---------------------------------------------------------------------------
	   Coordinate                Previous        Force       Change         New 
	   ----------                --------       ------       ------       ------
	    1 R(1,2)          =      1.091008    -0.000006    -0.000001     1.091007
	    2 R(1,3)          =      1.090543    -0.000006    -0.000001     1.090542
	    3 R(1,4)          =      1.088286    -0.000005    -0.000001     1.088285
	    4 R(1,9)          =      1.526470    -0.000000    -0.000000     1.526470
	    5 R(5,6)          =      1.089691    -0.000003    -0.000001     1.089691
	    6 R(5,7)          =      1.091089    -0.000003    -0.000000     1.091089
	    7 R(5,8)          =      1.089868    -0.000002    -0.000000     1.089868
	    8 R(5,12)         =      1.525365    -0.000001    -0.000000     1.525364
	    9 R(9,10)         =      1.093071    -0.000007    -0.000001     1.093069
	   10 R(9,11)         =      1.092123    -0.000003    -0.000001     1.092122
	   11 R(9,15)         =      1.533977    -0.000003    -0.000001     1.533976
	   12 R(12,13)        =      1.092316    -0.000002    -0.000000     1.092315
	   13 R(12,14)        =      1.093744    -0.000002    -0.000000     1.093744
	   14 R(12,24)        =      1.527486    -0.000002    -0.000000     1.527486
	   15 R(15,16)        =      1.092756    -0.000001    -0.000000     1.092756
	   16 R(15,17)        =      1.095044    -0.000005    -0.000001     1.095043
	   17 R(15,18)        =      1.530539     0.000001    -0.000000     1.530538
	   18 R(18,19)        =      1.094963    -0.000002    -0.000000     1.094962
	   19 R(18,20)        =      1.092796    -0.000001    -0.000000     1.092795
	   20 R(18,21)        =      1.534373    -0.000006    -0.000002     1.534371
	   21 R(21,22)        =      1.092911    -0.000004    -0.000001     1.092910
	   22 R(21,23)        =      1.094154    -0.000001    -0.000000     1.094153
	   23 R(21,24)        =      1.527756    -0.000002    -0.000001     1.527755
	   24 R(24,25)        =      1.092526    -0.000004    -0.000001     1.092525
	   25 R(24,26)        =      1.093873    -0.000001    -0.000000     1.093873
	   26 B(1,9,10)       =    110.428284     0.000000    -0.000009   110.428275
	   27 B(1,9,11)       =    107.983831     0.000000     0.000165   107.983997
	   28 B(1,9,15)       =    113.751187    -0.000000    -0.000115   113.751073
	   29 B(2,1,3)        =    107.781857    -0.000000    -0.000005   107.781852
	   30 B(2,1,4)        =    107.508277    -0.000000    -0.000041   107.508236
	   31 B(2,1,9)        =    110.040054    -0.000000    -0.000014   110.040041
	   32 B(3,1,4)        =    107.881327    -0.000000     0.000011   107.881338
	   33 B(3,1,9)        =    111.331613     0.000000     0.000053   111.331665
	   34 B(4,1,9)        =    112.118597    -0.000000    -0.000007   112.118590
	   35 B(5,12,13)      =    108.976804     0.000000     0.000034   108.976838
	   36 B(5,12,14)      =    109.660215    -0.000000    -0.000016   109.660199
	   37 B(5,12,24)      =    113.420783     0.000000     0.000000   113.420784
	   38 B(6,5,7)        =    107.861420     0.000000     0.000003   107.861423
	   39 B(6,5,8)        =    107.543973     0.000000     0.000007   107.543981
	   40 B(6,5,12)       =    111.689988    -0.000000    -0.000023   111.689965
	   41 B(7,5,8)        =    107.776185    -0.000000     0.000004   107.776190
	   42 B(7,5,12)       =    110.647287     0.000000     0.000016   110.647303
	   43 B(8,5,12)       =    111.152764    -0.000000    -0.000006   111.152758
	   44 B(9,15,16)      =    108.886676    -0.000000     0.000105   108.886782
	   45 B(9,15,17)      =    108.825270    -0.000000    -0.000105   108.825166
	   46 B(9,15,18)      =    116.425047     0.000000    -0.000045   116.425002
	   47 B(10,9,11)      =    105.988822    -0.000000    -0.000017   105.988805
	   48 B(10,9,15)      =    109.458237    -0.000000    -0.000094   109.458143
	   49 B(11,9,15)      =    108.917897     0.000000     0.000081   108.917978
	   50 B(12,24,21)     =    113.436137    -0.000000    -0.000037   113.436100
	   51 B(12,24,25)     =    109.193404     0.000000     0.000006   109.193410
	   52 B(12,24,26)     =    109.148388    -0.000000    -0.000026   109.148362
	   53 B(13,12,14)     =    106.467614    -0.000000    -0.000002   106.467611
	   54 B(13,12,24)     =    109.071105    -0.000000     0.000007   109.071112
	   55 B(14,12,24)     =    109.008323    -0.000000    -0.000023   109.008299
	   56 B(15,18,19)     =    108.914153     0.000000     0.000027   108.914180
	   57 B(15,18,20)     =    107.191952     0.000000     0.000142   107.192094
	   58 B(15,18,21)     =    116.597360     0.000000    -0.000065   116.597295
	   59 B(16,15,17)     =    106.060499     0.000000     0.000006   106.060504
	   60 B(16,15,18)     =    107.159610    -0.000000     0.000072   107.159682
	   61 B(17,15,18)     =    108.994467    -0.000000    -0.000025   108.994442
	   62 B(18,21,22)     =    109.322468     0.000000     0.000006   109.322473
	   63 B(18,21,23)     =    108.956037    -0.000000    -0.000038   108.955999
	   64 B(18,21,24)     =    114.148584    -0.000000    -0.000125   114.148459
	   65 B(19,18,20)     =    106.038602     0.000000     0.000029   106.038631
	   66 B(19,18,21)     =    108.828282    -0.000000    -0.000100   108.828183
	   67 B(20,18,21)     =    108.764829    -0.000000    -0.000021   108.764808
	   68 B(21,24,25)     =    110.679586    -0.000000    -0.000019   110.679567
	   69 B(21,24,26)     =    107.831809     0.000000     0.000050   107.831859
	   70 B(22,21,23)     =    106.028765     0.000000     0.000079   106.028844
	   71 B(22,21,24)     =    110.858484     0.000000     0.000073   110.858557
	   72 B(23,21,24)     =    107.174028     0.000000     0.000019   107.174046
	   73 B(25,24,26)     =    106.286051     0.000000     0.000031   106.286082
	   74 D(1,9,15,16)    =    148.046328     0.000000    -0.000308   148.046020
	   75 D(1,9,15,17)    =     32.860593     0.000000    -0.000315    32.860278
	   76 D(1,9,15,18)    =    -90.740817     0.000000    -0.000162   -90.740979
	   77 D(2,1,9,10)     =    174.842264     0.000000    -0.001471   174.840793
	   78 D(2,1,9,11)     =     59.378722    -0.000000    -0.001540    59.377182
	   79 D(2,1,9,15)     =    -61.635248    -0.000000    -0.001686   -61.636934
	   80 D(3,1,9,10)     =     55.407550     0.000000    -0.001490    55.406061
	   81 D(3,1,9,11)     =    -60.055993    -0.000000    -0.001559   -60.057551
	   82 D(3,1,9,15)     =    178.930037    -0.000000    -0.001705   178.928333
	   83 D(4,1,9,10)     =    -65.558895    -0.000000    -0.001536   -65.560431
	   84 D(4,1,9,11)     =    178.977562    -0.000000    -0.001605   178.975957
	   85 D(4,1,9,15)     =     57.963592    -0.000000    -0.001751    57.961841
	   86 D(5,12,24,21)   =    -68.265358     0.000000     0.000289   -68.265069
	   87 D(5,12,24,25)   =     55.683177     0.000000     0.000242    55.683420
	   88 D(5,12,24,26)   =    171.481339     0.000000     0.000269   171.481607
	   89 D(6,5,12,13)    =   -176.916403     0.000000     0.000417  -176.915986
	   90 D(6,5,12,14)    =    -60.737339     0.000000     0.000425   -60.736914
	   91 D(6,5,12,24)    =     61.381722     0.000000     0.000383    61.382105
	   92 D(7,5,12,13)    =     62.909996     0.000000     0.000418    62.910414
	   93 D(7,5,12,14)    =    179.089060     0.000000     0.000426   179.089486
	   94 D(7,5,12,24)    =    -58.791879     0.000000     0.000384   -58.791494
	   95 D(8,5,12,13)    =    -56.801081     0.000000     0.000406   -56.800675
	   96 D(8,5,12,14)    =     59.377983     0.000000     0.000414    59.378397
	   97 D(8,5,12,24)    =   -178.502956    -0.000000     0.000372  -178.502583
	   98 D(9,15,18,19)   =    -62.492898     0.000000     0.000198   -62.492699
	   99 D(9,15,18,20)   =   -176.806427    -0.000000     0.000078  -176.806349
	  100 D(9,15,18,21)   =     61.086815    -0.000000     0.000039    61.086854
	  101 D(10,9,15,16)   =    -87.905106    -0.000000    -0.000475   -87.905581
	  102 D(10,9,15,17)   =    156.909159     0.000000    -0.000482   156.908677
	  103 D(10,9,15,18)   =     33.307749     0.000000    -0.000328    33.307420
	  104 D(11,9,15,16)   =     27.556148    -0.000000    -0.000501    27.555647
	  105 D(11,9,15,17)   =    -87.629587    -0.000000    -0.000508   -87.630095
	  106 D(11,9,15,18)   =    148.769003    -0.000000    -0.000355   148.768648
	  107 D(12,24,21,18)  =   -177.423894     0.000000     0.003482  -177.420412
	  108 D(12,24,21,22)  =     58.597597     0.000000     0.003512    58.601109
	  109 D(12,24,21,23)  =    -56.681956     0.000000     0.003369   -56.678587
	  110 D(13,12,24,21)  =    170.085464     0.000000     0.000240   170.085704
	  111 D(13,12,24,25)  =    -65.966001    -0.000000     0.000193   -65.965808
	  112 D(13,12,24,26)  =     49.832160    -0.000000     0.000220    49.832380
	  113 D(14,12,24,21)  =     54.215517     0.000000     0.000252    54.215769
	  114 D(14,12,24,25)  =    178.164052    -0.000000     0.000205   178.164257
	  115 D(14,12,24,26)  =    -66.037787    -0.000000     0.000231   -66.037555
	  116 D(15,18,21,22)  =     33.760286    -0.000000    -0.000572    33.759713
	  117 D(15,18,21,23)  =    149.215956     0.000000    -0.000496   149.215460
	  118 D(15,18,21,24)  =    -91.039104    -0.000000    -0.000581   -91.039685
	  119 D(16,15,18,19)  =     59.630973     0.000000     0.000362    59.631334
	  120 D(16,15,18,20)  =    -54.682557     0.000000     0.000241   -54.682316
	  121 D(16,15,18,21)  =   -176.789314     0.000000     0.000202  -176.789113
	  122 D(17,15,18,19)  =    173.993071     0.000000     0.000393   173.993464
	  123 D(17,15,18,20)  =     59.679541    -0.000000     0.000273    59.679814
	  124 D(17,15,18,21)  =    -62.427216     0.000000     0.000233   -62.426983
	  125 D(18,21,24,25)  =     59.440742     0.000000     0.003516    59.444258
	  126 D(18,21,24,26)  =    -56.426861     0.000000     0.003460   -56.423401
	  127 D(19,18,21,22)  =    157.384174     0.000000    -0.000667   157.383507
	  128 D(19,18,21,23)  =    -87.160156     0.000000    -0.000590   -87.160746
	  129 D(19,18,21,24)  =     32.584784     0.000000    -0.000675    32.584109
	  130 D(20,18,21,22)  =    -87.519809    -0.000000    -0.000698   -87.520507
	  131 D(20,18,21,23)  =     27.935861    -0.000000    -0.000621    27.935240
	  132 D(20,18,21,24)  =    147.680801    -0.000000    -0.000706   147.680095
	  133 D(22,21,24,25)  =    -64.537767     0.000000     0.003546   -64.534221
	  134 D(22,21,24,26)  =    179.594630     0.000000     0.003490   179.598120
	  135 D(23,21,24,25)  =   -179.817320     0.000000     0.003403  -179.813917
	  136 D(23,21,24,26)  =     64.315077    -0.000000     0.003347    64.318424
	  137 R(1,21)         =      3.432780    -0.000001    -0.000003     3.432777
	  138 R(1,24)         =      3.521813     0.000002     0.000009     3.521822
	  139 R(9,24)         =      3.445179    -0.000001     0.000003     3.445182
	 ---------------------------------------------------------------------------

  ==> Convergence Check <==

  Measures of convergence in internal coordinates in au.
  Criteria marked as inactive (o), active & met (*), and active & unmet ( ).
  --------------------------------------------------------------------------------------------- ~
   Step     Total Energy     Delta E     MAX Force     RMS Force      MAX Disp      RMS Disp    ~
  --------------------------------------------------------------------------------------------- ~
    Convergence Criteria             o    2.00e-06 *    1.00e-06 *    6.00e-06 *    4.00e-06 *  ~
  --------------------------------------------------------------------------------------------- ~
      1    -314.97791739   -3.15e+02 o    7.93e-07 *    1.88e-07 *    6.19e-05      1.75e-05    ~
  ---------------------------------------------------------------------------------------------

	Writing optimization data to binary file.
	Structure for next step:
	Cartesian Geometry (in Angstrom)
	    C    -1.2290905622   1.9440679820  -0.0031834747
	    H    -1.6854255514   2.3575042399   0.8974413202
	    H    -1.1466007944   2.7489864317  -0.7343353153
	    H    -0.2218524201   1.6246336344   0.2571967868
	    C     2.7072839606   0.9654011935   0.3649821670
	    H     2.2661111463   0.8716787456   1.3569540940
	    H     2.2421248997   1.8199811652  -0.1287734726
	    H     3.7652199720   1.1921402660   0.4960242543
	    C    -2.0769362622   0.7928635791  -0.5379702993
	    H    -1.6759698437   0.4335886667  -1.4892578350
	    H    -3.0730536571   1.1821466648  -0.7591938118
	    C     2.5142712889  -0.3030268948  -0.4599863194
	    H     3.0187065262  -0.1817612049  -1.4212316829
	    H     2.9999933524  -1.1452768449   0.0409768359
	    C    -2.2080530563  -0.3832257785   0.4380953873
	    H    -3.1850900053  -0.8520909758   0.2978088635
	    H    -2.2025599850   0.0050349751   1.4619815027
	    C    -1.1556481408  -1.4880890634   0.3186424580
	    H    -1.2350851580  -1.9483634853  -0.6717009350
	    H    -1.4229304949  -2.2677140491   1.0362403855
	    C     0.3029483087  -1.0762284972   0.5577298898
	    H     0.3368128667  -0.2879287846   1.3139634721
	    H     0.8470894275  -1.9254207872   0.9819401760
	    C     1.0471851460  -0.6496193451  -0.7064508430
	    H     0.5510576478   0.2023057516  -1.1772927375
	    H     0.9887272393  -1.4734589332  -1.4236882895
			--------------------------
			 OPTKING Finished Execution 
			--------------------------

    Structure for next step:
    Molecular point group: c1
    Full point group: C1

    Geometry (in Angstrom), charge = 0, multiplicity = 1:

    C           -1.229090013101     1.944066762097    -0.003183325788
    H           -1.685425002344     2.357503019959     0.897441469103
    H           -1.146600245285     2.748985211805    -0.734335166371
    H           -0.221851870966     1.624632414504     0.257196935704
    C            2.707284509712     0.965399973560     0.364982315929
    H            2.266111695392     0.871677525692     1.356954242883
    H            2.242125448830     1.819979945281    -0.128773323752
    H            3.765220521063     1.192139046018     0.496024403189
    C           -2.076935713105     0.792862359139    -0.537970150377
    H           -1.675969294556     0.433587446804    -1.489257686073
    H           -3.073053108033     1.182145444887    -0.759193662879
    C            2.514271837988    -0.303028114778    -0.459986170515
    H            3.018707075266    -0.181762424832    -1.421231534007
    H            2.999993901519    -1.145278064873     0.040976984815
    C           -2.208052507224    -0.383226998424     0.438095536205
    H           -3.185089456175    -0.852092195776     0.297809012428
    H           -2.202559435890     0.005033755215     1.461981651535
    C           -1.155647591725    -1.488090283374     0.318642606862
    H           -1.235084608865    -1.948364705274    -0.671700786152
    H           -1.422929945799    -2.267715269058     1.036240534334
    C            0.302948857751    -1.076229717106     0.557730038670
    H            0.336813415822    -0.287930004552     1.313963621002
    H            0.847089976609    -1.925422007091     0.981940324924
    C            1.047185695138    -0.649620565061    -0.706450694124
    H            0.551058196865     0.202304531690    -1.177292588618
    H            0.988727788358    -1.473460153094    -1.423688140632

gradient() will perform analytic gradient computation.

*** tstart() called on wr38
*** at Wed Sep 21 14:08:49 2016


         ---------------------------------------------------------
                                   SCF
            by Justin Turney, Rob Parrish, and Andy Simmonett
                              RHF Reference
                       12 Threads,  30000 MiB Core
         ---------------------------------------------------------

  ==> Geometry <==

    Molecular point group: c1
    Full point group: C1

    Geometry (in Angstrom), charge = 0, multiplicity = 1:

       Center              X                  Y                   Z               Mass       
    ------------   -----------------  -----------------  -----------------  -----------------
           C         -1.229090013101     1.944066762097    -0.003183325788    12.000000000000
           H         -1.685425002344     2.357503019959     0.897441469103     1.007825032070
           H         -1.146600245285     2.748985211805    -0.734335166371     1.007825032070
           H         -0.221851870966     1.624632414504     0.257196935704     1.007825032070
           C          2.707284509712     0.965399973560     0.364982315929    12.000000000000
           H          2.266111695392     0.871677525692     1.356954242883     1.007825032070
           H          2.242125448830     1.819979945281    -0.128773323752     1.007825032070
           H          3.765220521063     1.192139046018     0.496024403189     1.007825032070
           C         -2.076935713105     0.792862359139    -0.537970150377    12.000000000000
           H         -1.675969294556     0.433587446804    -1.489257686073     1.007825032070
           H         -3.073053108033     1.182145444887    -0.759193662879     1.007825032070
           C          2.514271837988    -0.303028114778    -0.459986170515    12.000000000000
           H          3.018707075266    -0.181762424832    -1.421231534007     1.007825032070
           H          2.999993901519    -1.145278064873     0.040976984815     1.007825032070
           C         -2.208052507224    -0.383226998424     0.438095536205    12.000000000000
           H         -3.185089456175    -0.852092195776     0.297809012428     1.007825032070
           H         -2.202559435890     0.005033755215     1.461981651535     1.007825032070
           C         -1.155647591725    -1.488090283374     0.318642606862    12.000000000000
           H         -1.235084608865    -1.948364705274    -0.671700786152     1.007825032070
           H         -1.422929945799    -2.267715269058     1.036240534334     1.007825032070
           C          0.302948857751    -1.076229717106     0.557730038670    12.000000000000
           H          0.336813415822    -0.287930004552     1.313963621002     1.007825032070
           H          0.847089976609    -1.925422007091     0.981940324924     1.007825032070
           C          1.047185695138    -0.649620565061    -0.706450694124    12.000000000000
           H          0.551058196865     0.202304531690    -1.177292588618     1.007825032070
           H          0.988727788358    -1.473460153094    -1.423688140632     1.007825032070

  Running in c1 symmetry.

  Rotational constants: A =      0.08817  B =      0.03821  C =      0.03029 [cm^-1]
  Rotational constants: A =   2643.39068  B =   1145.42846  C =    907.95983 [MHz]
  Nuclear repulsion =  406.683194388992092

  Charge       = 0
  Multiplicity = 1
  Electrons    = 66
  Nalpha       = 33
  Nbeta        = 33

  ==> Algorithm <==

  SCF Algorithm Type is DF.
  DIIS enabled.
  MOM disabled.
  Fractional occupation disabled.
  Guess Type is READ.
  Energy threshold   = 1.00e-10
  Density threshold  = 1.00e-10
  Integral threshold = 0.00e+00

  ==> Primary Basis <==

  Basis Set: AUG-CC-PVTZ
    Number of shells: 274
    Number of basis function: 782
    Number of Cartesian functions: 890
    Spherical Harmonics?: true
    Max angular momentum: 3

  ==> Pre-Iterations <==

   -------------------------------------------------------
    Irrep   Nso     Nmo     Nalpha   Nbeta   Ndocc  Nsocc
   -------------------------------------------------------
     A        782     782       0       0       0       0
   -------------------------------------------------------
    Total     782     782      33      33      33       0
   -------------------------------------------------------

  ==> Integral Setup <==

  ==> DFJK: Density-Fitted J/K Matrices <==

    J tasked:                  Yes
    K tasked:                  Yes
    wK tasked:                  No
    OpenMP threads:             12
    Integrals threads:          12
    Memory (MB):             21457
    Algorithm:                Core
    Integral Cache:           NONE
    Schwarz Cutoff:          1E-12
    Fitting Condition:       1E-12

   => Auxiliary Basis Set <=

  Basis Set: 
    Number of shells: 492
    Number of basis function: 1660
    Number of Cartesian functions: 2038
    Spherical Harmonics?: true
    Max angular momentum: 4

  Minimum eigenvalue in the overlap matrix is 1.4028271171E-06.
  Using Symmetric Orthogonalization.
  SCF Guess: Reading in previously saved MOs, projecting if necessary.

  Using orbitals from previous SCF, no projection.
  Recomputing DOCC and SOCC from number of alpha and beta electrons from previous calculation.
              A 
    DOCC [    33 ]

  ==> Iterations <==

                           Total Energy        Delta E     RMS |[F,P]|

   @DF-RHF iter   0:  -313.53290688791947   -3.13533e+02   1.29501e-07 
   @DF-RHF iter   1:  -313.53286749614028    3.93918e-05   3.03155e-08 
   @DF-RHF iter   2:  -313.53286749653898   -3.98700e-10   1.42085e-08 DIIS
   @DF-RHF iter   3:  -313.53286749660992   -7.09406e-11   4.08480e-09 DIIS
   @DF-RHF iter   4:  -313.53286749662163   -1.17097e-11   5.41084e-10 DIIS
   @DF-RHF iter   5:  -313.53286749662243   -7.95808e-13   1.94585e-10 DIIS
   @DF-RHF iter   6:  -313.53286749662243    0.00000e+00   4.37168e-11 DIIS

  ==> Post-Iterations <==

    Orbital Energies (a.u.)
    -----------------------

    Doubly Occupied:                                                      

       1A    -11.212828     2A    -11.212545     3A    -11.211240  
       4A    -11.210641     5A    -11.210098     6A    -11.209377  
       7A    -11.206891     8A    -11.205764     9A     -1.092792  
      10A     -1.057502    11A     -1.007229    12A     -0.950054  
      13A     -0.888401    14A     -0.827815    15A     -0.780813  
      16A     -0.765418    17A     -0.646257    18A     -0.617314  
      19A     -0.613369    20A     -0.593114    21A     -0.580802  
      22A     -0.569079    23A     -0.539385    24A     -0.533585  
      25A     -0.515177    26A     -0.500751    27A     -0.493491  
      28A     -0.471699    29A     -0.463830    30A     -0.460070  
      31A     -0.448871    32A     -0.434378    33A     -0.430909  

    Virtual:                                                              

      34A      0.028738    35A      0.033098    36A      0.034488  
      37A      0.035371    38A      0.046325    39A      0.048573  
      40A      0.050564    41A      0.053880    42A      0.055938  
      43A      0.068163    44A      0.070495    45A      0.071636  
      46A      0.073904    47A      0.078443    48A      0.081634  
      49A      0.091227    50A      0.098633    51A      0.103852  
      52A      0.113374    53A      0.117064    54A      0.119320  
      55A      0.124780    56A      0.127073    57A      0.135135  
      58A      0.137169    59A      0.138270    60A      0.140559  
      61A      0.145942    62A      0.147189    63A      0.150912  
      64A      0.153098    65A      0.157405    66A      0.161721  
      67A      0.165444    68A      0.167473    69A      0.173250  
      70A      0.175383    71A      0.178117    72A      0.182781  
      73A      0.185145    74A      0.188718    75A      0.195335  
      76A      0.203383    77A      0.214683    78A      0.222425  
      79A      0.223758    80A      0.229749    81A      0.231807  
      82A      0.242783    83A      0.251956    84A      0.262599  
      85A      0.270710    86A      0.273131    87A      0.280850  
      88A      0.290343    89A      0.297752    90A      0.300405  
      91A      0.306031    92A      0.309089    93A      0.313418  
      94A      0.314593    95A      0.317243    96A      0.322342  
      97A      0.327705    98A      0.331591    99A      0.336032  
     100A      0.337107   101A      0.342067   102A      0.348117  
     103A      0.349029   104A      0.355016   105A      0.357041  
     106A      0.360220   107A      0.364964   108A      0.370122  
     109A      0.371294   110A      0.375499   111A      0.378957  
     112A      0.383527   113A      0.384435   114A      0.389054  
     115A      0.392236   116A      0.393798   117A      0.396804  
     118A      0.404669   119A      0.405222   120A      0.412877  
     121A      0.417292   122A      0.420924   123A      0.428648  
     124A      0.431103   125A      0.439232   126A      0.440392  
     127A      0.442728   128A      0.448856   129A      0.454969  
     130A      0.458439   131A      0.462334   132A      0.463887  
     133A      0.467022   134A      0.473174   135A      0.476052  
     136A      0.481494   137A      0.488360   138A      0.490770  
     139A      0.496580   140A      0.498434   141A      0.503191  
     142A      0.507603   143A      0.510719   144A      0.514003  
     145A      0.517313   146A      0.518809   147A      0.525858  
     148A      0.528697   149A      0.529797   150A      0.536428  
     151A      0.539405   152A      0.541822   153A      0.545912  
     154A      0.548558   155A      0.556324   156A      0.559645  
     157A      0.563620   158A      0.568557   159A      0.571683  
     160A      0.578775   161A      0.587359   162A      0.593220  
     163A      0.598375   164A      0.603071   165A      0.605699  
     166A      0.611619   167A      0.613670   168A      0.621297  
     169A      0.623744   170A      0.627253   171A      0.634709  
     172A      0.638709   173A      0.642780   174A      0.648247  
     175A      0.648827   176A      0.654185   177A      0.658708  
     178A      0.663398   179A      0.666992   180A      0.672705  
     181A      0.681056   182A      0.685816   183A      0.691447  
     184A      0.696973   185A      0.705667   186A      0.709716  
     187A      0.715092   188A      0.718539   189A      0.723333  
     190A      0.726752   191A      0.733653   192A      0.734599  
     193A      0.738217   194A      0.743498   195A      0.750993  
     196A      0.754676   197A      0.773126   198A      0.776798  
     199A      0.790051   200A      0.793696   201A      0.805578  
     202A      0.808117   203A      0.820779   204A      0.828258  
     205A      0.835061   206A      0.843940   207A      0.849850  
     208A      0.855445   209A      0.863702   210A      0.866031  
     211A      0.871863   212A      0.879132   213A      0.879436  
     214A      0.887388   215A      0.891784   216A      0.898454  
     217A      0.906301   218A      0.909948   219A      0.914714  
     220A      0.919069   221A      0.928393   222A      0.932920  
     223A      0.934644   224A      0.938814   225A      0.944361  
     226A      0.947890   227A      0.954224   228A      0.961194  
     229A      0.965920   230A      0.976315   231A      0.981703  
     232A      0.983478   233A      0.988044   234A      0.993225  
     235A      1.000573   236A      1.002185   237A      1.005429  
     238A      1.010238   239A      1.016024   240A      1.019632  
     241A      1.029345   242A      1.033282   243A      1.035774  
     244A      1.048026   245A      1.050836   246A      1.054288  
     247A      1.057685   248A      1.065497   249A      1.071280  
     250A      1.076098   251A      1.078248   252A      1.081839  
     253A      1.094253   254A      1.100001   255A      1.105594  
     256A      1.111687   257A      1.121324   258A      1.126460  
     259A      1.129668   260A      1.137073   261A      1.142624  
     262A      1.142763   263A      1.148406   264A      1.156639  
     265A      1.158819   266A      1.161860   267A      1.167408  
     268A      1.170764   269A      1.179889   270A      1.181154  
     271A      1.184655   272A      1.186386   273A      1.198569  
     274A      1.201072   275A      1.209016   276A      1.212357  
     277A      1.217171   278A      1.223125   279A      1.226817  
     280A      1.233895   281A      1.244745   282A      1.246553  
[...]
	 Skipping Hessian update for step 11.
	Denominators (dg)(dq) or (dq)(dq) are very small.
	 Skipping Hessian update for step 10.
	Denominators (dg)(dq) or (dq)(dq) are very small.
	 Skipping Hessian update for step 9.
	Denominators (dg)(dq) or (dq)(dq) are very small.
	 Skipping Hessian update for step 8.
	Denominators (dg)(dq) or (dq)(dq) are very small.
	 Skipping Hessian update for step 7.
	Denominators (dg)(dq) or (dq)(dq) are very small.
	 Skipping Hessian update for step 6.
	Denominators (dg)(dq) or (dq)(dq) are very small.
	 Skipping Hessian update for step 5.
	Denominators (dg)(dq) or (dq)(dq) are very small.
	 Skipping Hessian update for step 4.
	Denominators (dg)(dq) or (dq)(dq) are very small.
	 Skipping Hessian update for step 3.
	Denominators (dg)(dq) or (dq)(dq) are very small.
	 Skipping Hessian update for step 2.
	Steps to be used in Hessian update: 1
	Taking RFO optimization step.
	Going to follow RFO solution 1.
	Rejecting RFO root 1 because normalization gives large value.
	Rejecting RFO root 2 because normalization gives large value.
	Rejecting RFO root 3 because normalization gives large value.
	Rejecting RFO root 4 because normalization gives large value.
	Rejecting RFO root 5 because normalization gives large value.
	Rejecting RFO root 6 because normalization gives large value.
	Rejecting RFO root 7 because normalization gives large value.
	Rejecting RFO root 8 because normalization gives large value.
	Rejecting RFO root 9 because normalization gives large value.
	Rejecting RFO root 10 because normalization gives large value.
	Rejecting RFO root 11 because normalization gives large value.
	Rejecting RFO root 12 because normalization gives large value.
	Using RFO vector 13.
	Norm of target step-size    0.00002
	Projected energy change by RFO approximation:        -0.0000000000

	Back-transformation to cartesian coordinates...
	Successfully converged to displaced geometry.

	--- Internal Coordinate Step in ANG or DEG, aJ/ANG or AJ/DEG ---
	 ---------------------------------------------------------------------------
	   Coordinate                Previous        Force       Change         New 
	   ----------                --------       ------       ------       ------
	    1 R(1,2)          =      1.091008    -0.000010    -0.000000     1.091008
	    2 R(1,3)          =      1.090543    -0.000010    -0.000001     1.090542
	    3 R(1,4)          =      1.088286    -0.000010     0.000000     1.088286
	    4 R(1,9)          =      1.526470     0.000001    -0.000000     1.526470
	    5 R(5,6)          =      1.089691    -0.000008     0.000001     1.089692
	    6 R(5,7)          =      1.091089    -0.000008     0.000000     1.091090
	    7 R(5,8)          =      1.089868    -0.000005     0.000001     1.089869
	    8 R(5,12)         =      1.525365    -0.000002     0.000000     1.525365
	    9 R(9,10)         =      1.093071    -0.000015    -0.000000     1.093070
	   10 R(9,11)         =      1.092123    -0.000007     0.000000     1.092123
	   11 R(9,15)         =      1.533977    -0.000006    -0.000000     1.533977
	   12 R(12,13)        =      1.092316    -0.000008     0.000000     1.092316
	   13 R(12,14)        =      1.093744    -0.000009     0.000000     1.093744
	   14 R(12,24)        =      1.527486    -0.000002     0.000000     1.527487
	   15 R(15,16)        =      1.092756    -0.000007     0.000000     1.092757
	   16 R(15,17)        =      1.095044    -0.000013     0.000001     1.095045
	   17 R(15,18)        =      1.530539    -0.000000     0.000000     1.530539
	   18 R(18,19)        =      1.094963    -0.000011     0.000001     1.094963
	   19 R(18,20)        =      1.092796    -0.000007    -0.000001     1.092795
	   20 R(18,21)        =      1.534373    -0.000008    -0.000000     1.534373
	   21 R(21,22)        =      1.092911    -0.000015    -0.000000     1.092911
	   22 R(21,23)        =      1.094154    -0.000008    -0.000001     1.094152
	   23 R(21,24)        =      1.527756    -0.000003    -0.000000     1.527756
	   24 R(24,25)        =      1.092526    -0.000015    -0.000000     1.092525
	   25 R(24,26)        =      1.093873    -0.000006     0.000000     1.093873
	   26 B(1,9,10)       =    110.428285     0.000000     0.000019   110.428304
	   27 B(1,9,11)       =    107.983833     0.000000    -0.000034   107.983799
	   28 B(1,9,15)       =    113.751185    -0.000000    -0.000029   113.751156
	   29 B(2,1,3)        =    107.781857    -0.000000     0.000032   107.781889
	   30 B(2,1,4)        =    107.508277    -0.000000     0.000028   107.508305
	   31 B(2,1,9)        =    110.040054    -0.000000    -0.000033   110.040021
	   32 B(3,1,4)        =    107.881326    -0.000000    -0.000028   107.881299
	   33 B(3,1,9)        =    111.331613     0.000000     0.000019   111.331631
	   34 B(4,1,9)        =    112.118597    -0.000000    -0.000015   112.118582
	   35 B(5,12,13)      =    108.976804     0.000000    -0.000018   108.976786
	   36 B(5,12,14)      =    109.660215    -0.000000     0.000018   109.660232
	   37 B(5,12,24)      =    113.420781     0.000000    -0.000026   113.420755
	   38 B(6,5,7)        =    107.861421     0.000000     0.000032   107.861452
	   39 B(6,5,8)        =    107.543974    -0.000000    -0.000046   107.543928
	   40 B(6,5,12)       =    111.689987    -0.000000     0.000045   111.690032
	   41 B(7,5,8)        =    107.776186    -0.000000    -0.000041   107.776144
	   42 B(7,5,12)       =    110.647286    -0.000000     0.000028   110.647314
	   43 B(8,5,12)       =    111.152765     0.000000    -0.000021   111.152744
	   44 B(9,15,16)      =    108.886678    -0.000000     0.000040   108.886717
	   45 B(9,15,17)      =    108.825268    -0.000000    -0.000022   108.825246
	   46 B(9,15,18)      =    116.425051     0.000000    -0.000019   116.425032
	   47 B(10,9,11)      =    105.988822    -0.000000    -0.000005   105.988817
	   48 B(10,9,15)      =    109.458238    -0.000000     0.000057   109.458296
	   49 B(11,9,15)      =    108.917895     0.000000    -0.000009   108.917886
	   50 B(12,24,21)     =    113.436135    -0.000000    -0.000038   113.436097
	   51 B(12,24,25)     =    109.193400     0.000000     0.000102   109.193502
	   52 B(12,24,26)     =    109.148389    -0.000000    -0.000041   109.148348
	   53 B(13,12,14)     =    106.467614     0.000000     0.000034   106.467648
	   54 B(13,12,24)     =    109.071105    -0.000000     0.000017   109.071122
	   55 B(14,12,24)     =    109.008324    -0.000000    -0.000020   109.008304
	   56 B(15,18,19)     =    108.914154    -0.000000    -0.000043   108.914111
	   57 B(15,18,20)     =    107.191949     0.000000     0.000011   107.191960
	   58 B(15,18,21)     =    116.597365     0.000000     0.000012   116.597377
	   59 B(16,15,17)     =    106.060498     0.000000     0.000026   106.060524
	   60 B(16,15,18)     =    107.159607     0.000000    -0.000011   107.159596
	   61 B(17,15,18)     =    108.994468    -0.000000    -0.000008   108.994460
	   62 B(18,21,22)     =    109.322470     0.000000     0.000085   109.322555
	   63 B(18,21,23)     =    108.956037    -0.000000    -0.000049   108.955988
	   64 B(18,21,24)     =    114.148582    -0.000000     0.000116   114.148697
	   65 B(19,18,20)     =    106.038602     0.000000    -0.000053   106.038548
	   66 B(19,18,21)     =    108.828279    -0.000000     0.000049   108.828329
	   67 B(20,18,21)     =    108.764830    -0.000000     0.000017   108.764847
	   68 B(21,24,25)     =    110.679588    -0.000000     0.000007   110.679594
	   69 B(21,24,26)     =    107.831810     0.000000     0.000029   107.831838
	   70 B(22,21,23)     =    106.028766    -0.000000     0.000021   106.028787
	   71 B(22,21,24)     =    110.858485     0.000000    -0.000071   110.858413
	   72 B(23,21,24)     =    107.174027     0.000000    -0.000113   107.173915
	   73 B(25,24,26)     =    106.286053    -0.000000    -0.000063   106.285991
	   74 D(1,9,15,16)    =    148.046344     0.000000    -0.000057   148.046287
	   75 D(1,9,15,17)    =     32.860611     0.000000    -0.000097    32.860513
	   76 D(1,9,15,18)    =    -90.740802     0.000000    -0.000054   -90.740856
	   77 D(2,1,9,10)     =    174.842272     0.000000    -0.000246   174.842027
	   78 D(2,1,9,11)     =     59.378728     0.000000    -0.000230    59.378497
	   79 D(2,1,9,15)     =    -61.635240    -0.000000    -0.000176   -61.635416
	   80 D(3,1,9,10)     =     55.407558     0.000000    -0.000276    55.407282
	   81 D(3,1,9,11)     =    -60.055986    -0.000000    -0.000261   -60.056247
	   82 D(3,1,9,15)     =    178.930047    -0.000000    -0.000207   178.929840
	   83 D(4,1,9,10)     =    -65.558886    -0.000000    -0.000243   -65.559129
	   84 D(4,1,9,11)     =    178.977569    -0.000000    -0.000228   178.977342
	   85 D(4,1,9,15)     =     57.963602    -0.000000    -0.000173    57.963429
	   86 D(5,12,24,21)   =    -68.265355     0.000000    -0.000173   -68.265528
	   87 D(5,12,24,25)   =     55.683178     0.000000    -0.000114    55.683064
	   88 D(5,12,24,26)   =    171.481341     0.000000    -0.000155   171.481186
	   89 D(6,5,12,13)    =   -176.916392     0.000000    -0.000072  -176.916464
	   90 D(6,5,12,14)    =    -60.737328     0.000000    -0.000032   -60.737359
	   91 D(6,5,12,24)    =     61.381734    -0.000000    -0.000063    61.381671
	   92 D(7,5,12,13)    =     62.910008     0.000000    -0.000161    62.909847
	   93 D(7,5,12,14)    =    179.089072     0.000000    -0.000121   179.088952
	   94 D(7,5,12,24)    =    -58.791866     0.000000    -0.000152   -58.792018
	   95 D(8,5,12,13)    =    -56.801070     0.000000    -0.000114   -56.801184
	   96 D(8,5,12,14)    =     59.377995     0.000000    -0.000074    59.377921
	   97 D(8,5,12,24)    =   -178.502944    -0.000000    -0.000105  -178.503048
	   98 D(9,15,18,19)   =    -62.492924     0.000000    -0.000070   -62.492994
	   99 D(9,15,18,20)   =   -176.806452     0.000000     0.000008  -176.806443
	  100 D(9,15,18,21)   =     61.086789     0.000000    -0.000030    61.086759
	  101 D(10,9,15,16)   =    -87.905089    -0.000000    -0.000009   -87.905098
	  102 D(10,9,15,17)   =    156.909178    -0.000000    -0.000049   156.909129
	  103 D(10,9,15,18)   =     33.307765    -0.000000    -0.000006    33.307760
	  104 D(11,9,15,16)   =     27.556165    -0.000000     0.000011    27.556177
	  105 D(11,9,15,17)   =    -87.629568    -0.000000    -0.000029   -87.629597
	  106 D(11,9,15,18)   =    148.769019    -0.000000     0.000015   148.769034
	  107 D(12,24,21,18)  =   -177.423876     0.000000     0.000086  -177.423790
	  108 D(12,24,21,22)  =     58.597614     0.000000    -0.000059    58.597556
	  109 D(12,24,21,23)  =    -56.681940     0.000000     0.000017   -56.681923
	  110 D(13,12,24,21)  =    170.085467     0.000000    -0.000144   170.085323
	  111 D(13,12,24,25)  =    -65.965999    -0.000000    -0.000086   -65.966085
	  112 D(13,12,24,26)  =     49.832164    -0.000000    -0.000127    49.832037
	  113 D(14,12,24,21)  =     54.215519     0.000000    -0.000183    54.215337
	  114 D(14,12,24,25)  =    178.164053    -0.000000    -0.000124   178.163928
	  115 D(14,12,24,26)  =    -66.037784     0.000000    -0.000165   -66.037950
	  116 D(15,18,21,22)  =     33.760286     0.000000     0.000054    33.760340
	  117 D(15,18,21,23)  =    149.215958     0.000000     0.000099   149.216057
	  118 D(15,18,21,24)  =    -91.039104    -0.000000    -0.000004   -91.039109
	  119 D(16,15,18,19)  =     59.630948     0.000000    -0.000040    59.630909
	  120 D(16,15,18,20)  =    -54.682580     0.000000     0.000039   -54.682541
	  121 D(16,15,18,21)  =   -176.789339     0.000000     0.000000  -176.789339
	  122 D(17,15,18,19)  =    173.993044     0.000000    -0.000019   173.993025
	  123 D(17,15,18,20)  =     59.679516     0.000000     0.000059    59.679576
	  124 D(17,15,18,21)  =    -62.427243     0.000000     0.000021   -62.427222
	  125 D(18,21,24,25)  =     59.440765     0.000000    -0.000025    59.440740
	  126 D(18,21,24,26)  =    -56.426842     0.000000     0.000030   -56.426813
	  127 D(19,18,21,22)  =    157.384176     0.000000     0.000046   157.384222
	  128 D(19,18,21,23)  =    -87.160152     0.000000     0.000091   -87.160061
	  129 D(19,18,21,24)  =     32.584786    -0.000000    -0.000012    32.584773
	  130 D(20,18,21,22)  =    -87.519808    -0.000000     0.000018   -87.519791
	  131 D(20,18,21,23)  =     27.935864    -0.000000     0.000063    27.935926
	  132 D(20,18,21,24)  =    147.680801    -0.000000    -0.000040   147.680761
	  133 D(22,21,24,25)  =    -64.537745     0.000000    -0.000170   -64.537915
	  134 D(22,21,24,26)  =    179.594648     0.000000    -0.000115   179.594533
	  135 D(23,21,24,25)  =   -179.817299     0.000000    -0.000094  -179.817393
	  136 D(23,21,24,26)  =     64.315093     0.000000    -0.000039    64.315054
	  137 R(1,21)         =      3.432780     0.000000    -0.000000     3.432780
	  138 R(1,24)         =      3.521813     0.000003     0.000002     3.521814
	  139 R(9,24)         =      3.445179    -0.000002     0.000001     3.445180
	 ---------------------------------------------------------------------------

  ==> Convergence Check <==

  Measures of convergence in internal coordinates in au.
  Criteria marked as inactive (o), active & met (*), and active & unmet ( ).
  ---------------------------------------------------------------------------------------------
   Step     Total Energy     Delta E     MAX Force     RMS Force      MAX Disp      RMS Disp   
  ---------------------------------------------------------------------------------------------
    Convergence Criteria             o    2.00e-06 *    1.00e-06 *    6.00e-06 *    4.00e-06 *
  ---------------------------------------------------------------------------------------------
     14    -314.97791739   -2.17e-09 o    1.82e-06 *    4.76e-07 *    4.82e-06 *    1.56e-06 *  ~
  ---------------------------------------------------------------------------------------------


  **** Optimization is complete! (in 14 steps) ****

  ==> Optimization Summary <==

  Measures of convergence in internal coordinates in au.
  --------------------------------------------------------------------------------------------------------------- ~
   Step         Total Energy             Delta E       MAX Force       RMS Force        MAX Disp        RMS Disp  ~
  --------------------------------------------------------------------------------------------------------------- ~
      1    -314.977917392246   -314.977917392246      0.00000079      0.00000019      0.00006189      0.00001750  ~
      2    -314.977917391838      0.000000000408      0.00000117      0.00000034      0.00005665      0.00001420  ~
      3    -314.977917387466      0.000000004372      0.00000073      0.00000017      0.00003579      0.00001355  ~
      4    -314.977917387973     -0.000000000507      0.00000096      0.00000020      0.00003507      0.00001045  ~
      5    -314.977917392116     -0.000000004142      0.00000059      0.00000017      0.00001767      0.00000678  ~
      6    -314.977917386786      0.000000005329      0.00000204      0.00000050      0.00003236      0.00001368  ~
      7    -314.977917390609     -0.000000003822      0.00000146      0.00000035      0.00001587      0.00000459  ~
      8    -314.977917386695      0.000000003914      0.00000141      0.00000029      0.00001076      0.00000349  ~
      9    -314.977917388309     -0.000000001615      0.00000291      0.00000071      0.00031748      0.00011091  ~
     10    -314.977917384353      0.000000003957      0.00001887      0.00000311      0.00030706      0.00010863  ~
     11    -314.977917388043     -0.000000003691      0.00000073      0.00000013      0.00000962      0.00000256  ~
     12    -314.977917391308     -0.000000003265      0.00000049      0.00000010      0.00001470      0.00000524  ~
     13    -314.977917387517      0.000000003791      0.00000163      0.00000035      0.00000794      0.00000188  ~
     14    -314.977917389685     -0.000000002167      0.00000182      0.00000048      0.00000482      0.00000156  ~
  --------------------------------------------------------------------------------------------------------------- ~

	Writing optimization data to binary file.
	Final energy is   -314.9779173896846
	Final (previous) structure:
	Cartesian Geometry (in Angstrom)
	    C    -1.2290371563   1.9440624409  -0.0031837425
	    H    -1.6853446913   2.3574883237   0.8974610179
	    H    -1.1465604002   2.7489927874  -0.7343255696
	    H    -0.2217938047   1.6246148211   0.2571635043
	    C     2.7072214518   0.9654407567   0.3649687808
	    H     2.2660309202   0.8717309007   1.3569345938
	    H     2.2420488054   1.8199961265  -0.1288177218
	    H     3.7651489339   1.1922122267   0.4960267996
	    C    -2.0769074640   0.7928745650  -0.5379672338
	    H    -1.6759540320   0.4335941435  -1.4892595923
	    H    -3.0730187347   1.1821794537  -0.7591829898
	    C     2.5142601833  -0.3030130124  -0.4599726907
	    H     3.0187058894  -0.1817536624  -1.4212137498
	    H     3.0000013980  -1.1452364158   0.0410172166
	    C    -2.2080445669  -0.3832146061   0.4380971997
	    H    -3.1850897462  -0.8520622324   0.2978077570
	    H    -2.2025462601   0.0050431323   1.4619854039
	    C    -1.1556602983  -1.4880975818   0.3186422505
	    H    -1.2351097087  -1.9483719098  -0.6717005361
	    H    -1.4229579304  -2.2677161590   1.0362416948
	    C     0.3029461955  -1.0762656120   0.5577275167
	    H     0.3368284773  -0.2879735697   1.3139692936
	    H     0.8470740849  -1.9254714058   0.9819282295
	    C     1.0471880822  -0.6496565275  -0.7064509781
	    H     0.5510401697   0.2022444184  -1.1773168583
	    H     0.9887655832  -1.4735118230  -1.4236734617
	Saving final (previous) structure.
			--------------------------
			 OPTKING Finished Execution 
			--------------------------

    Final optimized geometry and variables:
    Molecular point group: c1
    Full point group: C1

    Geometry (in Angstrom), charge = 0, multiplicity = 1:

    C           -1.229037156254     1.944062440879    -0.003183742513
    H           -1.685344691290     2.357488323743     0.897461017916
    H           -1.146560400230     2.748992787362    -0.734325569591
    H           -0.221793804730     1.624614821105     0.257163504318
    C            2.707221451806     0.965440756656     0.364968780750
    H            2.266030920172     0.871730900700     1.356934593767
    H            2.242048805387     1.819996126492    -0.128817721796
    H            3.765148933900     1.192212226685     0.496026799637
    C           -2.076907463996     0.792874565025    -0.537967233821
    H           -1.675954031970     0.433594143509    -1.489259592261
    H           -3.073018734747     1.182179453750    -0.759182989812
    C            2.514260183297    -0.303013012401    -0.459972690719
    H            3.018705889417    -0.181753662386    -1.421213749827
    H            3.000001398030    -1.145236415778     0.041017216561
    C           -2.208044566905    -0.383214606064     0.438097199737
    H           -3.185089746241    -0.852062232405     0.297807756984
    H           -2.202546260084     0.005043132263     1.461985403915
    C           -1.155660298258    -1.488097581760     0.318642250529
    H           -1.235109708708    -1.948371909768    -0.671700536147
    H           -1.422957930353    -2.267716158955     1.036241694802
    C            0.302946195543    -1.076265611952     0.557727516663
    H            0.336828477319    -0.287973569705     1.313969293584
    H            0.847074084885    -1.925471405772     0.981928229494
    C            1.047188082213    -0.649656527480    -0.706450978102
    H            0.551040169697     0.202244418405    -1.177316858291
    H            0.988765583194    -1.473511823029    -1.423673461657

	Cleaning optimization helper files.

*** Psi4 exiting successfully. Buy a developer a beer!
