    -----------------------------------------------------------------------
          Psi4: An Open-Source Ab Initio Electronic Structure Package
                              Psi4 1.0.0 Driver

                          Git: Rev {master} 6a9a71b dirty

    J. M. Turney, A. C. Simmonett, R. M. Parrish, E. G. Hohenstein,
    F. A. Evangelista, J. T. Fermann, B. J. Mintz, L. A. Burns, J. J. Wilke,
    M. L. Abrams, N. J. Russ, M. L. Leininger, C. L. Janssen, E. T. Seidl,
    W. D. Allen, H. F. Schaefer, R. A. King, E. F. Valeev, C. D. Sherrill,
    and T. D. Crawford, WIREs Comput. Mol. Sci. 2, 556-565 (2012)
    (doi: 10.1002/wcms.93)

                         Additional Contributions by
    A. E. DePrince, U. Bozkaya, A. Yu. Sokolov, D. G. A. Smith, R. Di Remigio,
    R. M. Richard, J. F. Gonthier, H. R. McAlexander, M. Saitow, and
    B. P. Pritchard
    -----------------------------------------------------------------------


    Psi4 started on: Wed Sep 21 04:57:33 2016

    Process ID:  26388
    PSI4DATADIR: /usr/local/hpc5/psi4conda/share/psi4
    Memory level set to 256.000 MB

  ==> Input File <==

--------------------------------------------------------------------------
memory 60 Gb

molecule molecule_76_psi {
0 1
C            2.043370734008     0.739364904400    -1.376062374840
H            0.996335750574     0.559565723437    -1.617476005745
H            2.598850560967     0.750667843789    -2.313926087328
H            2.117836290001     1.732087764855    -0.929295894049
C           -2.043339218208    -0.739411458255    -1.376062380825
H           -2.598788929075    -0.750746931607    -2.313942608442
H           -2.117811884661    -1.732120093503    -0.929268258353
H           -0.996299052692    -0.559612177481    -1.617447879019
C            2.591065206398    -0.325412276183    -0.432409201324
H            3.667069036550    -0.176516789717    -0.313955074575
H            2.465328122597    -1.311211878788    -0.888945194627
C           -2.591064684157     0.325392224266    -0.432457606719
H           -2.465327874706     1.311175080191    -0.889025764591
H           -3.667067635733     0.176491422306    -0.314017364235
C            1.944352985504    -0.342489369399     0.952345853848
H            2.128457114704     0.615044802150     1.450627860228
H            2.454090857780    -1.101076708347     1.550539216080
C            0.436559590752    -0.628069573363     0.950302595188
H            0.175316175659    -1.202654860746     1.843034909802
H            0.189822165011    -1.267376821512     0.098999216800
C           -0.436577907427     0.628105423882     0.950261085940
H           -0.175344770200     1.202743694369     1.842961940926
H           -0.189831736182     1.267361896922     0.098923025643
C           -1.944370364282     0.342523366212     0.952304334092
H           -2.128477046108    -0.614991188681     1.450618389346
H           -2.454113596304     1.101130625663     1.550464827780
}

set globals {
  reference rhf
  g_convergence gau_verytight
  basis aug-cc-pvtz
  freeze_core true
  scf_type df
  mp_type df
}
optimize('mp2')
--------------------------------------------------------------------------
/usr/local/hpc5/psi4conda/lib/python2.7/site-packages/v2rdm_casscf/v2rdm_casscf.so loaded.

  Memory set to  60.000 GiB by Python script.
gradient() will perform analytic gradient computation.

*** tstart() called on wr37
*** at Wed Sep 21 04:57:34 2016


         ---------------------------------------------------------
                                   SCF
            by Justin Turney, Rob Parrish, and Andy Simmonett
                              RHF Reference
                       12 Threads,  60000 MiB Core
         ---------------------------------------------------------

  ==> Geometry <==

    Molecular point group: c1
    Full point group: C1

    Geometry (in Angstrom), charge = 0, multiplicity = 1:

       Center              X                  Y                   Z               Mass       
    ------------   -----------------  -----------------  -----------------  -----------------
           C          2.043370734008     0.739364904400    -1.376062374840    12.000000000000
           H          0.996335750574     0.559565723437    -1.617476005745     1.007825032070
           H          2.598850560967     0.750667843789    -2.313926087328     1.007825032070
           H          2.117836290001     1.732087764855    -0.929295894049     1.007825032070
           C         -2.043339218208    -0.739411458255    -1.376062380825    12.000000000000
           H         -2.598788929075    -0.750746931607    -2.313942608442     1.007825032070
           H         -2.117811884661    -1.732120093503    -0.929268258353     1.007825032070
           H         -0.996299052692    -0.559612177481    -1.617447879019     1.007825032070
           C          2.591065206398    -0.325412276183    -0.432409201324    12.000000000000
           H          3.667069036550    -0.176516789717    -0.313955074575     1.007825032070
           H          2.465328122597    -1.311211878788    -0.888945194627     1.007825032070
           C         -2.591064684157     0.325392224266    -0.432457606719    12.000000000000
           H         -2.465327874706     1.311175080191    -0.889025764591     1.007825032070
           H         -3.667067635733     0.176491422306    -0.314017364235     1.007825032070
           C          1.944352985504    -0.342489369399     0.952345853848    12.000000000000
           H          2.128457114704     0.615044802150     1.450627860228     1.007825032070
           H          2.454090857780    -1.101076708347     1.550539216080     1.007825032070
           C          0.436559590752    -0.628069573363     0.950302595188    12.000000000000
           H          0.175316175659    -1.202654860746     1.843034909802     1.007825032070
           H          0.189822165011    -1.267376821512     0.098999216800     1.007825032070
           C         -0.436577907427     0.628105423882     0.950261085940    12.000000000000
           H         -0.175344770200     1.202743694369     1.842961940926     1.007825032070
           H         -0.189831736182     1.267361896922     0.098923025643     1.007825032070
           C         -1.944370364282     0.342523366212     0.952304334092    12.000000000000
           H         -2.128477046108    -0.614991188681     1.450618389346     1.007825032070
           H         -2.454113596304     1.101130625663     1.550464827780     1.007825032070

  Running in c1 symmetry.

  Rotational constants: A =      0.09498  B =      0.03435  C =      0.02952 [cm^-1]
  Rotational constants: A =   2847.35917  B =   1029.90366  C =    884.98114 [MHz]
  Nuclear repulsion =  403.933115580426545

  Charge       = 0
  Multiplicity = 1
  Electrons    = 66
  Nalpha       = 33
  Nbeta        = 33

  ==> Algorithm <==

  SCF Algorithm Type is DF.
  DIIS enabled.
  MOM disabled.
  Fractional occupation disabled.
  Guess Type is SAD.
  Energy threshold   = 1.00e-10
  Density threshold  = 1.00e-10
  Integral threshold = 0.00e+00

  ==> Primary Basis <==

  Basis Set: AUG-CC-PVTZ
    Number of shells: 274
    Number of basis function: 782
    Number of Cartesian functions: 890
    Spherical Harmonics?: true
    Max angular momentum: 3

  ==> Pre-Iterations <==

   -------------------------------------------------------
    Irrep   Nso     Nmo     Nalpha   Nbeta   Ndocc  Nsocc
   -------------------------------------------------------
     A        782     782       0       0       0       0
   -------------------------------------------------------
    Total     782     782      33      33      33       0
   -------------------------------------------------------

  ==> Integral Setup <==

  ==> DFJK: Density-Fitted J/K Matrices <==

    J tasked:                  Yes
    K tasked:                  Yes
    wK tasked:                  No
    OpenMP threads:             12
    Integrals threads:          12
    Memory (MB):             42915
    Algorithm:                Core
    Integral Cache:           NONE
    Schwarz Cutoff:          1E-12
    Fitting Condition:       1E-12

   => Auxiliary Basis Set <=

  Basis Set: 
    Number of shells: 492
    Number of basis function: 1660
    Number of Cartesian functions: 2038
    Spherical Harmonics?: true
    Max angular momentum: 4

  Minimum eigenvalue in the overlap matrix is 1.4984476382E-06.
  Using Symmetric Orthogonalization.
  SCF Guess: Superposition of Atomic Densities via on-the-fly atomic UHF.

  ==> Iterations <==

                           Total Energy        Delta E     RMS |[F,P]|

   @DF-RHF iter   0:  -317.01069280606538   -3.17011e+02   7.02059e-03 
   @DF-RHF iter   1:  -313.28995067095269    3.72074e+00   7.16011e-04 
   @DF-RHF iter   2:  -313.50195289009417   -2.12002e-01   2.63234e-04 DIIS
   @DF-RHF iter   3:  -313.52844522071047   -2.64923e-02   1.04051e-04 DIIS
   @DF-RHF iter   4:  -313.53358519373859   -5.13997e-03   1.62597e-05 DIIS
   @DF-RHF iter   5:  -313.53377172078132   -1.86527e-04   4.30138e-06 DIIS
   @DF-RHF iter   6:  -313.53378279977807   -1.10790e-05   1.37677e-06 DIIS
   @DF-RHF iter   7:  -313.53378386034666   -1.06057e-06   2.36221e-07 DIIS
   @DF-RHF iter   8:  -313.53378390638358   -4.60369e-08   5.72916e-08 DIIS
   @DF-RHF iter   9:  -313.53378390862798   -2.24441e-09   1.81687e-08 DIIS
   @DF-RHF iter  10:  -313.53378390883728   -2.09297e-10   5.15354e-09 DIIS
   @DF-RHF iter  11:  -313.53378390885342   -1.61435e-11   1.33201e-09 DIIS
   @DF-RHF iter  12:  -313.53378390885536   -1.93268e-12   3.68031e-10 DIIS
   @DF-RHF iter  13:  -313.53378390885570   -3.41061e-13   1.14378e-10 DIIS
   @DF-RHF iter  14:  -313.53378390885524    4.54747e-13   2.73618e-11 DIIS

  ==> Post-Iterations <==

    Orbital Energies (a.u.)
    -----------------------

    Doubly Occupied:                                                      

       1A    -11.213236     2A    -11.213235     3A    -11.210209  
       4A    -11.210165     5A    -11.209325     6A    -11.208758  
       7A    -11.207235     8A    -11.207234     9A     -1.092098  
      10A     -1.059342    11A     -1.005102    12A     -0.949045  
      13A     -0.893006    14A     -0.826122    15A     -0.772339  
      16A     -0.770612    17A     -0.647593    18A     -0.621031  
      19A     -0.615175    20A     -0.598096    21A     -0.571358  
      22A     -0.563688    23A     -0.543821    24A     -0.524754  
      25A     -0.518552    26A     -0.509780    27A     -0.489280  
      28A     -0.477607    29A     -0.460871    30A     -0.459975  
      31A     -0.447360    32A     -0.435324    33A     -0.429857  

    Virtual:                                                              

      34A      0.029199    35A      0.032818    36A      0.034217  
      37A      0.035237    38A      0.046702    39A      0.046799  
      40A      0.051648    41A      0.052731    42A      0.055266  
      43A      0.066541    44A      0.070999    45A      0.072527  
      46A      0.074832    47A      0.075026    48A      0.087755  
      49A      0.094314    50A      0.098090    51A      0.101477  
      52A      0.115824    53A      0.116937    54A      0.120910  
      55A      0.123525    56A      0.129025    57A      0.131288  
      58A      0.135425    59A      0.137105    60A      0.141035  
      61A      0.143369    62A      0.147997    63A      0.149719  
      64A      0.153638    65A      0.155680    66A      0.157123  
      67A      0.165238    68A      0.168744    69A      0.170782  
      70A      0.173943    71A      0.177187    72A      0.185419  
      73A      0.187275    74A      0.190582    75A      0.196466  
      76A      0.198566    77A      0.217537    78A      0.221677  
      79A      0.229503    80A      0.230879    81A      0.238097  
      82A      0.246927    83A      0.251148    84A      0.252308  
      85A      0.261867    86A      0.276206    87A      0.282624  
      88A      0.283884    89A      0.291858    90A      0.300227  
      91A      0.300537    92A      0.303525    93A      0.307369  
      94A      0.308486    95A      0.318276    96A      0.322666  
      97A      0.325797    98A      0.328579    99A      0.330769  
     100A      0.343831   101A      0.344438   102A      0.350543  
     103A      0.351477   104A      0.351554   105A      0.358537  
     106A      0.362728   107A      0.364181   108A      0.367930  
     109A      0.372271   110A      0.377225   111A      0.377588  
     112A      0.381877   113A      0.385539   114A      0.388400  
     115A      0.393953   116A      0.395533   117A      0.400302  
     118A      0.406261   119A      0.406812   120A      0.415629  
     121A      0.417586   122A      0.419154   123A      0.423705  
     124A      0.431150   125A      0.437708   126A      0.440257  
     127A      0.444494   128A      0.447830   129A      0.456631  
     130A      0.458286   131A      0.461173   132A      0.461463  
     133A      0.463998   134A      0.466532   135A      0.473753  
     136A      0.478382   137A      0.483535   138A      0.488377  
     139A      0.489252   140A      0.492375   141A      0.497541  
     142A      0.503616   143A      0.507815   144A      0.510787  
     145A      0.515755   146A      0.519253   147A      0.521086  
     148A      0.529705   149A      0.536989   150A      0.540962  
     151A      0.543052   152A      0.551299   153A      0.552159  
     154A      0.553715   155A      0.555947   156A      0.558801  
     157A      0.560500   158A      0.566862   159A      0.572107  
     160A      0.577511   161A      0.579908   162A      0.588281  
     163A      0.594535   164A      0.601816   165A      0.601931  
     166A      0.606935   167A      0.608420   168A      0.612770  
     169A      0.620225   170A      0.623095   171A      0.630325  
     172A      0.635252   173A      0.636616   174A      0.645342  
     175A      0.646380   176A      0.658409   177A      0.661380  
     178A      0.663134   179A      0.676460   180A      0.677649  
     181A      0.681696   182A      0.685356   183A      0.689047  
     184A      0.692510   185A      0.700315   186A      0.701563  
     187A      0.709387   188A      0.711918   189A      0.715189  
     190A      0.718424   191A      0.727243   192A      0.730828  
     193A      0.733705   194A      0.743060   195A      0.752027  
     196A      0.759348   197A      0.772950   198A      0.774934  
     199A      0.794888   200A      0.798740   201A      0.807371  
     202A      0.809183   203A      0.818624   204A      0.829856  
     205A      0.832710   206A      0.844702   207A      0.847558  
     208A      0.850554   209A      0.854757   210A      0.859392  
     211A      0.868914   212A      0.871176   213A      0.872266  
     214A      0.884135   215A      0.898089   216A      0.900131  
     217A      0.908591   218A      0.910822   219A      0.915293  
     220A      0.916862   221A      0.922069   222A      0.932319  
     223A      0.933110   224A      0.940729   225A      0.941299  
     226A      0.942845   227A      0.949851   228A      0.951272  
     229A      0.955423   230A      0.959461   231A      0.974321  
     232A      0.977436   233A      0.979313   234A      0.992886  
     235A      1.002176   236A      1.002763   237A      1.004824  
     238A      1.008939   239A      1.013471   240A      1.014191  
     241A      1.021018   242A      1.024690   243A      1.035138  
     244A      1.040385   245A      1.043684   246A      1.047453  
     247A      1.057497   248A      1.058066   249A      1.063504  
     250A      1.081819   251A      1.082630   252A      1.086545  
     253A      1.097258   254A      1.099705   255A      1.100403  
     256A      1.107486   257A      1.117341   258A      1.117764  
     259A      1.123107   260A      1.128800   261A      1.128833  
     262A      1.145469   263A      1.145848   264A      1.152239  
     265A      1.159598   266A      1.160439   267A      1.166341  
     268A      1.173754   269A      1.174651   270A      1.181911  
     271A      1.184421   272A      1.191648   273A      1.200228  
     274A      1.205446   275A      1.211666   276A      1.221014  
     277A      1.225324   278A      1.234156   279A      1.238729  
     280A      1.243742   281A      1.252500   282A      1.256673  
     283A      1.259294   284A      1.260806   285A      1.263624  
     286A      1.264375   287A      1.273329   288A      1.278014  
     289A      1.280496   290A      1.283932   291A      1.291468  
     292A      1.294761   293A      1.295171   294A      1.313257  
     295A      1.313998   296A      1.322780   297A      1.338851  
     298A      1.342978   299A      1.347215   300A      1.351845  
     301A      1.363285   302A      1.365892   303A      1.375003  
     304A      1.377184   305A      1.383872   306A      1.386044  
     307A      1.387105   308A      1.394151   309A      1.404836  
     310A      1.414959   311A      1.419624   312A      1.427459  
     313A      1.441501   314A      1.449522   315A      1.451471  
     316A      1.459504   317A      1.465605   318A      1.468051  
     319A      1.482763   320A      1.484636   321A      1.494722  
     322A      1.495180   323A      1.511120   324A      1.518749  
     325A      1.524573   326A      1.534253   327A      1.549624  
     328A      1.557364   329A      1.562598   330A      1.569708  
     331A      1.574750   332A      1.578946   333A      1.588160  
     334A      1.592703   335A      1.600168   336A      1.607081  
     337A      1.610695   338A      1.620685   339A      1.624105  
     340A      1.627058   341A      1.634023   342A      1.646901  
     343A      1.657935   344A      1.663729   345A      1.670140  
     346A      1.673564   347A      1.676331   348A      1.684567  
     349A      1.687046   350A      1.701349   351A      1.708694  
     352A      1.716403   353A      1.719222   354A      1.724998  
     355A      1.730405   356A      1.734891   357A      1.741994  
     358A      1.742158   359A      1.744645   360A      1.756974  
     361A      1.759440   362A      1.769367   363A      1.770317  
     364A      1.783442   365A      1.786814   366A      1.794862  
     367A      1.804552   368A      1.805142   369A      1.818322  
     370A      1.818478   371A      1.820929   372A      1.828920  
     373A      1.830049   374A      1.843181   375A      1.846110  
     376A      1.849645   377A      1.856620   378A      1.861747  
     379A      1.874352   380A      1.876333   381A      1.881447  
     382A      1.889874   383A      1.897256   384A      1.899048  
     385A      1.913519   386A      1.920176   387A      1.922043  
     388A      1.937958   389A      1.939244   390A      1.946257  
     391A      1.951858   392A      1.955170   393A      1.963444  
     394A      1.964946   395A      1.972134   396A      1.975812  
     397A      1.981272   398A      1.986101   399A      1.995169  
     400A      2.013830   401A      2.027962   402A      2.034131  
     403A      2.039231   404A      2.046473   405A      2.049439  
     406A      2.054492   407A      2.054700   408A      2.062727  
     409A      2.075840   410A      2.084584   411A      2.092870  
     412A      2.098187   413A      2.106517   414A      2.106698  
     415A      2.111978   416A      2.124621   417A      2.130748  
     418A      2.133774   419A      2.139145   420A      2.150620  
     421A      2.158965   422A      2.159513   423A      2.183613  
     424A      2.195015   425A      2.198660   426A      2.226633  
     427A      2.227822   428A      2.236815   429A      2.246677  
     430A      2.249476   431A      2.254055   432A      2.275980  
     433A      2.284641   434A      2.290238   435A      2.292407  
     436A      2.307544   437A      2.310348   438A      2.314522  
     439A      2.323783   440A      2.345540   441A      2.347464  
     442A      2.349196   443A      2.356520   444A      2.366360  
     445A      2.371637   446A      2.377833   447A      2.387387  
     448A      2.390084   449A      2.404222   450A      2.422348  
     451A      2.429107   452A      2.439243   453A      2.455546  
     454A      2.472245   455A      2.481404   456A      2.482056  
     457A      2.490803   458A      2.491658   459A      2.508491  
     460A      2.516183   461A      2.530011   462A      2.530142  
     463A      2.536479   464A      2.548543   465A      2.558837  
     466A      2.581642   467A      2.584925   468A      2.595826  
     469A      2.612530   470A      2.623180   471A      2.625212  
     472A      2.655800   473A      2.659195   474A      2.689047  
     475A      2.718698   476A      2.725270   477A      2.731126  
     478A      2.741009   479A      2.764629   480A      2.778122  
     481A      2.797839   482A      2.798814   483A      2.808886  
     484A      2.809724   485A      2.978540   486A      2.987899  
     487A      3.027263   488A      3.074001   489A      3.118078  
     490A      3.177802   491A      3.217768   492A      3.299700  
     493A      3.328646   494A      3.375408   495A      3.383860  
     496A      3.434838   497A      3.464684   498A      3.467122  
     499A      3.474978   500A      3.500487   501A      3.522688  
     502A      3.539323   503A      3.542869   504A      3.543853  
     505A      3.551490   506A      3.560406   507A      3.565796  
     508A      3.573123   509A      3.604775   510A      3.618645  
     511A      3.624633   512A      3.631029   513A      3.632852  
     514A      3.651337   515A      3.656997   516A      3.671289  
     517A      3.684843   518A      3.712185   519A      3.716068  
     520A      3.719923   521A      3.727552   522A      3.730289  
     523A      3.748749   524A      3.764825   525A      3.766855  
     526A      3.775304   527A      3.778089   528A      3.785432  
     529A      3.794037   530A      3.798607   531A      3.803918  
     532A      3.809618   533A      3.826784   534A      3.835675  
     535A      3.843578   536A      3.847076   537A      3.867911  
     538A      3.876091   539A      3.886749   540A      3.892591  
     541A      3.895415   542A      3.907319   543A      3.908406  
     544A      3.920216   545A      3.933899   546A      3.934327  
     547A      3.939377   548A      3.948609   549A      3.954506  
     550A      3.963443   551A      3.965710   552A      3.966953  
     553A      3.968396   554A      3.979001   555A      3.983177  
     556A      4.000062   557A      4.000488   558A      4.018806  
     559A      4.041671   560A      4.044620   561A      4.048382  
     562A      4.062454   563A      4.069453   564A      4.073938  
     565A      4.086054   566A      4.089515   567A      4.095895  
     568A      4.098415   569A      4.100998   570A      4.115728  
     571A      4.116900   572A      4.128828   573A      4.134754  
     574A      4.144498   575A      4.149260   576A      4.149618  
     577A      4.169549   578A      4.184304   579A      4.200582  
     580A      4.203609   581A      4.217700   582A      4.229583  
     583A      4.231806   584A      4.234649   585A      4.256803  
     586A      4.259019   587A      4.259363   588A      4.269492  
     589A      4.278425   590A      4.294200   591A      4.306221  
     592A      4.312296   593A      4.323922   594A      4.327923  
     595A      4.331240   596A      4.347735   597A      4.357117  
     598A      4.370284   599A      4.383445   600A      4.397946  
     601A      4.408874   602A      4.420712   603A      4.427067  
     604A      4.439484   605A      4.439812   606A      4.466249  
     607A      4.471095   608A      4.490593   609A      4.491796  
     610A      4.515752   611A      4.521116   612A      4.536430  
     613A      4.540290   614A      4.563811   615A      4.577374  
     616A      4.585799   617A      4.592010   618A      4.604319  
     619A      4.619647   620A      4.620485   621A      4.629998  
     622A      4.645579   623A      4.661789   624A      4.674597  
     625A      4.685054   626A      4.707273   627A      4.723599  
     628A      4.731338   629A      4.735297   630A      4.738576  
     631A      4.746720   632A      4.752708   633A      4.774476  
     634A      4.774598   635A      4.789397   636A      4.811835  
     637A      4.812914   638A      4.831196   639A      4.846556  
     640A      4.862523   641A      4.868412   642A      4.883774  
     643A      4.885616   644A      4.904393   645A      4.905026  
     646A      4.915879   647A      4.929139   648A      4.937840  
     649A      4.945883   650A      4.959966   651A      4.961226  
     652A      4.999174   653A      5.006620   654A      5.012495  
     655A      5.018414   656A      5.027825   657A      5.034994  
     658A      5.044312   659A      5.052477   660A      5.055893  
     661A      5.073127   662A      5.096670   663A      5.100081  
     664A      5.131714   665A      5.135480   666A      5.137366  
     667A      5.150697   668A      5.164156   669A      5.167866  
     670A      5.187390   671A      5.193890   672A      5.211181  
     673A      5.215211   674A      5.217948   675A      5.254031  
     676A      5.255060   677A      5.271023   678A      5.278646  
     679A      5.285912   680A      5.306648   681A      5.322451  
     682A      5.331691   683A      5.335371   684A      5.369146  
     685A      5.379971   686A      5.386805   687A      5.395733  
     688A      5.401618   689A      5.406566   690A      5.411857  
     691A      5.420728   692A      5.445258   693A      5.447416  
     694A      5.452085   695A      5.459901   696A      5.464424  
     697A      5.483783   698A      5.492761   699A      5.508351  
     700A      5.514062   701A      5.524651   702A      5.534304  
     703A      5.570430   704A      5.575132   705A      5.579515  
     706A      5.593700   707A      5.603524   708A      5.626013  
     709A      5.642457   710A      5.656156   711A      5.658138  
     712A      5.676756   713A      5.693605   714A      5.694158  
     715A      5.695976   716A      5.711236   717A      5.725147  
     718A      5.737402   719A      5.747645   720A      5.759257  
     721A      5.766466   722A      5.770409   723A      5.792543  
     724A      5.810704   725A      5.822464   726A      5.845012  
     727A      5.856234   728A      5.889595   729A      5.900300  
     730A      5.931703   731A      5.946554   732A      5.954271  
     733A      5.984108   734A      6.025992   735A      6.053086  
     736A      6.058965   737A      6.075690   738A      6.093738  
     739A      6.110029   740A      6.114702   741A      6.145934  
     742A      6.183790   743A      6.189215   744A      6.234570  
     745A      6.236773   746A      6.257856   747A      6.272642  
     748A      6.295758   749A      6.320776   750A      6.341236  
     751A      6.361448   752A      6.371241   753A      6.384694  
     754A      6.394819   755A      6.417043   756A      6.423494  
     757A      6.443694   758A      6.487062   759A      6.638816  
     760A      6.650754   761A      6.663899   762A      6.680575  
     763A      6.738442   764A      6.808615   765A      6.825469  
     766A      6.827258   767A      6.935061   768A      6.957546  
     769A      6.977648   770A      6.980411   771A      7.046255  
     772A      7.067115   773A      7.101667   774A      7.150230  
     775A     18.046501   776A     18.101703   777A     18.555149  
     778A     18.786709   779A     19.145831   780A     19.523560  
     781A     19.757302   782A     19.854357  

    Final Occupation by Irrep:
              A 
    DOCC [    33 ]

  Energy converged.

  @DF-RHF Final Energy:  -313.53378390885524

   => Energetics <=

    Nuclear Repulsion Energy =            403.9331155804265450
    One-Electron Energy =               -1223.0114335027451489
    Two-Electron Energy =                 505.5445340134633625
    DFT Exchange-Correlation Energy =       0.0000000000000000
    Empirical Dispersion Energy =           0.0000000000000000
    PCM Polarization Energy =               0.0000000000000000
    EFP Energy =                            0.0000000000000000
    Total Energy =                       -313.5337839088551846


  Saving occupied orbitals to File 180.

*** tstop() called on wr37 at Wed Sep 21 04:59:09 2016
Module time:
	user time   =    1028.67 seconds =      17.14 minutes
	system time =      12.98 seconds =       0.22 minutes
	total time  =         95 seconds =       1.58 minutes
Total time:
	user time   =    1028.67 seconds =      17.14 minutes
	system time =      12.98 seconds =       0.22 minutes
	total time  =         95 seconds =       1.58 minutes


Properties will be evaluated at   0.000000,   0.000000,   0.000000 Bohr

Properties computed using the SCF density matrix

  Nuclear Dipole Moment: (a.u.)
     X:     0.0000      Y:    -0.0000      Z:    -2.1010

  Electronic Dipole Moment: (a.u.)
     X:    -0.0000      Y:     0.0000      Z:     2.1268

  Dipole Moment: (a.u.)
     X:     0.0000      Y:     0.0000      Z:     0.0258     Total:     0.0258

  Dipole Moment: (Debye)
     X:     0.0000      Y:     0.0000      Z:     0.0657     Total:     0.0657


  //>>>>>>>>>>>>>>>>>>>>>>>>>>>>>>>>>>>//
  //               DFMP2               //
  //<<<<<<<<<<<<<<<<<<<<<<<<<<<<<<<<<<<//


*** tstart() called on wr37
*** at Wed Sep 21 04:59:10 2016


*** tstop() called on wr37 at Wed Sep 21 04:59:10 2016
Module time:
	user time   =       4.32 seconds =       0.07 minutes
	system time =       0.19 seconds =       0.00 minutes
	total time  =          0 seconds =       0.00 minutes
Total time:
	user time   =    1033.16 seconds =      17.22 minutes
	system time =      13.17 seconds =       0.22 minutes
	total time  =         96 seconds =       1.60 minutes
	 --------------------------------------------------------
	                          DF-MP2                         
	      2nd-Order Density-Fitted Moller-Plesset Theory     
	              RMP2 Wavefunction,  12 Threads             
	                                                         
	        Rob Parrish, Justin Turney, Andy Simmonett,      
	           Ed Hohenstein, and C. David Sherrill          
	 --------------------------------------------------------

   => Auxiliary Basis Set <=

  Basis Set: 
    Number of shells: 476
    Number of basis function: 1676
    Number of Cartesian functions: 2078
    Spherical Harmonics?: true
    Max angular momentum: 4

	 --------------------------------------------------------
	                 NBF =   782, NAUX =  1676
	 --------------------------------------------------------
	   CLASS    FOCC     OCC    AOCC    AVIR     VIR    FVIR
	   PAIRS       8      33      25     749     749       0
	 --------------------------------------------------------

DGAS Warning! /src/lib/libfock/apps.cc:80 is not currently checking restricted

         ------------------------------------------------------------
                                     CPHF                           
                                  Rob Parrish                       
         ------------------------------------------------------------

  ==> Geometry <==

    Molecular point group: c1
    Full point group: C1

    Geometry (in Angstrom), charge = 0, multiplicity = 1:

       Center              X                  Y                   Z               Mass       
    ------------   -----------------  -----------------  -----------------  -----------------
           C          2.043370734008     0.739364904400    -1.376062374840    12.000000000000
           H          0.996335750574     0.559565723437    -1.617476005745     1.007825032070
           H          2.598850560967     0.750667843789    -2.313926087328     1.007825032070
           H          2.117836290001     1.732087764855    -0.929295894049     1.007825032070
           C         -2.043339218208    -0.739411458255    -1.376062380825    12.000000000000
           H         -2.598788929075    -0.750746931607    -2.313942608442     1.007825032070
           H         -2.117811884661    -1.732120093503    -0.929268258353     1.007825032070
           H         -0.996299052692    -0.559612177481    -1.617447879019     1.007825032070
           C          2.591065206398    -0.325412276183    -0.432409201324    12.000000000000
           H          3.667069036550    -0.176516789717    -0.313955074575     1.007825032070
           H          2.465328122597    -1.311211878788    -0.888945194627     1.007825032070
           C         -2.591064684157     0.325392224266    -0.432457606719    12.000000000000
           H         -2.465327874706     1.311175080191    -0.889025764591     1.007825032070
           H         -3.667067635733     0.176491422306    -0.314017364235     1.007825032070
           C          1.944352985504    -0.342489369399     0.952345853848    12.000000000000
           H          2.128457114704     0.615044802150     1.450627860228     1.007825032070
           H          2.454090857780    -1.101076708347     1.550539216080     1.007825032070
           C          0.436559590752    -0.628069573363     0.950302595188    12.000000000000
           H          0.175316175659    -1.202654860746     1.843034909802     1.007825032070
           H          0.189822165011    -1.267376821512     0.098999216800     1.007825032070
           C         -0.436577907427     0.628105423882     0.950261085940    12.000000000000
           H         -0.175344770200     1.202743694369     1.842961940926     1.007825032070
           H         -0.189831736182     1.267361896922     0.098923025643     1.007825032070
           C         -1.944370364282     0.342523366212     0.952304334092    12.000000000000
           H         -2.128477046108    -0.614991188681     1.450618389346     1.007825032070
           H         -2.454113596304     1.101130625663     1.550464827780     1.007825032070

  Nuclear repulsion =  403.933115580426545
  Reference energy  = -313.533783908855241

  ==> Basis Set <==

  Basis Set: AUG-CC-PVTZ
    Number of shells: 274
    Number of basis function: 782
    Number of Cartesian functions: 890
    Spherical Harmonics?: true
    Max angular momentum: 3

  ==> CGRSolver (by Rob Parrish) <==

   Number of roots    =         1
   Preconditioning    =    JACOBI
   Convergence cutoff =     1E-06
   Maximum iterations =       100

  ==> CPHFRHamiltonian (by Rob Parrish) <== 

  ==> DFJK: Density-Fitted J/K Matrices <==

    J tasked:                  Yes
    K tasked:                  Yes
    wK tasked:                  No
    OpenMP threads:             12
    Integrals threads:          12
    Memory (MB):             42915
    Algorithm:                Core
    Integral Cache:           NONE
    Schwarz Cutoff:          1E-12
    Fitting Condition:       1E-12

   => Auxiliary Basis Set <=

  Basis Set: 
    Number of shells: 492
    Number of basis function: 1660
    Number of Cartesian functions: 2038
    Spherical Harmonics?: true
    Max angular momentum: 4

  ==> CPHF Iterations <==

  => Iterations <=

             Iter  Converged  Remaining    Residual
  CGR           1          0          1   9.344E-02
  CGR           2          0          1   1.355E-02
  CGR           3          0          1   3.811E-03
  CGR           4          0          1   8.037E-04
  CGR           5          0          1   1.981E-04
  CGR           6          0          1   4.344E-05
  CGR           7          0          1   1.144E-05
  CGR           8          0          1   2.925E-06
  CGR           9          1          0   7.429E-07

    CGRSolver converged.

  ==> DFCorrGrad: Density-Fitted Correlated Gradients <==

    OpenMP threads:             12
    Integrals threads:          12
    Memory (MB):             42915
    Schwarz Cutoff:          0E+00
    Fitting Condition:       1E-12

   => Auxiliary Basis Set <=

  Basis Set: 
    Number of shells: 492
    Number of basis function: 1660
    Number of Cartesian functions: 2038
    Spherical Harmonics?: true
    Max angular momentum: 4

	-----------------------------------------------------------
	 ==================> DF-MP2 Energies <==================== 
	-----------------------------------------------------------
	 Reference Energy          =    -313.5337839088552414 [Eh]
	 Singles Energy            =      -0.0000000000000001 [Eh]
	 Same-Spin Energy          =      -0.3171247935132294 [Eh]
	 Opposite-Spin Energy      =      -1.1270264636527958 [Eh]
	 Correlation Energy        =      -1.4441512571660251 [Eh]
	 Total Energy              =    -314.9779351660212683 [Eh]
	-----------------------------------------------------------
	 ================> DF-SCS-MP2 Energies <================== 
	-----------------------------------------------------------
	 SCS Same-Spin Scale       =       0.3333333333333333 [-]
	 SCS Opposite-Spin Scale   =       1.2000000000000000 [-]
	 SCS Same-Spin Energy      =      -0.1057082645044098 [Eh]
	 SCS Opposite-Spin Energy  =      -1.3524317563833550 [Eh]
	 SCS Correlation Energy    =      -1.4581400208877648 [Eh]
	 SCS Total Energy          =    -314.9919239297429954 [Eh]
	-----------------------------------------------------------


  -Total Gradient:
     Atom            X                  Y                   Z
    ------   -----------------  -----------------  -----------------
       1        0.000000013563     0.000000141248     0.000000160665
       2       -0.000000263036    -0.000000110968    -0.000000087569
       3        0.000000227250    -0.000000047742    -0.000000185480
       4        0.000000057181     0.000000248406     0.000000084563
       5        0.000000132426    -0.000000271562     0.000000157626
       6       -0.000000048968     0.000000026424    -0.000000052088
       7       -0.000000045888     0.000000088772    -0.000000123461
       8       -0.000000041737     0.000000039379     0.000000085852
       9       -0.000000359771    -0.000000170640    -0.000000120521
      10        0.000000430243     0.000000142674     0.000000109307
      11       -0.000000017020    -0.000000433570    -0.000000245179
      12        0.000000009488     0.000000252807     0.000000096414
      13        0.000000013656    -0.000000038707    -0.000000044372
      14        0.000000078983     0.000000000097    -0.000000013685
      15       -0.000000032714     0.000000438438     0.000000038495
      16       -0.000000114550     0.000000224234     0.000000155998
      17        0.000000307840    -0.000000214059     0.000000076949
      18       -0.000000800915    -0.000000964371     0.000000002081
      19        0.000000001186     0.000000257503    -0.000000453345
      20        0.000000142789     0.000000347350     0.000000329935
      21        0.000000486712     0.000000916786    -0.000000072123
      22       -0.000000099909    -0.000000249977    -0.000000419748
      23       -0.000000153098    -0.000000418185     0.000000425130
      24       -0.000000255454    -0.000000474747     0.000000561522
      25        0.000000213558     0.000000495189    -0.000000260911
      26        0.000000118187    -0.000000224781    -0.000000206053


			-----------------------------------------
			 OPTKING 2.0: for geometry optimizations 
			  - R.A. King,  Bethel University        
			-----------------------------------------

	Internal coordinates to be generated automatically.
	Detected frag 1 with atoms:  1 2 3 4 5 6 7 8 9 10 11 12 13 14 15 16 17 18 19 20
	 21 22 23 24 25 26
	---Fragment 1 Bond Connectivity---
	 1 : 2 3 4 9
	 2 : 1
	 3 : 1
	 4 : 1
	 5 : 6 7 8 12
	 6 : 5
	 7 : 5
	 8 : 5
	 9 : 1 10 11 15
	 10 : 9
	 11 : 9
	 12 : 5 13 14 24
	 13 : 12
	 14 : 12
	 15 : 9 16 17 18
	 16 : 15
	 17 : 15
	 18 : 15 19 20 21
	 19 : 18
	 20 : 18
	 21 : 18 22 23 24
	 22 : 21
	 23 : 21
	 24 : 12 21 25 26
	 25 : 24
	 26 : 24

	---Fragment 1 Geometry and Gradient---
	 C           3.8614110752        1.3971971816       -2.6003810302
	 H           1.8828017050        1.0574259706       -3.0565866774
	 H           4.9111158205        1.4185566415       -4.3726865968
	 H           4.0021305824        3.2731715137       -1.7561147362
	 C          -3.8613515190       -1.3972851556       -2.6003810415
	 H          -4.9109993531       -1.4187060958       -4.3727178172
	 H          -4.0020844630       -3.2732326060       -1.7560625123
	 H          -1.8827323560       -1.0575137561       -3.0565335256
	 C           4.8964036325       -0.6149400823       -0.8171349678
	 H           6.9297561895       -0.3335683904       -0.5932891090
	 H           4.6587949794       -2.4778313531       -1.6798629650
	 C          -4.8964026456        0.6149021896       -0.8172264408
	 H          -4.6587945110        2.4777618138       -1.6800152202
	 H          -6.9297535423        0.3335204530       -0.5934068194
	 C           3.6742946483       -0.6472111116        1.7996728476
	 H           4.0222010324        1.1622662355        2.7412893766
	 H           4.6375596264       -2.0807334301        2.9300944767
	 C           0.8249780672       -1.1868794861        1.7958116483
	 H           0.3312995587       -2.2726883192        3.4828312329
	 H           0.3587119058       -2.3949950998        0.1870814071
	 C          -0.8250126807        1.1869472337        1.7957332072
	 H          -0.3313535945        2.2728561904        3.4826933417
	 H          -0.3587299927        2.3949668964        0.1869374267
	 C          -3.6743274894        0.6472753563        1.7995943866
	 H          -4.0222386973       -1.1621649207        2.7412714792
	 H          -4.6376025960        2.0808353190        2.9299539032
	             0.0000000136        0.0000001412        0.0000001607
	            -0.0000002630       -0.0000001110       -0.0000000876
	             0.0000002273       -0.0000000477       -0.0000001855
	             0.0000000572        0.0000002484        0.0000000846
	             0.0000001324       -0.0000002716        0.0000001576
	            -0.0000000490        0.0000000264       -0.0000000521
	            -0.0000000459        0.0000000888       -0.0000001235
	            -0.0000000417        0.0000000394        0.0000000859
	            -0.0000003598       -0.0000001706       -0.0000001205
	             0.0000004302        0.0000001427        0.0000001093
	            -0.0000000170       -0.0000004336       -0.0000002452
	             0.0000000095        0.0000002528        0.0000000964
	             0.0000000137       -0.0000000387       -0.0000000444
	             0.0000000790        0.0000000001       -0.0000000137
	            -0.0000000327        0.0000004384        0.0000000385
	            -0.0000001145        0.0000002242        0.0000001560
	             0.0000003078       -0.0000002141        0.0000000769
	            -0.0000008009       -0.0000009644        0.0000000021
	             0.0000000012        0.0000002575       -0.0000004533
	             0.0000001428        0.0000003474        0.0000003299
	             0.0000004867        0.0000009168       -0.0000000721
	            -0.0000000999       -0.0000002500       -0.0000004197
	            -0.0000001531       -0.0000004182        0.0000004251
	            -0.0000002555       -0.0000004747        0.0000005615
	             0.0000002136        0.0000004952       -0.0000002609
	             0.0000001182       -0.0000002248       -0.0000002061

	Previous optimization step data not found.  Starting new optimization.

	---Fragment 1 Intrafragment Coordinates---
	 - Coordinate -           - BOHR/RAD -       - ANG/DEG -
	 R(1,2)           =         2.058753	       1.089445
	 R(1,3)           =         2.059952	       1.090080
	 R(1,4)           =         2.062006	       1.091166
	 R(1,9)           =         2.880950	       1.524533
	 R(5,6)           =         2.059951	       1.090079
	 R(5,7)           =         2.062003	       1.091165
	 R(5,8)           =         2.058750	       1.089444
	 R(5,12)          =         2.880949	       1.524533
	 R(9,10)          =         2.064897	       1.092696
	 R(9,11)          =         2.066669	       1.093634
	 R(9,15)          =         2.888300	       1.528422
	 R(12,13)         =         2.066666	       1.093633
	 R(12,14)         =         2.064894	       1.092695
	 R(12,24)         =         2.888298	       1.528422
	 R(15,16)         =         2.069273	       1.095012
	 R(15,17)         =         2.064151	       1.092302
	 R(15,18)         =         2.899976	       1.534601
	 R(18,19)         =         2.066092	       1.093329
	 R(18,20)         =         2.065178	       1.092845
	 R(18,21)         =         2.890938	       1.529819
	 R(21,22)         =         2.066091	       1.093328
	 R(21,23)         =         2.065177	       1.092844
	 R(21,24)         =         2.899975	       1.534601
	 R(24,25)         =         2.069268	       1.095010
	 R(24,26)         =         2.064148	       1.092300
	 B(1,9,10)        =         1.902544	     109.007717
	 B(1,9,11)        =         1.906958	     109.260653
	 B(1,9,15)        =         2.000488	     114.619543
	 B(2,1,3)         =         1.876329	     107.505726
	 B(2,1,4)         =         1.882273	     107.846283
	 B(2,1,9)         =         1.946754	     111.540786
	 B(3,1,4)         =         1.883947	     107.942189
	 B(3,1,9)         =         1.935551	     110.898907
	 B(4,1,9)         =         1.936350	     110.944660
	 B(5,12,13)       =         1.906956	     109.260554
	 B(5,12,14)       =         1.902547	     109.007912
	 B(5,12,24)       =         2.000483	     114.619215
	 B(6,5,7)         =         1.883947	     107.942195
	 B(6,5,8)         =         1.876329	     107.505739
	 B(6,5,12)        =         1.935554	     110.899091
	 B(7,5,8)         =         1.882273	     107.846297
	 B(7,5,12)        =         1.936350	     110.944706
	 B(8,5,12)        =         1.946749	     111.540527
	 B(9,15,16)       =         1.908545	     109.351585
	 B(9,15,17)       =         1.882279	     107.846658
	 B(9,15,18)       =         2.000504	     114.620458
	 B(10,9,11)       =         1.855942	     106.337653
	 B(10,9,15)       =         1.896491	     108.660935
	 B(11,9,15)       =         1.895989	     108.632140
	 B(12,24,21)      =         2.000499	     114.620154
	 B(12,24,25)      =         1.908545	     109.351563
	 B(12,24,26)      =         1.882283	     107.846897
	 B(13,12,14)      =         1.855943	     106.337695
	 B(13,12,24)      =         1.895987	     108.632075
	 B(14,12,24)      =         1.896496	     108.661217
	 B(15,18,19)      =         1.908670	     109.358713
	 B(15,18,20)      =         1.908935	     109.373947
	 B(15,18,21)      =         1.991024	     114.077293
	 B(16,15,17)      =         1.854204	     106.238059
	 B(16,15,18)      =         1.905542	     109.179502
	 B(17,15,18)      =         1.907101	     109.268865
	 B(18,21,22)      =         1.870441	     107.168348
	 B(18,21,23)      =         1.929939	     110.577384
	 B(18,21,24)      =         1.991023	     114.077214
	 B(19,18,20)      =         1.849047	     105.942578
	 B(19,18,21)      =         1.870440	     107.168293
	 B(20,18,21)      =         1.929940	     110.577398
	 B(21,24,25)      =         1.905543	     109.179545
	 B(21,24,26)      =         1.907102	     109.268919
	 B(22,21,23)      =         1.849047	     105.942580
	 B(22,21,24)      =         1.908670	     109.358745
	 B(23,21,24)      =         1.908936	     109.373957
	 B(25,24,26)      =         1.854204	     106.238073
	 D(1,9,15,16)     =        -1.076765	     -61.694095
	 D(1,9,15,17)     =        -3.085895	    -176.808748
	 D(1,9,15,18)     =         1.069191	      61.260147
	 D(2,1,9,10)      =         3.023528	     173.235382
	 D(2,1,9,11)      =         1.002106	      57.416419
	 D(2,1,9,15)      =        -1.130123	     -64.751272
	 D(3,1,9,10)      =         0.932724	      53.441163
	 D(3,1,9,11)      =        -1.088698	     -62.377800
	 D(3,1,9,15)      =         3.062259	     175.454509
	 D(4,1,9,10)      =        -1.160785	     -66.508078
	 D(4,1,9,11)      =         3.100978	     177.672959
	 D(4,1,9,15)      =         0.968750	      55.505269
	 D(5,12,24,21)    =         1.069178	      61.259389
	 D(5,12,24,25)    =        -1.076775	     -61.694675
	 D(5,12,24,26)    =        -3.085907	    -176.809462
	 D(6,5,12,13)     =        -1.088686	     -62.377103
	 D(6,5,12,14)     =         0.932738	      53.441963
	 D(6,5,12,24)     =         3.062278	     175.455596
	 D(7,5,12,13)     =         3.100988	     177.673497
	 D(7,5,12,14)     =        -1.160774	     -66.507436
	 D(7,5,12,24)     =         0.968766	      55.506197
	 D(8,5,12,13)     =         1.002117	      57.417083
	 D(8,5,12,14)     =         3.023541	     173.236150
	 D(8,5,12,24)     =        -1.130104	     -64.750217
	 D(9,15,18,19)    =         2.543188	     145.713960
	 D(9,15,18,20)    =         0.525507	      30.109348
	 D(9,15,18,21)    =        -1.645970	     -94.307160
	 D(10,9,15,16)    =         1.056060	      60.507761
	 D(10,9,15,17)    =        -0.953070	     -54.606893
	 D(10,9,15,18)    =        -3.081169	    -176.537997
	 D(11,9,15,16)    =         3.068244	     175.797420
	 D(11,9,15,17)    =         1.059114	      60.682767
	 D(11,9,15,18)    =        -1.068985	     -61.248338
	 D(12,24,21,18)   =        -1.645990	     -94.308258
	 D(12,24,21,22)   =         2.543168	     145.712821
	 D(12,24,21,23)   =         0.525487	      30.108183
	 D(13,12,24,21)   =        -1.068991	     -61.248691
	 D(13,12,24,25)   =         3.068241	     175.797245
	 D(13,12,24,26)   =         1.059109	      60.682458
	 D(14,12,24,21)   =        -3.081178	    -176.538515
	 D(14,12,24,25)   =         1.056054	      60.507421
	 D(14,12,24,26)   =        -0.953078	     -54.607366
	 D(15,18,21,22)   =        -1.023306	     -58.631106
	 D(15,18,21,23)   =         0.984312	      56.396938
	 D(15,18,21,24)   =        -3.138676	    -179.832887
	 D(16,15,18,19)   =        -1.592424	     -91.239182
	 D(16,15,18,20)   =         2.673080	     153.156206
	 D(16,15,18,21)   =         0.501602	      28.739697
	 D(17,15,18,19)   =         0.428666	      24.560740
	 D(17,15,18,20)   =        -1.589015	     -91.043872
	 D(17,15,18,21)   =         2.522692	     144.539620
	 D(18,21,24,25)   =         0.501579	      28.738388
	 D(18,21,24,26)   =         2.522671	     144.538380
	 D(19,18,21,22)   =         1.092064	      62.570645
	 D(19,18,21,23)   =         3.099682	     177.598688
	 D(19,18,21,24)   =        -1.023306	     -58.631136
	 D(20,18,21,22)   =         3.099681	     177.598662
	 D(20,18,21,23)   =        -1.175886	     -67.373294
	 D(20,18,21,24)   =         0.984311	      56.396881
	 D(22,21,24,25)   =        -1.592448	     -91.240534
	 D(22,21,24,26)   =         0.428643	      24.559459
	 D(23,21,24,25)   =         2.673056	     153.154829
	 D(23,21,24,26)   =        -1.589038	     -91.045179
	 R(1,21)          =         6.429043	       3.402103
	 R(5,18)          =         6.429033	       3.402098

	Current energy   :      -314.9779351660

	Generating empirical Hessian (Schlegel '84) for each fragment.
	Taking RFO optimization step.
	Going to follow RFO solution 1.
	Using RFO vector 1.
	Norm of target step-size    0.00020
	Projected energy change by RFO approximation:         0.0000000000

	Back-transformation to cartesian coordinates...
	Successfully converged to displaced geometry.

	--- Internal Coordinate Step in ANG or DEG, aJ/ANG or AJ/DEG ---
	 ---------------------------------------------------------------------------
	   Coordinate                Previous        Force       Change         New 
	   ----------                --------       ------       ------       ------
	    1 R(1,2)          =      1.089445    -0.000002    -0.000000     1.089445
	    2 R(1,3)          =      1.090080    -0.000002    -0.000000     1.090079
	    3 R(1,4)          =      1.091166    -0.000002    -0.000000     1.091166
	    4 R(1,9)          =      1.524533    -0.000001    -0.000000     1.524533
	    5 R(5,6)          =      1.090079    -0.000001    -0.000000     1.090079
	    6 R(5,7)          =      1.091165     0.000001     0.000000     1.091165
	    7 R(5,8)          =      1.089444     0.000000     0.000000     1.089444
	    8 R(5,12)         =      1.524533    -0.000001    -0.000000     1.524533
	    9 R(9,10)         =      1.092696    -0.000004    -0.000001     1.092696
	   10 R(9,11)         =      1.093634    -0.000004    -0.000001     1.093633
	   11 R(9,15)         =      1.528422    -0.000002    -0.000000     1.528422
	   12 R(12,13)        =      1.093633     0.000000     0.000000     1.093633
	   13 R(12,14)        =      1.092695     0.000001     0.000000     1.092695
	   14 R(12,24)        =      1.528422     0.000000     0.000000     1.528422
	   15 R(15,16)        =      1.095012    -0.000002    -0.000000     1.095011
	   16 R(15,17)        =      1.092302    -0.000003    -0.000001     1.092301
	   17 R(15,18)        =      1.534601    -0.000002    -0.000000     1.534601
	   18 R(18,19)        =      1.093329     0.000004     0.000001     1.093329
	   19 R(18,20)        =      1.092845     0.000004     0.000001     1.092846
	   20 R(18,21)        =      1.529819     0.000001     0.000000     1.529819
	   21 R(21,22)        =      1.093328     0.000004     0.000001     1.093329
	   22 R(21,23)        =      1.092844     0.000005     0.000001     1.092845
	   23 R(21,24)        =      1.534601     0.000000     0.000000     1.534601
	   24 R(24,25)        =      1.095010     0.000005     0.000001     1.095011
	   25 R(24,26)        =      1.092300     0.000003     0.000000     1.092300
	   26 B(1,9,10)       =    109.007717     0.000000     0.000072   109.007789
	   27 B(1,9,11)       =    109.260653     0.000000    -0.000061   109.260593
	   28 B(1,9,15)       =    114.619543    -0.000000     0.000015   114.619558
	   29 B(2,1,3)        =    107.505726    -0.000000    -0.000012   107.505714
	   30 B(2,1,4)        =    107.846283    -0.000000    -0.000045   107.846238
	   31 B(2,1,9)        =    111.540786     0.000000    -0.000002   111.540784
	   32 B(3,1,4)        =    107.942189    -0.000000     0.000008   107.942198
	   33 B(3,1,9)        =    110.898907     0.000000     0.000075   110.898982
	   34 B(4,1,9)        =    110.944660    -0.000000    -0.000026   110.944633
	   35 B(5,12,13)      =    109.260554     0.000000    -0.000002   109.260552
	   36 B(5,12,14)      =    109.007912     0.000000     0.000029   109.007941
	   37 B(5,12,24)      =    114.619215    -0.000000     0.000013   114.619229
	   38 B(6,5,7)        =    107.942195     0.000000     0.000015   107.942210
	   39 B(6,5,8)        =    107.505739    -0.000000    -0.000017   107.505722
	   40 B(6,5,12)       =    110.899091     0.000000     0.000018   110.899109
	   41 B(7,5,8)        =    107.846297    -0.000000    -0.000019   107.846277
	   42 B(7,5,12)       =    110.944706    -0.000000    -0.000038   110.944667
	   43 B(8,5,12)       =    111.540527     0.000000     0.000040   111.540567
	   44 B(9,15,16)      =    109.351585    -0.000000    -0.000046   109.351540
	   45 B(9,15,17)      =    107.846658     0.000000     0.000071   107.846730
	   46 B(9,15,18)      =    114.620458    -0.000000    -0.000007   114.620451
	   47 B(10,9,11)      =    106.337653    -0.000000    -0.000022   106.337631
	   48 B(10,9,15)      =    108.660935     0.000000     0.000089   108.661024
	   49 B(11,9,15)      =    108.632140    -0.000000    -0.000096   108.632044
	   50 B(12,24,21)     =    114.620154     0.000000     0.000038   114.620192
	   51 B(12,24,25)     =    109.351563    -0.000000    -0.000042   109.351522
	   52 B(12,24,26)     =    107.846897     0.000000     0.000013   107.846910
	   53 B(13,12,14)     =    106.337695    -0.000000    -0.000011   106.337684
	   54 B(13,12,24)     =    108.632075     0.000000    -0.000016   108.632059
	   55 B(14,12,24)     =    108.661217    -0.000000    -0.000015   108.661201
	   56 B(15,18,19)     =    109.358713    -0.000000    -0.000066   109.358647
	   57 B(15,18,20)     =    109.373947    -0.000000    -0.000049   109.373898
	   58 B(15,18,21)     =    114.077293     0.000000     0.000172   114.077465
	   59 B(16,15,17)     =    106.238059    -0.000000    -0.000017   106.238042
	   60 B(16,15,18)     =    109.179502     0.000000     0.000075   109.179577
	   61 B(17,15,18)     =    109.268865    -0.000000    -0.000079   109.268787
	   62 B(18,21,22)     =    107.168348    -0.000000    -0.000014   107.168334
	   63 B(18,21,23)     =    110.577384    -0.000000    -0.000003   110.577381
	   64 B(18,21,24)     =    114.077214     0.000000     0.000076   114.077290
	   65 B(19,18,20)     =    105.942578     0.000000    -0.000040   105.942538
	   66 B(19,18,21)     =    107.168293    -0.000000    -0.000007   107.168285
	   67 B(20,18,21)     =    110.577398    -0.000000    -0.000024   110.577373
	   68 B(21,24,25)     =    109.179545     0.000000     0.000016   109.179561
	   69 B(21,24,26)     =    109.268919    -0.000000    -0.000002   109.268917
	   70 B(22,21,23)     =    105.942580     0.000000    -0.000031   105.942548
	   71 B(22,21,24)     =    109.358745    -0.000000     0.000011   109.358756
	   72 B(23,21,24)     =    109.373957    -0.000000    -0.000044   109.373913
	   73 B(25,24,26)     =    106.238073    -0.000000    -0.000029   106.238044
	   74 D(1,9,15,16)    =    -61.694095    -0.000000    -0.000616   -61.694711
	   75 D(1,9,15,17)    =   -176.808748    -0.000000    -0.000611  -176.809359
	   76 D(1,9,15,18)    =     61.260147    -0.000000    -0.000558    61.259590
	   77 D(2,1,9,10)     =    173.235382     0.000000     0.000361   173.235743
	   78 D(2,1,9,11)     =     57.416419     0.000000     0.000381    57.416800
	   79 D(2,1,9,15)     =    -64.751272     0.000000     0.000541   -64.750731
	   80 D(3,1,9,10)     =     53.441163    -0.000000     0.000327    53.441490
	   81 D(3,1,9,11)     =    -62.377800    -0.000000     0.000347   -62.377453
	   82 D(3,1,9,15)     =    175.454509     0.000000     0.000507   175.455016
	   83 D(4,1,9,10)     =    -66.508078    -0.000000     0.000284   -66.507793
	   84 D(4,1,9,11)     =    177.672959    -0.000000     0.000304   177.673264
	   85 D(4,1,9,15)     =     55.505269     0.000000     0.000465    55.505733
	   86 D(5,12,24,21)   =     61.259389    -0.000000    -0.001691    61.257699
	   87 D(5,12,24,25)   =    -61.694675    -0.000000    -0.001707   -61.696382
	   88 D(5,12,24,26)   =   -176.809462    -0.000000    -0.001658  -176.811120
	   89 D(6,5,12,13)    =    -62.377103    -0.000000    -0.000865   -62.377968
	   90 D(6,5,12,14)    =     53.441963    -0.000000    -0.000863    53.441100
	   91 D(6,5,12,24)    =    175.455596    -0.000000    -0.000852   175.454744
	   92 D(7,5,12,13)    =    177.673497    -0.000000    -0.000870   177.672627
	   93 D(7,5,12,14)    =    -66.507436    -0.000000    -0.000869   -66.508305
	   94 D(7,5,12,24)    =     55.506197    -0.000000    -0.000858    55.505339
	   95 D(8,5,12,13)    =     57.417083    -0.000000    -0.000847    57.416236
	   96 D(8,5,12,14)    =    173.236150    -0.000000    -0.000845   173.235304
	   97 D(8,5,12,24)    =    -64.750217    -0.000000    -0.000834   -64.751051
	   98 D(9,15,18,19)   =    145.713960    -0.000000     0.000071   145.714031
	   99 D(9,15,18,20)   =     30.109348     0.000000     0.000183    30.109531
	  100 D(9,15,18,21)   =    -94.307160     0.000000     0.000128   -94.307032
	  101 D(10,9,15,16)   =     60.507761     0.000000    -0.000446    60.507315
	  102 D(10,9,15,17)   =    -54.606893    -0.000000    -0.000440   -54.607333
	  103 D(10,9,15,18)   =   -176.537997     0.000000    -0.000387  -176.538384
	  104 D(11,9,15,16)   =    175.797420    -0.000000    -0.000475   175.796945
	  105 D(11,9,15,17)   =     60.682767    -0.000000    -0.000470    60.682297
	  106 D(11,9,15,18)   =    -61.248338     0.000000    -0.000417   -61.248755
	  107 D(12,24,21,18)  =    -94.308258     0.000000    -0.000747   -94.309004
	  108 D(12,24,21,22)  =    145.712821     0.000000    -0.000786   145.712034
	  109 D(12,24,21,23)  =     30.108183     0.000000    -0.000730    30.107453
	  110 D(13,12,24,21)  =    -61.248691    -0.000000    -0.001685   -61.250376
	  111 D(13,12,24,25)  =    175.797245    -0.000000    -0.001701   175.795544
	  112 D(13,12,24,26)  =     60.682458    -0.000000    -0.001652    60.680806
	  113 D(14,12,24,21)  =   -176.538515    -0.000000    -0.001656  -176.540171
	  114 D(14,12,24,25)  =     60.507421    -0.000000    -0.001672    60.505749
	  115 D(14,12,24,26)  =    -54.607366    -0.000000    -0.001623   -54.608989
	  116 D(15,18,21,22)  =    -58.631106    -0.000000    -0.003020   -58.634126
	  117 D(15,18,21,23)  =     56.396938    -0.000000    -0.003067    56.393871
	  118 D(15,18,21,24)  =   -179.832887    -0.000000    -0.003071  -179.835958
	  119 D(16,15,18,19)  =    -91.239182    -0.000000     0.000064   -91.239118
	  120 D(16,15,18,20)  =    153.156206     0.000000     0.000176   153.156382
	  121 D(16,15,18,21)  =     28.739697     0.000000     0.000121    28.739819
	  122 D(17,15,18,19)  =     24.560740    -0.000000     0.000042    24.560782
	  123 D(17,15,18,20)  =    -91.043872     0.000000     0.000154   -91.043718
	  124 D(17,15,18,21)  =    144.539620    -0.000000     0.000099   144.539718
	  125 D(18,21,24,25)  =     28.738388    -0.000000    -0.000761    28.737626
	  126 D(18,21,24,26)  =    144.538380    -0.000000    -0.000788   144.537592
	  127 D(19,18,21,22)  =     62.570645     0.000000    -0.003000    62.567645
	  128 D(19,18,21,23)  =    177.598688    -0.000000    -0.003047   177.595642
	  129 D(19,18,21,24)  =    -58.631136    -0.000000    -0.003051   -58.634187
	  130 D(20,18,21,22)  =    177.598662    -0.000000    -0.003064   177.595598
	  131 D(20,18,21,23)  =    -67.373294    -0.000000    -0.003111   -67.376405
	  132 D(20,18,21,24)  =     56.396881    -0.000000    -0.003116    56.393765
	  133 D(22,21,24,25)  =    -91.240534    -0.000000    -0.000801   -91.241335
	  134 D(22,21,24,26)  =     24.559459    -0.000000    -0.000828    24.558631
	  135 D(23,21,24,25)  =    153.154829     0.000000    -0.000745   153.154083
	  136 D(23,21,24,26)  =    -91.045179     0.000000    -0.000772   -91.045951
	  137 R(1,21)         =      3.402103    -0.000000    -0.000004     3.402099
	  138 R(5,18)         =      3.402098     0.000001     0.000003     3.402101
	 ---------------------------------------------------------------------------

  ==> Convergence Check <==

  Measures of convergence in internal coordinates in au.
  Criteria marked as inactive (o), active & met (*), and active & unmet ( ).
  --------------------------------------------------------------------------------------------- ~
   Step     Total Energy     Delta E     MAX Force     RMS Force      MAX Disp      RMS Disp    ~
  --------------------------------------------------------------------------------------------- ~
    Convergence Criteria             o    2.00e-06 *    1.00e-06 *    6.00e-06 *    4.00e-06 *  ~
  --------------------------------------------------------------------------------------------- ~
      1    -314.97793517   -3.15e+02 o    6.10e-07 *    1.59e-07 *    5.44e-05      1.67e-05    ~
  ---------------------------------------------------------------------------------------------

	Writing optimization data to binary file.
	Structure for next step:
	Cartesian Geometry (in Angstrom)
	    C     2.0433045409   0.7393171690  -1.3760867705
	    H     0.9962642849   0.5595021951  -1.6174637751
	    H     2.5987556888   0.7505984126  -2.3139672440
	    H     2.1177741091   1.7320531478  -0.9293510988
	    C    -2.0432653449  -0.7393551122  -1.3760952841
	    H    -2.5987076199  -0.7506898696  -2.3139798028
	    H    -2.1176987471  -1.7320786594  -0.9293272868
	    H    -0.9962310174  -0.5595052100  -1.6174687522
	    C     2.5910358536  -0.3254273438  -0.4324185687
	    H     3.6670402417  -0.1765166679  -0.3139950570
	    H     2.4652991263  -1.3112397522  -0.8889251935
	    C    -2.5910432811   0.3253999428  -0.4324662713
	    H    -2.4653315479   1.3112016113  -0.8890007797
	    H    -3.6670434517   0.1764595558  -0.3140494277
	    C     1.9443563885  -0.3424776086   0.9523516848
	    H     2.1284683019   0.6150680242   1.4506079374
	    H     2.4541107339  -1.1010491051   1.5505501693
	    C     0.4365649097  -0.6280659540   0.9503498893
	    H     0.1753462702  -1.2026324379   1.8431025085
	    H     0.1898123043  -1.2673962839   0.0990672722
	    C    -0.4365833063   0.6281019086   0.9502981671
	    H    -0.1753727960   1.2027372270   1.8430084817
	    H    -0.1898243683   1.2673664771   0.0989686845
	    C    -1.9443739561   0.3425091084   0.9523077659
	    H    -2.1284835879  -0.6150172646   1.4506000136
	    H    -2.4541338384   1.1011011345   1.5504742990
			--------------------------
			 OPTKING Finished Execution 
			--------------------------

    Structure for next step:
    Molecular point group: c1
    Full point group: C1

    Geometry (in Angstrom), charge = 0, multiplicity = 1:

    C            2.043304592731     0.739317277926    -1.376088533537
    H            0.996264336748     0.559502304100    -1.617465538174
    H            2.598755740621     0.750598521597    -2.313969007027
    H            2.117774160950     1.732053256725    -0.929352861827
    C           -2.043265293024    -0.739355003205    -1.376097047151
    H           -2.598707568091    -0.750689760671    -2.313981565822
    H           -2.117698695216    -1.732078550484    -0.929329049829
    H           -0.996230965601    -0.559505101036    -1.617470515280
    C            2.591035905449    -0.325427234891    -0.432420331744
    H            3.667040293506    -0.176516558985    -0.313996820047
    H            2.465299178101    -1.311239643225    -0.888926956503
    C           -2.591043229270     0.325400051746    -0.432468034364
    H           -2.465331496057     1.311201720208    -0.889002542729
    H           -3.667043399846     0.176459664767    -0.314051190763
    C            1.944356440372    -0.342477499623     0.952349921763
    H            2.128468353715     0.615068133107     1.450606174350
    H            2.454110785776    -1.101048996145     1.550548406258
    C            0.436564961493    -0.628065845017     0.950348126256
    H            0.175346322000    -1.202632328897     1.843100745493
    H            0.189812356147    -1.267396174958     0.099065509154
    C           -0.436583254434     0.628102017507     0.950296404055
    H           -0.175372744172     1.202737335908     1.843006718686
    H           -0.189824316487     1.267366586012     0.098966921499
    C           -1.944373904295     0.342509217389     0.952306002847
    H           -2.128483536024    -0.615017155661     1.450598250608
    H           -2.454133786604     1.101101243480     1.550472535977

gradient() will perform analytic gradient computation.

*** tstart() called on wr37
*** at Wed Sep 21 05:05:18 2016


         ---------------------------------------------------------
                                   SCF
            by Justin Turney, Rob Parrish, and Andy Simmonett
                              RHF Reference
                       12 Threads,  60000 MiB Core
         ---------------------------------------------------------

  ==> Geometry <==

    Molecular point group: c1
    Full point group: C1

    Geometry (in Angstrom), charge = 0, multiplicity = 1:

       Center              X                  Y                   Z               Mass       
    ------------   -----------------  -----------------  -----------------  -----------------
           C          2.043304592731     0.739317277926    -1.376088533537    12.000000000000
           H          0.996264336748     0.559502304100    -1.617465538174     1.007825032070
           H          2.598755740621     0.750598521597    -2.313969007027     1.007825032070
           H          2.117774160950     1.732053256725    -0.929352861827     1.007825032070
           C         -2.043265293024    -0.739355003205    -1.376097047151    12.000000000000
           H         -2.598707568091    -0.750689760671    -2.313981565822     1.007825032070
           H         -2.117698695216    -1.732078550484    -0.929329049829     1.007825032070
           H         -0.996230965601    -0.559505101036    -1.617470515280     1.007825032070
           C          2.591035905449    -0.325427234891    -0.432420331744    12.000000000000
           H          3.667040293506    -0.176516558985    -0.313996820047     1.007825032070
           H          2.465299178101    -1.311239643225    -0.888926956503     1.007825032070
           C         -2.591043229270     0.325400051746    -0.432468034364    12.000000000000
           H         -2.465331496057     1.311201720208    -0.889002542729     1.007825032070
           H         -3.667043399846     0.176459664767    -0.314051190763     1.007825032070
           C          1.944356440372    -0.342477499623     0.952349921763    12.000000000000
           H          2.128468353715     0.615068133107     1.450606174350     1.007825032070
           H          2.454110785776    -1.101048996145     1.550548406258     1.007825032070
           C          0.436564961493    -0.628065845017     0.950348126256    12.000000000000
           H          0.175346322000    -1.202632328897     1.843100745493     1.007825032070
           H          0.189812356147    -1.267396174958     0.099065509154     1.007825032070
           C         -0.436583254434     0.628102017507     0.950296404055    12.000000000000
           H         -0.175372744172     1.202737335908     1.843006718686     1.007825032070
           H         -0.189824316487     1.267366586012     0.098966921499     1.007825032070
           C         -1.944373904295     0.342509217389     0.952306002847    12.000000000000
           H         -2.128483536024    -0.615017155661     1.450598250608     1.007825032070
           H         -2.454133786604     1.101101243480     1.550472535977     1.007825032070

  Running in c1 symmetry.

  Rotational constants: A =      0.09498  B =      0.03435  C =      0.02952 [cm^-1]
  Rotational constants: A =   2847.31959  B =   1029.93377  C =    884.99113 [MHz]
  Nuclear repulsion =  403.934084446372367

  Charge       = 0
  Multiplicity = 1
  Electrons    = 66
  Nalpha       = 33
  Nbeta        = 33

  ==> Algorithm <==

  SCF Algorithm Type is DF.
  DIIS enabled.
  MOM disabled.
  Fractional occupation disabled.
  Guess Type is READ.
  Energy threshold   = 1.00e-10
  Density threshold  = 1.00e-10
  Integral threshold = 0.00e+00

  ==> Primary Basis <==

  Basis Set: AUG-CC-PVTZ
    Number of shells: 274
    Number of basis function: 782
    Number of Cartesian functions: 890
    Spherical Harmonics?: true
    Max angular momentum: 3

  ==> Pre-Iterations <==

   -------------------------------------------------------
    Irrep   Nso     Nmo     Nalpha   Nbeta   Ndocc  Nsocc
   -------------------------------------------------------
     A        782     782       0       0       0       0
   -------------------------------------------------------
    Total     782     782      33      33      33       0
   -------------------------------------------------------

  ==> Integral Setup <==

  ==> DFJK: Density-Fitted J/K Matrices <==

    J tasked:                  Yes
    K tasked:                  Yes
    wK tasked:                  No
    OpenMP threads:             12
    Integrals threads:          12
    Memory (MB):             42915
    Algorithm:                Core
    Integral Cache:           NONE
    Schwarz Cutoff:          1E-12
    Fitting Condition:       1E-12

   => Auxiliary Basis Set <=

  Basis Set: 
    Number of shells: 492
    Number of basis function: 1660
    Number of Cartesian functions: 2038
    Spherical Harmonics?: true
    Max angular momentum: 4

  Minimum eigenvalue in the overlap matrix is 1.4985045057E-06.
  Using Symmetric Orthogonalization.
  SCF Guess: Reading in previously saved MOs, projecting if necessary.

  Using orbitals from previous SCF, no projection.
  Recomputing DOCC and SOCC from number of alpha and beta electrons from previous calculation.
              A 
    DOCC [    33 ]

  ==> Iterations <==

                           Total Energy        Delta E     RMS |[F,P]|

   @DF-RHF iter   0:  -313.53379177820852   -3.13534e+02   1.49662e-07 
   @DF-RHF iter   1:  -313.53378348425917    8.29395e-06   2.79234e-08 
   @DF-RHF iter   2:  -313.53378348471313   -4.53952e-10   9.87243e-09 DIIS
   @DF-RHF iter   3:  -313.53378348477383   -6.07088e-11   4.12179e-09 DIIS
   @DF-RHF iter   4:  -313.53378348478168   -7.84439e-12   5.00024e-10 DIIS
   @DF-RHF iter   5:  -313.53378348478316   -1.47793e-12   1.50963e-10 DIIS
   @DF-RHF iter   6:  -313.53378348478145    1.70530e-12   3.74539e-11 DIIS

  ==> Post-Iterations <==

    Orbital Energies (a.u.)
    -----------------------

    Doubly Occupied:                                                      

       1A    -11.213235     2A    -11.213235     3A    -11.210209  
       4A    -11.210165     5A    -11.209325     6A    -11.208758  
       7A    -11.207235     8A    -11.207234     9A     -1.092098  
      10A     -1.059342    11A     -1.005102    12A     -0.949045  
      13A     -0.893006    14A     -0.826122    15A     -0.772338  
      16A     -0.770612    17A     -0.647594    18A     -0.621032  
      19A     -0.615173    20A     -0.598096    21A     -0.571357  
      22A     -0.563688    23A     -0.543822    24A     -0.524756  
      25A     -0.518550    26A     -0.509781    27A     -0.489280  
      28A     -0.477606    29A     -0.460872    30A     -0.459974  
      31A     -0.447360    32A     -0.435323    33A     -0.429858  

    Virtual:                                                              

      34A      0.029199    35A      0.032818    36A      0.034216  
      37A      0.035237    38A      0.046702    39A      0.046799  
      40A      0.051648    41A      0.052731    42A      0.055266  
      43A      0.066541    44A      0.070999    45A      0.072527  
      46A      0.074833    47A      0.075026    48A      0.087755  
      49A      0.094314    50A      0.098088    51A      0.101477  
      52A      0.115825    53A      0.116937    54A      0.120910  
      55A      0.123527    56A      0.129024    57A      0.131287  
      58A      0.135425    59A      0.137105    60A      0.141036  
      61A      0.143370    62A      0.147997    63A      0.149718  
      64A      0.153639    65A      0.155680    66A      0.157122  
      67A      0.165239    68A      0.168743    69A      0.170783  
      70A      0.173944    71A      0.177187    72A      0.185420  
      73A      0.187275    74A      0.190583    75A      0.196465  
      76A      0.198566    77A      0.217539    78A      0.221677  
      79A      0.229503    80A      0.230879    81A      0.238100  
      82A      0.246927    83A      0.251148    84A      0.252307  
      85A      0.261868    86A      0.276206    87A      0.282625  
      88A      0.283885    89A      0.291859    90A      0.300227  
      91A      0.300538    92A      0.303526    93A      0.307370  
      94A      0.308486    95A      0.318276    96A      0.322665  
      97A      0.325796    98A      0.328578    99A      0.330769  
     100A      0.343831   101A      0.344439   102A      0.350544  
     103A      0.351476   104A      0.351554   105A      0.358537  
     106A      0.362728   107A      0.364182   108A      0.367930  
     109A      0.372270   110A      0.377228   111A      0.377588  
     112A      0.381877   113A      0.385540   114A      0.388400  
     115A      0.393952   116A      0.395535   117A      0.400301  
     118A      0.406260   119A      0.406811   120A      0.415628  
     121A      0.417585   122A      0.419157   123A      0.423705  
     124A      0.431149   125A      0.437709   126A      0.440257  
     127A      0.444495   128A      0.447832   129A      0.456631  
     130A      0.458285   131A      0.461173   132A      0.461463  
     133A      0.464001   134A      0.466534   135A      0.473753  
     136A      0.478382   137A      0.483534   138A      0.488378  
     139A      0.489254   140A      0.492374   141A      0.497546  
     142A      0.503619   143A      0.507817   144A      0.510786  
     145A      0.515757   146A      0.519254   147A      0.521085  
     148A      0.529707   149A      0.536990   150A      0.540966  
     151A      0.543052   152A      0.551300   153A      0.552160  
     154A      0.553718   155A      0.555945   156A      0.558802  
     157A      0.560497   158A      0.566861   159A      0.572108  
     160A      0.577514   161A      0.579908   162A      0.588282  
     163A      0.594538   164A      0.601822   165A      0.601931  
     166A      0.606935   167A      0.608424   168A      0.612772  
     169A      0.620225   170A      0.623100   171A      0.630329  
     172A      0.635256   173A      0.636615   174A      0.645344  
     175A      0.646381   176A      0.658408   177A      0.661380  
     178A      0.663134   179A      0.676462   180A      0.677650  
     181A      0.681696   182A      0.685355   183A      0.689044  
     184A      0.692511   185A      0.700317   186A      0.701564  
     187A      0.709385   188A      0.711920   189A      0.715193  
     190A      0.718429   191A      0.727247   192A      0.730828  
     193A      0.733708   194A      0.743062   195A      0.752023  
     196A      0.759349   197A      0.772959   198A      0.774935  
     199A      0.794901   200A      0.798738   201A      0.807372  
     202A      0.809184   203A      0.818627   204A      0.829853  
     205A      0.832710   206A      0.844698   207A      0.847558  
     208A      0.850557   209A      0.854757   210A      0.859394  
     211A      0.868915   212A      0.871182   213A      0.872269  
     214A      0.884137   215A      0.898093   216A      0.900130  
     217A      0.908590   218A      0.910824   219A      0.915290  
     220A      0.916862   221A      0.922071   222A      0.932317  
     223A      0.933110   224A      0.940725   225A      0.941299  
     226A      0.942850   227A      0.949859   228A      0.951274  
     229A      0.955430   230A      0.959463   231A      0.974323  
     232A      0.977439   233A      0.979314   234A      0.992890  
     235A      1.002180   236A      1.002766   237A      1.004823  
     238A      1.008940   239A      1.013479   240A      1.014190  
     241A      1.021018   242A      1.024690   243A      1.035143  
     244A      1.040387   245A      1.043684   246A      1.047459  
     247A      1.057496   248A      1.058067   249A      1.063512  
     250A      1.081823   251A      1.082628   252A      1.086545  
     253A      1.097261   254A      1.099703   255A      1.100407  
     256A      1.107492   257A      1.117343   258A      1.117763  
     259A      1.123109   260A      1.128802   261A      1.128840  
     262A      1.145473   263A      1.145848   264A      1.152240  
     265A      1.159606   266A      1.160442   267A      1.166343  
     268A      1.173755   269A      1.174651   270A      1.181926  
     271A      1.184420   272A      1.191646   273A      1.200227  
     274A      1.205445   275A      1.211671   276A      1.221019  
     277A      1.225328   278A      1.234154   279A      1.238733  
     280A      1.243749   281A      1.252497   282A      1.256675  
     283A      1.259297   284A      1.260807   285A      1.263630  
     286A      1.264378   287A      1.273330   288A      1.278020  
[...]
	 D(22,21,24,25)   =        -1.592449	     -91.240580
	 D(22,21,24,26)   =         0.428642	      24.559364
	 D(23,21,24,25)   =         2.673057	     153.154859
	 D(23,21,24,26)   =        -1.589038	     -91.045196
	 R(1,21)          =         6.429041	       3.402102
	 R(5,18)          =         6.429040	       3.402101

	Current energy   :      -314.9779351667

	Energy change for the previous step:
		Projected    :        -0.0000000000
		Actual       :        -0.0000000010

	Performing BFGS update.
	Previous computed or guess Hessian on step 1.
	Denominators (dg)(dq) or (dq)(dq) are very small.
	 Skipping Hessian update for step 13.
	Denominators (dg)(dq) or (dq)(dq) are very small.
	 Skipping Hessian update for step 12.
	Denominators (dg)(dq) or (dq)(dq) are very small.
	 Skipping Hessian update for step 11.
	Denominators (dg)(dq) or (dq)(dq) are very small.
	 Skipping Hessian update for step 10.
	Denominators (dg)(dq) or (dq)(dq) are very small.
	 Skipping Hessian update for step 9.
	Denominators (dg)(dq) or (dq)(dq) are very small.
	 Skipping Hessian update for step 8.
	Denominators (dg)(dq) or (dq)(dq) are very small.
	 Skipping Hessian update for step 7.
	Denominators (dg)(dq) or (dq)(dq) are very small.
	 Skipping Hessian update for step 6.
	Denominators (dg)(dq) or (dq)(dq) are very small.
	 Skipping Hessian update for step 5.
	Denominators (dg)(dq) or (dq)(dq) are very small.
	 Skipping Hessian update for step 4.
	Denominators (dg)(dq) or (dq)(dq) are very small.
	 Skipping Hessian update for step 3.
	Denominators (dg)(dq) or (dq)(dq) are very small.
	 Skipping Hessian update for step 2.
	Steps to be used in Hessian update: 1
	Taking RFO optimization step.
	Going to follow RFO solution 1.
	Rejecting RFO root 1 because normalization gives large value.
	Using RFO vector 2.
	Norm of target step-size    0.00002
	Projected energy change by RFO approximation:        -0.0000000000

	Back-transformation to cartesian coordinates...
	Successfully converged to displaced geometry.

	--- Internal Coordinate Step in ANG or DEG, aJ/ANG or AJ/DEG ---
	 ---------------------------------------------------------------------------
	   Coordinate                Previous        Force       Change         New 
	   ----------                --------       ------       ------       ------
	    1 R(1,2)          =      1.089445    -0.000003     0.000000     1.089445
	    2 R(1,3)          =      1.090080    -0.000001     0.000000     1.090080
	    3 R(1,4)          =      1.091166    -0.000002     0.000000     1.091166
	    4 R(1,9)          =      1.524533    -0.000000    -0.000000     1.524533
	    5 R(5,6)          =      1.090079    -0.000001    -0.000000     1.090079
	    6 R(5,7)          =      1.091165    -0.000001    -0.000000     1.091165
	    7 R(5,8)          =      1.089444    -0.000001    -0.000000     1.089444
	    8 R(5,12)         =      1.524533    -0.000000    -0.000000     1.524533
	    9 R(9,10)         =      1.092696    -0.000001     0.000000     1.092696
	   10 R(9,11)         =      1.093634    -0.000003     0.000000     1.093634
	   11 R(9,15)         =      1.528422    -0.000001    -0.000000     1.528422
	   12 R(12,13)        =      1.093633    -0.000000     0.000000     1.093633
	   13 R(12,14)        =      1.092695    -0.000000     0.000000     1.092695
	   14 R(12,24)        =      1.528422     0.000000     0.000000     1.528422
	   15 R(15,16)        =      1.095011    -0.000003     0.000000     1.095011
	   16 R(15,17)        =      1.092301    -0.000001     0.000000     1.092301
	   17 R(15,18)        =      1.534601    -0.000002    -0.000000     1.534601
	   18 R(18,19)        =      1.093329    -0.000004    -0.000000     1.093329
	   19 R(18,20)        =      1.092845    -0.000005    -0.000000     1.092845
	   20 R(18,21)        =      1.529818    -0.000001    -0.000000     1.529818
	   21 R(21,22)        =      1.093329    -0.000003    -0.000000     1.093329
	   22 R(21,23)        =      1.092845    -0.000004    -0.000000     1.092845
	   23 R(21,24)        =      1.534600     0.000000     0.000000     1.534601
	   24 R(24,25)        =      1.095010    -0.000001     0.000000     1.095010
	   25 R(24,26)        =      1.092300    -0.000000     0.000000     1.092300
	   26 B(1,9,10)       =    109.007746    -0.000000    -0.000010   109.007736
	   27 B(1,9,11)       =    109.260605    -0.000000    -0.000000   109.260605
	   28 B(1,9,15)       =    114.619562     0.000000     0.000050   114.619611
	   29 B(2,1,3)        =    107.505719     0.000000     0.000002   107.505722
	   30 B(2,1,4)        =    107.846233     0.000000    -0.000008   107.846225
	   31 B(2,1,9)        =    111.540778    -0.000000     0.000015   111.540793
	   32 B(3,1,4)        =    107.942190    -0.000000    -0.000000   107.942190
	   33 B(3,1,9)        =    110.898955     0.000000    -0.000008   110.898948
	   34 B(4,1,9)        =    110.944672    -0.000000    -0.000002   110.944670
	   35 B(5,12,13)      =    109.260572     0.000000     0.000007   109.260579
	   36 B(5,12,14)      =    109.007902    -0.000000     0.000002   109.007904
	   37 B(5,12,24)      =    114.619288     0.000000     0.000003   114.619291
	   38 B(6,5,7)        =    107.942204    -0.000000     0.000004   107.942208
	   39 B(6,5,8)        =    107.505732     0.000000     0.000009   107.505741
	   40 B(6,5,12)       =    110.899100     0.000000     0.000018   110.899118
	   41 B(7,5,8)        =    107.846253     0.000000    -0.000009   107.846244
	   42 B(7,5,12)       =    110.944667    -0.000000    -0.000012   110.944654
	   43 B(8,5,12)       =    111.540595    -0.000000    -0.000008   111.540586
	   44 B(9,15,16)      =    109.351572     0.000000    -0.000004   109.351569
	   45 B(9,15,17)      =    107.846713    -0.000000    -0.000024   107.846689
	   46 B(9,15,18)      =    114.620458     0.000000     0.000031   114.620489
	   47 B(10,9,11)      =    106.337628     0.000000    -0.000011   106.337617
	   48 B(10,9,15)      =    108.661000    -0.000000    -0.000022   108.660978
	   49 B(11,9,15)      =    108.632098    -0.000000    -0.000010   108.632088
	   50 B(12,24,21)     =    114.620245     0.000000     0.000008   114.620253
	   51 B(12,24,25)     =    109.351540     0.000000    -0.000004   109.351536
	   52 B(12,24,26)     =    107.846872    -0.000000    -0.000017   107.846855
	   53 B(13,12,14)     =    106.337668     0.000000    -0.000005   106.337663
	   54 B(13,12,24)     =    108.632061    -0.000000    -0.000012   108.632049
	   55 B(14,12,24)     =    108.661169     0.000000     0.000004   108.661173
	   56 B(15,18,19)     =    109.358656     0.000000     0.000008   109.358664
	   57 B(15,18,20)     =    109.373939     0.000000    -0.000014   109.373925
	   58 B(15,18,21)     =    114.077419    -0.000000    -0.000001   114.077417
	   59 B(16,15,17)     =    106.238033     0.000000     0.000001   106.238034
	   60 B(16,15,18)     =    109.179550    -0.000000    -0.000016   109.179534
	   61 B(17,15,18)     =    109.268799     0.000000     0.000009   109.268808
	   62 B(18,21,22)     =    107.168358     0.000000     0.000011   107.168369
	   63 B(18,21,23)     =    110.577376     0.000000    -0.000019   110.577357
	   64 B(18,21,24)     =    114.077280    -0.000000    -0.000016   114.077264
	   65 B(19,18,20)     =    105.942523    -0.000000    -0.000003   105.942520
	   66 B(19,18,21)     =    107.168302     0.000000     0.000024   107.168325
	   67 B(20,18,21)     =    110.577370     0.000000    -0.000013   110.577357
	   68 B(21,24,25)     =    109.179545    -0.000000    -0.000016   109.179529
	   69 B(21,24,26)     =    109.268896     0.000000     0.000027   109.268923
	   70 B(22,21,23)     =    105.942524    -0.000000    -0.000003   105.942521
	   71 B(22,21,24)     =    109.358737     0.000000     0.000032   109.358769
	   72 B(23,21,24)     =    109.373945     0.000000    -0.000003   109.373943
	   73 B(25,24,26)     =    106.238044     0.000000     0.000002   106.238046
	   74 D(1,9,15,16)    =    -61.694254    -0.000000    -0.000097   -61.694351
	   75 D(1,9,15,17)    =   -176.808899    -0.000000    -0.000083  -176.808982
	   76 D(1,9,15,18)    =     61.260041    -0.000000    -0.000098    61.259943
	   77 D(2,1,9,10)     =    173.235478     0.000000     0.000126   173.235604
	   78 D(2,1,9,11)     =     57.416555     0.000000     0.000145    57.416701
	   79 D(2,1,9,15)     =    -64.751057     0.000000     0.000124   -64.750933
	   80 D(3,1,9,10)     =     53.441240     0.000000     0.000118    53.441358
	   81 D(3,1,9,11)     =    -62.377683     0.000000     0.000138   -62.377545
	   82 D(3,1,9,15)     =    175.454705     0.000000     0.000116   175.454822
	   83 D(4,1,9,10)     =    -66.508042    -0.000000     0.000125   -66.507917
	   84 D(4,1,9,11)     =    177.673036    -0.000000     0.000144   177.673180
	   85 D(4,1,9,15)     =     55.505424     0.000000     0.000122    55.505546
	   86 D(5,12,24,21)   =     61.259136    -0.000000     0.000109    61.259245
	   87 D(5,12,24,25)   =    -61.694976     0.000000     0.000128   -61.694848
	   88 D(5,12,24,26)   =   -176.809703     0.000000     0.000137  -176.809566
	   89 D(6,5,12,13)    =    -62.377156     0.000000     0.000169   -62.376987
	   90 D(6,5,12,14)    =     53.441882    -0.000000     0.000169    53.442051
	   91 D(6,5,12,24)    =    175.455496     0.000000     0.000178   175.455674
	   92 D(7,5,12,13)    =    177.673453     0.000000     0.000161   177.673613
	   93 D(7,5,12,14)    =    -66.507509    -0.000000     0.000160   -66.507349
	   94 D(7,5,12,24)    =     55.506105     0.000000     0.000169    55.506274
	   95 D(8,5,12,13)    =     57.417074     0.000000     0.000186    57.417260
	   96 D(8,5,12,14)    =    173.236112     0.000000     0.000186   173.236298
	   97 D(8,5,12,24)    =    -64.750274     0.000000     0.000195   -64.750079
	   98 D(9,15,18,19)   =    145.714040    -0.000000     0.000008   145.714048
	   99 D(9,15,18,20)   =     30.109530    -0.000000     0.000015    30.109545
	  100 D(9,15,18,21)   =    -94.307026    -0.000000     0.000043   -94.306983
	  101 D(10,9,15,16)   =     60.507701     0.000000    -0.000092    60.507608
	  102 D(10,9,15,17)   =    -54.606945     0.000000    -0.000079   -54.607023
	  103 D(10,9,15,18)   =   -176.538004    -0.000000    -0.000094  -176.538098
	  104 D(11,9,15,16)   =    175.797343     0.000000    -0.000123   175.797220
	  105 D(11,9,15,17)   =     60.682697    -0.000000    -0.000109    60.682588
	  106 D(11,9,15,18)   =    -61.248363    -0.000000    -0.000124   -61.248487
	  107 D(12,24,21,18)  =    -94.308289    -0.000000     0.000031   -94.308259
	  108 D(12,24,21,22)  =    145.712739    -0.000000     0.000004   145.712743
	  109 D(12,24,21,23)  =     30.108179    -0.000000    -0.000008    30.108171
	  110 D(13,12,24,21)  =    -61.249008    -0.000000     0.000108   -61.248900
	  111 D(13,12,24,25)  =    175.796880     0.000000     0.000126   175.797007
	  112 D(13,12,24,26)  =     60.682153     0.000000     0.000135    60.682288
	  113 D(14,12,24,21)  =   -176.538767    -0.000000     0.000118  -176.538650
	  114 D(14,12,24,25)  =     60.507121     0.000000     0.000136    60.507257
	  115 D(14,12,24,26)  =    -54.607606     0.000000     0.000145   -54.607461
	  116 D(15,18,21,22)  =    -58.631217     0.000000    -0.000143   -58.631360
	  117 D(15,18,21,23)  =     56.396762     0.000000    -0.000151    56.396611
	  118 D(15,18,21,24)  =   -179.833036     0.000000    -0.000182  -179.833217
	  119 D(16,15,18,19)  =    -91.239082    -0.000000     0.000013   -91.239069
	  120 D(16,15,18,20)  =    153.156408    -0.000000     0.000020   153.156428
	  121 D(16,15,18,21)  =     28.739851    -0.000000     0.000048    28.739900
	  122 D(17,15,18,19)  =     24.560798    -0.000000     0.000010    24.560809
	  123 D(17,15,18,20)  =    -91.043711    -0.000000     0.000017   -91.043694
	  124 D(17,15,18,21)  =    144.539732    -0.000000     0.000045   144.539778
	  125 D(18,21,24,25)  =     28.738391     0.000000     0.000018    28.738409
	  126 D(18,21,24,26)  =    144.538336     0.000000     0.000027   144.538363
	  127 D(19,18,21,22)  =     62.570549     0.000000    -0.000117    62.570431
	  128 D(19,18,21,23)  =    177.598527     0.000000    -0.000125   177.598402
	  129 D(19,18,21,24)  =    -58.631271     0.000000    -0.000156   -58.631426
	  130 D(20,18,21,22)  =    177.598491     0.000000    -0.000114   177.598376
	  131 D(20,18,21,23)  =    -67.373531     0.000000    -0.000122   -67.373653
	  132 D(20,18,21,24)  =     56.396672     0.000000    -0.000153    56.396519
	  133 D(22,21,24,25)  =    -91.240580     0.000000    -0.000008   -91.240589
	  134 D(22,21,24,26)  =     24.559364     0.000000     0.000000    24.559365
	  135 D(23,21,24,25)  =    153.154859    -0.000000    -0.000021   153.154839
	  136 D(23,21,24,26)  =    -91.045196    -0.000000    -0.000012   -91.045208
	  137 R(1,21)         =      3.402102    -0.000000     0.000000     3.402102
	  138 R(5,18)         =      3.402101    -0.000000     0.000000     3.402102
	 ---------------------------------------------------------------------------

  ==> Convergence Check <==

  Measures of convergence in internal coordinates in au.
  Criteria marked as inactive (o), active & met (*), and active & unmet ( ).
  ---------------------------------------------------------------------------------------------
   Step     Total Energy     Delta E     MAX Force     RMS Force      MAX Disp      RMS Disp   
  ---------------------------------------------------------------------------------------------
    Convergence Criteria             o    2.00e-06 *    1.00e-06 *    6.00e-06 *    4.00e-06 *
  ---------------------------------------------------------------------------------------------
     14    -314.97793517   -1.05e-09 o    6.19e-07 *    1.15e-07 *    3.40e-06 *    1.39e-06 *  ~
  ---------------------------------------------------------------------------------------------


  **** Optimization is complete! (in 14 steps) ****

  ==> Optimization Summary <==

  Measures of convergence in internal coordinates in au.
  --------------------------------------------------------------------------------------------------------------- ~
   Step         Total Energy             Delta E       MAX Force       RMS Force        MAX Disp        RMS Disp  ~
  --------------------------------------------------------------------------------------------------------------- ~
      1    -314.977935166021   -314.977935166021      0.00000061      0.00000016      0.00005438      0.00001666  ~
      2    -314.977935167864     -0.000000001843      0.00000086      0.00000026      0.00003137      0.00001462  ~
      3    -314.977935166099      0.000000001765      0.00000312      0.00000068      0.00002906      0.00001138  ~
      4    -314.977935167419     -0.000000001320      0.00000118      0.00000023      0.00001179      0.00000450  ~
      5    -314.977935168786     -0.000000001367      0.00000204      0.00000046      0.00006777      0.00001886  ~
      6    -314.977935163390      0.000000005396      0.00000454      0.00000103      0.00007629      0.00001953  ~
      7    -314.977935166819     -0.000000003429      0.00000063      0.00000012      0.00001014      0.00000356  ~
      8    -314.977935169047     -0.000000002228      0.00000190      0.00000048      0.00001406      0.00000439  ~
      9    -314.977935166198      0.000000002849      0.00000192      0.00000045      0.00005094      0.00001557  ~
     10    -314.977935170395     -0.000000004197      0.00000320      0.00000079      0.00005000      0.00001579  ~
     11    -314.977935163947      0.000000006448      0.00000099      0.00000020      0.00001224      0.00000431  ~
     12    -314.977935168025     -0.000000004078      0.00000154      0.00000029      0.00001188      0.00000352  ~
     13    -314.977935165693      0.000000002333      0.00000151      0.00000033      0.00000628      0.00000232  ~
     14    -314.977935166739     -0.000000001046      0.00000062      0.00000011      0.00000340      0.00000139  ~
  --------------------------------------------------------------------------------------------------------------- ~

	Writing optimization data to binary file.
	Final energy is   -314.9779351667386
	Final (previous) structure:
	Cartesian Geometry (in Angstrom)
	    C     2.0433681619   0.7393628013  -1.3760622509
	    H     0.9963322247   0.5595647089  -1.6174714466
	    H     2.5988440947   0.7506636004  -2.3139280177
	    H     2.1178359278   1.7320863189  -0.9292981512
	    C    -2.0433368771  -0.7394081651  -1.3760659945
	    H    -2.5987887412  -0.7507449718  -2.3139448762
	    H    -2.1178039652  -1.7321177108  -0.9292727261
	    H    -0.9962978733  -0.5596047762  -1.6174539734
	    C     2.5910642890  -0.3254129690  -0.4324088464
	    H     3.6670679550  -0.1765184497  -0.3139574230
	    H     2.4653257744  -1.3112123461  -0.8889437215
	    C    -2.5910651970   0.3253911682  -0.4324581939
	    H    -2.4653336612   1.3111758288  -0.8890244516
	    H    -3.6670675514   0.1764855635  -0.3140167448
	    C     1.9443540193  -0.3424896177   0.9523467617
	    H     2.1284604840   0.6150435054   1.4506284985
	    H     2.4540905176  -1.1010773116   1.5505395398
	    C     0.4365609104  -0.6280683713   0.9503054634
	    H     0.1753189172  -1.2026523724   1.8430392370
	    H     0.1898223980  -1.2673781119   0.0990039710
	    C    -0.4365781309   0.6281053787   0.9502619566
	    H    -0.1753464212   1.2027452500   1.8429625547
	    H    -0.1898311683   1.2673619753   0.0989235683
	    C    -1.9443703035   0.3425231418   0.9523035205
	    H    -2.1284775707  -0.6149915333   1.4506183365
	    H    -2.4541140968   1.1011307450   1.5504637586
	Saving final (previous) structure.
			--------------------------
			 OPTKING Finished Execution 
			--------------------------

    Final optimized geometry and variables:
    Molecular point group: c1
    Full point group: C1

    Geometry (in Angstrom), charge = 0, multiplicity = 1:

    C            2.043368161892     0.739362801334    -1.376062250879
    H            0.996332224658     0.559564708879    -1.617471446609
    H            2.598844094717     0.750663600427    -2.313928017701
    H            2.117835927770     1.732086318932    -0.929298151231
    C           -2.043336877140    -0.739408165091    -1.376065994493
    H           -2.598788741248    -0.750744971783    -2.313944876167
    H           -2.117803965169    -1.732117710837    -0.929272726064
    H           -0.996297873338    -0.559604776249    -1.617453973393
    C            2.591064289024    -0.325412969037    -0.432408846435
    H            3.667067954972    -0.176518449665    -0.313957422982
    H            2.465325774393    -1.311212346141    -0.888943721510
    C           -2.591065196972     0.325391168170    -0.432458193863
    H           -2.465333661200     1.311175828817    -0.889024451626
    H           -3.667067551413     0.176485563481    -0.314016744834
    C            1.944354019273    -0.342489617731     0.952346761685
    H            2.128460484006     0.615043505392     1.450628498501
    H            2.454090517635    -1.101077311648     1.550539539831
    C            0.436560910364    -0.628068371337     0.950305463400
    H            0.175318917204    -1.202652372444     1.843039237021
    H            0.189822398035    -1.267378111944     0.099003970987
    C           -0.436578130914     0.628105378713     0.950261956632
    H           -0.175346421162     1.202745249989     1.842962554726
    H           -0.189831168317     1.267361975273     0.098923568277
    C           -1.944370303482     0.342523141773     0.952303520453
    H           -2.128477570732    -0.614991533328     1.450618336530
    H           -2.454114096792     1.101130745012     1.550463758555

	Cleaning optimization helper files.

*** Psi4 exiting successfully. Buy a developer a beer!
