    -----------------------------------------------------------------------
          Psi4: An Open-Source Ab Initio Electronic Structure Package
                              Psi4 1.0.0 Driver

                          Git: Rev {master} 6a9a71b dirty

    J. M. Turney, A. C. Simmonett, R. M. Parrish, E. G. Hohenstein,
    F. A. Evangelista, J. T. Fermann, B. J. Mintz, L. A. Burns, J. J. Wilke,
    M. L. Abrams, N. J. Russ, M. L. Leininger, C. L. Janssen, E. T. Seidl,
    W. D. Allen, H. F. Schaefer, R. A. King, E. F. Valeev, C. D. Sherrill,
    and T. D. Crawford, WIREs Comput. Mol. Sci. 2, 556-565 (2012)
    (doi: 10.1002/wcms.93)

                         Additional Contributions by
    A. E. DePrince, U. Bozkaya, A. Yu. Sokolov, D. G. A. Smith, R. Di Remigio,
    R. M. Richard, J. F. Gonthier, H. R. McAlexander, M. Saitow, and
    B. P. Pritchard
    -----------------------------------------------------------------------


    Psi4 started on: Thu Sep 22 00:03:36 2016

    Process ID:   3612
    PSI4DATADIR: /usr/local/hpc5/psi4conda/share/psi4
    Memory level set to 256.000 MB

  ==> Input File <==

--------------------------------------------------------------------------
memory 60 Gb

molecule molecule_66_psi {
0 1
C           -3.824396605929    -0.314024271291    -0.557208290932
H           -4.630051374534    -1.011676062008    -0.329818804001
H           -3.573704343343    -0.423575042452    -1.613074880161
H           -4.204969674652     0.697479068045    -0.410143870793
C            2.707776997429    -1.396229197971     0.133436382425
H            2.002065816898    -2.009946207317    -0.428919579035
H            2.311271638186    -1.269101874549     1.140602032463
H            3.642793819564    -1.950403781112     0.214823198276
C           -2.600897003446    -0.562378600279     0.316274772161
H           -2.248118385577    -1.587577922475     0.175430696579
H           -2.874806858364    -0.471710339824     1.370830632478
C            2.926971535016    -0.052976937269    -0.553461916991
H            3.627238065007     0.544535056732     0.036924754898
H            3.402519202922    -0.218554122567    -1.523067783292
C           -1.462003451607     0.402304587270     0.010961862178
H           -1.813098861829     1.430955446030     0.144280950819
H           -1.186832797552     0.305243720340    -1.043530202791
C           -0.239245581122     0.175994580477     0.892698401192
H            0.079696501041    -0.865485225582     0.802428674650
H           -0.530676675834     0.323651462676     1.936663176477
C            0.923677834930     1.109116391206     0.549240337021
H            0.532230486836     2.128378739947     0.494407825143
H            1.652605751494     1.108346209673     1.365119040025
C            1.646819165417     0.756055097574    -0.759972097121
H            0.971810334571     0.196024275024    -1.414028396761
H            1.902925518827     1.670058127863    -1.299582228441
}

set globals {
  reference rhf
  g_convergence gau_verytight
  basis aug-cc-pvtz
  freeze_core true
  scf_type df
  mp_type df
}
optimize('mp2')
--------------------------------------------------------------------------
/usr/local/hpc5/psi4conda/lib/python2.7/site-packages/v2rdm_casscf/v2rdm_casscf.so loaded.

  Memory set to  60.000 GiB by Python script.
gradient() will perform analytic gradient computation.

*** tstart() called on wr42
*** at Thu Sep 22 00:03:37 2016


         ---------------------------------------------------------
                                   SCF
            by Justin Turney, Rob Parrish, and Andy Simmonett
                              RHF Reference
                       12 Threads,  60000 MiB Core
         ---------------------------------------------------------

  ==> Geometry <==

    Molecular point group: c1
    Full point group: C1

    Geometry (in Angstrom), charge = 0, multiplicity = 1:

       Center              X                  Y                   Z               Mass       
    ------------   -----------------  -----------------  -----------------  -----------------
           C         -3.824396605929    -0.314024271291    -0.557208290932    12.000000000000
           H         -4.630051374534    -1.011676062008    -0.329818804001     1.007825032070
           H         -3.573704343343    -0.423575042452    -1.613074880161     1.007825032070
           H         -4.204969674652     0.697479068045    -0.410143870793     1.007825032070
           C          2.707776997429    -1.396229197971     0.133436382425    12.000000000000
           H          2.002065816898    -2.009946207317    -0.428919579035     1.007825032070
           H          2.311271638186    -1.269101874549     1.140602032463     1.007825032070
           H          3.642793819564    -1.950403781112     0.214823198276     1.007825032070
           C         -2.600897003446    -0.562378600279     0.316274772161    12.000000000000
           H         -2.248118385577    -1.587577922475     0.175430696579     1.007825032070
           H         -2.874806858364    -0.471710339824     1.370830632478     1.007825032070
           C          2.926971535016    -0.052976937269    -0.553461916991    12.000000000000
           H          3.627238065007     0.544535056732     0.036924754898     1.007825032070
           H          3.402519202922    -0.218554122567    -1.523067783292     1.007825032070
           C         -1.462003451607     0.402304587270     0.010961862178    12.000000000000
           H         -1.813098861829     1.430955446030     0.144280950819     1.007825032070
           H         -1.186832797552     0.305243720340    -1.043530202791     1.007825032070
           C         -0.239245581122     0.175994580477     0.892698401192    12.000000000000
           H          0.079696501041    -0.865485225582     0.802428674650     1.007825032070
           H         -0.530676675834     0.323651462676     1.936663176477     1.007825032070
           C          0.923677834930     1.109116391206     0.549240337021    12.000000000000
           H          0.532230486836     2.128378739947     0.494407825143     1.007825032070
           H          1.652605751494     1.108346209673     1.365119040025     1.007825032070
           C          1.646819165417     0.756055097574    -0.759972097121    12.000000000000
           H          0.971810334571     0.196024275024    -1.414028396761     1.007825032070
           H          1.902925518827     1.670058127863    -1.299582228441     1.007825032070

  Running in c1 symmetry.

  Rotational constants: A =      0.13254  B =      0.02437  C =      0.02337 [cm^-1]
  Rotational constants: A =   3973.33095  B =    730.59026  C =    700.70896 [MHz]
  Nuclear repulsion =  392.795423582981584

  Charge       = 0
  Multiplicity = 1
  Electrons    = 66
  Nalpha       = 33
  Nbeta        = 33

  ==> Algorithm <==

  SCF Algorithm Type is DF.
  DIIS enabled.
  MOM disabled.
  Fractional occupation disabled.
  Guess Type is SAD.
  Energy threshold   = 1.00e-10
  Density threshold  = 1.00e-10
  Integral threshold = 0.00e+00

  ==> Primary Basis <==

  Basis Set: AUG-CC-PVTZ
    Number of shells: 274
    Number of basis function: 782
    Number of Cartesian functions: 890
    Spherical Harmonics?: true
    Max angular momentum: 3

  ==> Pre-Iterations <==

   -------------------------------------------------------
    Irrep   Nso     Nmo     Nalpha   Nbeta   Ndocc  Nsocc
   -------------------------------------------------------
     A        782     782       0       0       0       0
   -------------------------------------------------------
    Total     782     782      33      33      33       0
   -------------------------------------------------------

  ==> Integral Setup <==

  ==> DFJK: Density-Fitted J/K Matrices <==

    J tasked:                  Yes
    K tasked:                  Yes
    wK tasked:                  No
    OpenMP threads:             12
    Integrals threads:          12
    Memory (MB):             42915
    Algorithm:                Core
    Integral Cache:           NONE
    Schwarz Cutoff:          1E-12
    Fitting Condition:       1E-12

   => Auxiliary Basis Set <=

  Basis Set: 
    Number of shells: 492
    Number of basis function: 1660
    Number of Cartesian functions: 2038
    Spherical Harmonics?: true
    Max angular momentum: 4

  Minimum eigenvalue in the overlap matrix is 1.7688741249E-06.
  Using Symmetric Orthogonalization.
  SCF Guess: Superposition of Atomic Densities via on-the-fly atomic UHF.

  ==> Iterations <==

                           Total Energy        Delta E     RMS |[F,P]|

   @DF-RHF iter   0:  -316.80758492493487   -3.16808e+02   6.93055e-03 
   @DF-RHF iter   1:  -313.26067450702988    3.54691e+00   7.87735e-04 
   @DF-RHF iter   2:  -313.49709838531840   -2.36424e-01   3.13260e-04 DIIS
   @DF-RHF iter   3:  -313.53295491261520   -3.58565e-02   1.05019e-04 DIIS
   @DF-RHF iter   4:  -313.53883614191204   -5.88123e-03   1.72543e-05 DIIS
   @DF-RHF iter   5:  -313.53902471761637   -1.88576e-04   5.41676e-06 DIIS
   @DF-RHF iter   6:  -313.53904080006430   -1.60824e-05   1.42953e-06 DIIS
   @DF-RHF iter   7:  -313.53904217594925   -1.37588e-06   2.96187e-07 DIIS
   @DF-RHF iter   8:  -313.53904224067935   -6.47301e-08   8.93030e-08 DIIS
   @DF-RHF iter   9:  -313.53904224532664   -4.64729e-09   2.53060e-08 DIIS
   @DF-RHF iter  10:  -313.53904224576013   -4.33488e-10   7.00927e-09 DIIS
   @DF-RHF iter  11:  -313.53904224579230   -3.21734e-11   1.65510e-09 DIIS
   @DF-RHF iter  12:  -313.53904224579514   -2.84217e-12   4.71444e-10 DIIS
   @DF-RHF iter  13:  -313.53904224579446    6.82121e-13   1.47742e-10 DIIS
   @DF-RHF iter  14:  -313.53904224579446    0.00000e+00   3.69761e-11 DIIS

  ==> Post-Iterations <==

    Orbital Energies (a.u.)
    -----------------------

    Doubly Occupied:                                                      

       1A    -11.213115     2A    -11.212239     3A    -11.210619  
       4A    -11.209948     5A    -11.209510     6A    -11.208914  
       7A    -11.207014     8A    -11.206959     9A     -1.093546  
      10A     -1.060203    11A     -1.008356    12A     -0.946343  
      13A     -0.888645    14A     -0.818430    15A     -0.791090  
      16A     -0.763092    17A     -0.647013    18A     -0.628814  
      19A     -0.612781    20A     -0.593053    21A     -0.572762  
      22A     -0.558124    23A     -0.544501    24A     -0.532102  
      25A     -0.516519    26A     -0.500367    27A     -0.492507  
      28A     -0.471059    29A     -0.465503    30A     -0.462866  
      31A     -0.443529    32A     -0.439944    33A     -0.434323  

    Virtual:                                                              

      34A      0.029888    35A      0.032889    36A      0.034412  
      37A      0.035081    38A      0.046191    39A      0.046889  
      40A      0.049075    41A      0.053649    42A      0.057438  
      43A      0.065179    44A      0.067565    45A      0.070623  
      46A      0.073839    47A      0.083817    48A      0.087544  
      49A      0.091545    50A      0.093465    51A      0.108657  
      52A      0.114113    53A      0.114727    54A      0.116639  
      55A      0.123217    56A      0.125851    57A      0.128249  
      58A      0.131206    59A      0.137734    60A      0.141774  
      61A      0.144376    62A      0.149088    63A      0.150054  
      64A      0.157052    65A      0.159174    66A      0.161689  
      67A      0.163916    68A      0.169901    69A      0.172823  
      70A      0.175329    71A      0.179238    72A      0.184596  
      73A      0.189863    74A      0.194747    75A      0.197914  
      76A      0.210171    77A      0.212672    78A      0.220272  
      79A      0.229226    80A      0.232078    81A      0.236807  
      82A      0.239556    83A      0.249796    84A      0.257043  
      85A      0.260326    86A      0.270887    87A      0.272118  
      88A      0.279234    89A      0.289690    90A      0.292230  
      91A      0.295832    92A      0.302289    93A      0.309921  
      94A      0.310871    95A      0.314796    96A      0.321135  
      97A      0.327896    98A      0.329319    99A      0.331052  
     100A      0.336596   101A      0.342074   102A      0.344772  
     103A      0.346862   104A      0.351494   105A      0.355530  
     106A      0.358350   107A      0.362296   108A      0.365575  
     109A      0.368795   110A      0.372162   111A      0.374373  
     112A      0.382436   113A      0.383847   114A      0.389865  
     115A      0.391604   116A      0.394599   117A      0.398587  
     118A      0.400340   119A      0.405341   120A      0.410879  
     121A      0.413877   122A      0.414653   123A      0.419920  
     124A      0.424025   125A      0.429853   126A      0.433571  
     127A      0.439143   128A      0.442010   129A      0.446539  
     130A      0.450801   131A      0.454777   132A      0.456621  
     133A      0.464265   134A      0.464770   135A      0.469532  
     136A      0.472461   137A      0.475876   138A      0.478996  
     139A      0.481552   140A      0.485920   141A      0.489380  
     142A      0.493612   143A      0.495647   144A      0.501834  
     145A      0.505192   146A      0.511144   147A      0.515407  
     148A      0.520301   149A      0.524116   150A      0.527453  
     151A      0.532413   152A      0.533684   153A      0.536808  
     154A      0.541424   155A      0.550330   156A      0.551084  
     157A      0.555023   158A      0.557586   159A      0.563266  
     160A      0.564948   161A      0.569954   162A      0.575616  
     163A      0.581822   164A      0.585775   165A      0.591150  
     166A      0.592867   167A      0.601004   168A      0.605847  
     169A      0.609254   170A      0.610780   171A      0.614075  
     172A      0.624893   173A      0.630808   174A      0.635299  
     175A      0.639989   176A      0.642722   177A      0.647577  
     178A      0.650492   179A      0.655843   180A      0.662290  
     181A      0.668244   182A      0.673620   183A      0.676693  
     184A      0.681205   185A      0.690033   186A      0.695902  
     187A      0.700717   188A      0.708579   189A      0.712877  
     190A      0.721011   191A      0.723718   192A      0.732047  
     193A      0.736377   194A      0.747349   195A      0.751529  
     196A      0.754161   197A      0.768666   198A      0.780038  
     199A      0.783738   200A      0.789074   201A      0.798281  
     202A      0.816751   203A      0.821327   204A      0.830733  
     205A      0.838438   206A      0.840266   207A      0.843873  
     208A      0.846439   209A      0.855722   210A      0.856989  
     211A      0.863125   212A      0.871211   213A      0.876451  
     214A      0.876936   215A      0.886164   216A      0.886981  
     217A      0.892047   218A      0.899715   219A      0.902773  
     220A      0.910618   221A      0.915267   222A      0.918864  
     223A      0.928782   224A      0.931090   225A      0.933468  
     226A      0.937009   227A      0.946263   228A      0.947543  
     229A      0.956345   230A      0.959967   231A      0.966519  
     232A      0.967657   233A      0.975290   234A      0.977008  
     235A      0.987190   236A      0.991866   237A      0.995060  
     238A      1.000982   239A      1.001474   240A      1.004988  
     241A      1.006851   242A      1.013544   243A      1.020270  
     244A      1.024836   245A      1.029125   246A      1.032727  
     247A      1.045600   248A      1.046381   249A      1.051450  
     250A      1.052597   251A      1.059425   252A      1.062977  
     253A      1.066938   254A      1.080799   255A      1.087027  
     256A      1.094032   257A      1.102221   258A      1.107497  
     259A      1.111437   260A      1.116568   261A      1.127443  
     262A      1.131431   263A      1.131677   264A      1.136181  
     265A      1.140648   266A      1.143413   267A      1.154448  
     268A      1.158736   269A      1.165234   270A      1.168675  
     271A      1.173624   272A      1.175911   273A      1.179684  
     274A      1.182260   275A      1.188955   276A      1.192762  
     277A      1.197531   278A      1.199746   279A      1.210334  
     280A      1.213825   281A      1.219791   282A      1.229777  
     283A      1.234692   284A      1.241846   285A      1.244856  
     286A      1.247582   287A      1.253947   288A      1.259625  
     289A      1.269345   290A      1.271887   291A      1.273500  
     292A      1.287722   293A      1.288433   294A      1.292305  
     295A      1.295419   296A      1.299147   297A      1.307556  
     298A      1.311677   299A      1.317008   300A      1.325657  
     301A      1.334348   302A      1.340278   303A      1.348131  
     304A      1.353558   305A      1.360599   306A      1.368355  
     307A      1.375976   308A      1.383976   309A      1.386874  
     310A      1.396247   311A      1.405045   312A      1.412812  
     313A      1.414723   314A      1.420910   315A      1.428708  
     316A      1.442455   317A      1.445850   318A      1.450628  
     319A      1.460385   320A      1.464034   321A      1.476847  
     322A      1.487953   323A      1.498273   324A      1.499807  
     325A      1.510344   326A      1.514483   327A      1.530397  
     328A      1.533421   329A      1.541424   330A      1.543594  
     331A      1.552099   332A      1.559206   333A      1.565642  
     334A      1.567517   335A      1.578793   336A      1.586059  
     337A      1.592543   338A      1.599902   339A      1.609652  
     340A      1.617047   341A      1.621012   342A      1.635546  
     343A      1.636378   344A      1.643692   345A      1.650584  
     346A      1.656821   347A      1.667402   348A      1.669135  
     349A      1.671389   350A      1.678929   351A      1.685258  
     352A      1.692786   353A      1.702539   354A      1.708304  
     355A      1.712915   356A      1.717888   357A      1.723096  
     358A      1.729735   359A      1.737531   360A      1.744166  
     361A      1.751191   362A      1.752737   363A      1.765732  
     364A      1.766542   365A      1.776014   366A      1.778586  
     367A      1.783780   368A      1.786771   369A      1.793389  
     370A      1.796349   371A      1.804539   372A      1.805593  
     373A      1.813756   374A      1.823720   375A      1.829507  
     376A      1.832503   377A      1.839645   378A      1.841145  
     379A      1.846970   380A      1.858126   381A      1.867843  
     382A      1.871225   383A      1.873679   384A      1.877595  
     385A      1.887143   386A      1.893307   387A      1.901522  
     388A      1.906038   389A      1.921611   390A      1.922145  
     391A      1.928707   392A      1.936373   393A      1.950004  
     394A      1.951862   395A      1.953380   396A      1.962381  
     397A      1.975520   398A      1.977061   399A      1.981393  
     400A      1.988091   401A      1.994738   402A      1.997647  
     403A      2.009714   404A      2.019033   405A      2.022314  
     406A      2.030015   407A      2.032268   408A      2.041551  
     409A      2.049112   410A      2.058635   411A      2.068250  
     412A      2.073423   413A      2.075608   414A      2.079705  
     415A      2.093624   416A      2.100577   417A      2.102905  
     418A      2.120498   419A      2.137301   420A      2.143949  
     421A      2.146230   422A      2.150950   423A      2.158994  
     424A      2.172490   425A      2.179607   426A      2.194030  
     427A      2.205892   428A      2.210309   429A      2.215648  
     430A      2.228364   431A      2.230763   432A      2.239123  
     433A      2.245563   434A      2.254037   435A      2.262918  
     436A      2.269724   437A      2.287259   438A      2.288659  
     439A      2.301395   440A      2.303856   441A      2.314038  
     442A      2.318160   443A      2.327340   444A      2.336881  
     445A      2.339778   446A      2.350564   447A      2.360892  
     448A      2.366053   449A      2.376008   450A      2.385952  
     451A      2.403238   452A      2.418575   453A      2.425130  
     454A      2.439447   455A      2.447723   456A      2.458248  
     457A      2.465900   458A      2.469664   459A      2.479409  
     460A      2.484217   461A      2.493482   462A      2.498451  
     463A      2.519088   464A      2.534272   465A      2.547624  
     466A      2.557605   467A      2.564156   468A      2.575384  
     469A      2.582021   470A      2.597038   471A      2.604573  
     472A      2.616543   473A      2.627177   474A      2.645536  
     475A      2.658403   476A      2.665151   477A      2.697878  
     478A      2.730027   479A      2.751344   480A      2.768584  
     481A      2.790886   482A      2.838907   483A      2.851755  
     484A      2.905434   485A      2.921572   486A      2.962615  
     487A      2.993282   488A      3.016539   489A      3.078031  
     490A      3.107372   491A      3.172438   492A      3.222630  
     493A      3.274667   494A      3.287099   495A      3.358204  
     496A      3.411207   497A      3.422663   498A      3.446614  
     499A      3.463218   500A      3.477865   501A      3.485929  
     502A      3.487519   503A      3.507477   504A      3.519695  
     505A      3.527290   506A      3.545167   507A      3.558593  
     508A      3.570048   509A      3.584086   510A      3.591225  
     511A      3.600889   512A      3.604265   513A      3.611907  
     514A      3.634477   515A      3.642480   516A      3.657693  
     517A      3.667558   518A      3.673508   519A      3.682686  
     520A      3.692984   521A      3.699124   522A      3.702795  
     523A      3.713929   524A      3.720334   525A      3.738004  
     526A      3.740892   527A      3.753657   528A      3.764541  
     529A      3.773847   530A      3.780661   531A      3.791402  
     532A      3.798187   533A      3.800346   534A      3.805551  
     535A      3.817605   536A      3.823368   537A      3.827159  
     538A      3.847193   539A      3.850845   540A      3.862744  
     541A      3.874462   542A      3.875355   543A      3.889574  
     544A      3.894358   545A      3.908984   546A      3.919288  
     547A      3.922540   548A      3.925178   549A      3.936650  
     550A      3.947744   551A      3.949470   552A      3.961403  
     553A      3.965078   554A      3.973349   555A      3.978702  
     556A      3.982817   557A      3.994299   558A      3.997475  
     559A      4.001877   560A      4.011882   561A      4.015876  
     562A      4.028684   563A      4.038704   564A      4.045613  
     565A      4.046799   566A      4.064927   567A      4.070524  
     568A      4.072196   569A      4.078640   570A      4.088884  
     571A      4.092709   572A      4.099383   573A      4.115925  
     574A      4.116236   575A      4.124599   576A      4.144482  
     577A      4.152042   578A      4.156901   579A      4.159377  
     580A      4.164562   581A      4.174111   582A      4.179378  
     583A      4.195994   584A      4.219646   585A      4.226294  
     586A      4.234412   587A      4.255489   588A      4.256810  
     589A      4.262373   590A      4.267578   591A      4.281137  
     592A      4.292614   593A      4.305543   594A      4.310429  
     595A      4.319341   596A      4.323409   597A      4.340648  
     598A      4.353900   599A      4.368002   600A      4.376267  
     601A      4.390290   602A      4.396975   603A      4.405831  
     604A      4.414640   605A      4.421609   606A      4.452958  
     607A      4.454440   608A      4.458024   609A      4.479820  
     610A      4.489941   611A      4.490873   612A      4.514683  
     613A      4.519116   614A      4.539784   615A      4.552134  
     616A      4.562928   617A      4.575797   618A      4.589109  
     619A      4.603459   620A      4.615313   621A      4.618078  
     622A      4.637004   623A      4.654840   624A      4.664289  
     625A      4.687162   626A      4.693826   627A      4.706011  
     628A      4.706824   629A      4.718314   630A      4.727971  
     631A      4.739956   632A      4.748752   633A      4.754148  
     634A      4.769973   635A      4.780714   636A      4.797532  
     637A      4.809634   638A      4.820353   639A      4.829692  
     640A      4.839310   641A      4.852872   642A      4.858170  
     643A      4.867954   644A      4.875490   645A      4.888954  
     646A      4.895134   647A      4.911274   648A      4.924385  
     649A      4.937694   650A      4.943374   651A      4.957124  
     652A      4.962663   653A      4.966027   654A      4.968223  
     655A      4.981976   656A      4.991790   657A      5.012316  
     658A      5.025685   659A      5.039179   660A      5.056545  
     661A      5.072198   662A      5.083041   663A      5.100862  
     664A      5.106803   665A      5.118486   666A      5.139725  
     667A      5.143501   668A      5.157033   669A      5.179744  
     670A      5.184220   671A      5.200939   672A      5.205311  
     673A      5.213786   674A      5.232062   675A      5.235737  
     676A      5.240911   677A      5.263194   678A      5.264856  
     679A      5.273110   680A      5.287509   681A      5.303662  
     682A      5.306953   683A      5.323313   684A      5.328688  
     685A      5.344393   686A      5.360972   687A      5.367182  
     688A      5.377722   689A      5.382119   690A      5.397061  
     691A      5.398126   692A      5.417940   693A      5.424708  
     694A      5.433520   695A      5.448283   696A      5.458407  
     697A      5.469101   698A      5.477447   699A      5.481332  
     700A      5.491007   701A      5.507013   702A      5.521652  
     703A      5.523597   704A      5.545206   705A      5.576991  
     706A      5.578284   707A      5.596525   708A      5.608372  
     709A      5.614810   710A      5.631176   711A      5.638638  
     712A      5.656630   713A      5.663541   714A      5.670487  
     715A      5.687464   716A      5.706751   717A      5.720520  
     718A      5.729209   719A      5.740518   720A      5.743816  
     721A      5.758415   722A      5.764439   723A      5.773516  
     724A      5.799907   725A      5.817363   726A      5.828012  
     727A      5.850022   728A      5.861323   729A      5.884077  
     730A      5.899327   731A      5.912275   732A      5.943045  
     733A      5.965120   734A      5.997163   735A      6.004348  
     736A      6.030428   737A      6.060667   738A      6.081105  
     739A      6.101875   740A      6.115218   741A      6.137609  
     742A      6.175929   743A      6.181154   744A      6.207200  
     745A      6.216341   746A      6.223822   747A      6.246049  
     748A      6.255941   749A      6.267872   750A      6.297842  
     751A      6.311175   752A      6.319031   753A      6.332811  
     754A      6.361813   755A      6.381681   756A      6.403442  
     757A      6.421734   758A      6.462545   759A      6.536186  
     760A      6.594965   761A      6.625605   762A      6.675333  
     763A      6.729854   764A      6.782437   765A      6.805174  
     766A      6.813725   767A      6.865034   768A      6.875548  
     769A      6.945919   770A      6.973325   771A      6.985113  
     772A      7.068163   773A      7.080834   774A      7.135839  
     775A     17.965238   776A     18.044945   777A     18.441066  
     778A     18.498935   779A     18.713695   780A     18.996760  
     781A     19.553371   782A     19.700112  

    Final Occupation by Irrep:
              A 
    DOCC [    33 ]

  Energy converged.

  @DF-RHF Final Energy:  -313.53904224579446

   => Energetics <=

    Nuclear Repulsion Energy =            392.7954235829815843
    One-Electron Energy =               -1200.7413491841980431
    Two-Electron Energy =                 494.4068833554219395
    DFT Exchange-Correlation Energy =       0.0000000000000000
    Empirical Dispersion Energy =           0.0000000000000000
    PCM Polarization Energy =               0.0000000000000000
    EFP Energy =                            0.0000000000000000
    Total Energy =                       -313.5390422457945192


  Saving occupied orbitals to File 180.

*** tstop() called on wr42 at Thu Sep 22 00:04:34 2016
Module time:
	user time   =     617.47 seconds =      10.29 minutes
	system time =       6.98 seconds =       0.12 minutes
	total time  =         57 seconds =       0.95 minutes
Total time:
	user time   =     617.47 seconds =      10.29 minutes
	system time =       6.98 seconds =       0.12 minutes
	total time  =         57 seconds =       0.95 minutes


Properties will be evaluated at   0.000000,   0.000000,   0.000000 Bohr

Properties computed using the SCF density matrix

  Nuclear Dipole Moment: (a.u.)
     X:    -0.8785      Y:    -1.3156      Z:    -0.3569

  Electronic Dipole Moment: (a.u.)
     X:     0.9093      Y:     1.3307      Z:     0.3624

  Dipole Moment: (a.u.)
     X:     0.0308      Y:     0.0150      Z:     0.0055     Total:     0.0347

  Dipole Moment: (Debye)
     X:     0.0782      Y:     0.0383      Z:     0.0141     Total:     0.0882


  //>>>>>>>>>>>>>>>>>>>>>>>>>>>>>>>>>>>//
  //               DFMP2               //
  //<<<<<<<<<<<<<<<<<<<<<<<<<<<<<<<<<<<//


*** tstart() called on wr42
*** at Thu Sep 22 00:04:34 2016


*** tstop() called on wr42 at Thu Sep 22 00:04:35 2016
Module time:
	user time   =       3.38 seconds =       0.06 minutes
	system time =       0.09 seconds =       0.00 minutes
	total time  =          1 seconds =       0.02 minutes
Total time:
	user time   =     622.34 seconds =      10.37 minutes
	system time =       7.14 seconds =       0.12 minutes
	total time  =         58 seconds =       0.97 minutes
	 --------------------------------------------------------
	                          DF-MP2                         
	      2nd-Order Density-Fitted Moller-Plesset Theory     
	              RMP2 Wavefunction,  12 Threads             
	                                                         
	        Rob Parrish, Justin Turney, Andy Simmonett,      
	           Ed Hohenstein, and C. David Sherrill          
	 --------------------------------------------------------

   => Auxiliary Basis Set <=

  Basis Set: 
    Number of shells: 476
    Number of basis function: 1676
    Number of Cartesian functions: 2078
    Spherical Harmonics?: true
    Max angular momentum: 4

	 --------------------------------------------------------
	                 NBF =   782, NAUX =  1676
	 --------------------------------------------------------
	   CLASS    FOCC     OCC    AOCC    AVIR     VIR    FVIR
	   PAIRS       8      33      25     749     749       0
	 --------------------------------------------------------

DGAS Warning! /src/lib/libfock/apps.cc:80 is not currently checking restricted

         ------------------------------------------------------------
                                     CPHF                           
                                  Rob Parrish                       
         ------------------------------------------------------------

  ==> Geometry <==

    Molecular point group: c1
    Full point group: C1

    Geometry (in Angstrom), charge = 0, multiplicity = 1:

       Center              X                  Y                   Z               Mass       
    ------------   -----------------  -----------------  -----------------  -----------------
           C         -3.824396605929    -0.314024271291    -0.557208290932    12.000000000000
           H         -4.630051374534    -1.011676062008    -0.329818804001     1.007825032070
           H         -3.573704343343    -0.423575042452    -1.613074880161     1.007825032070
           H         -4.204969674652     0.697479068045    -0.410143870793     1.007825032070
           C          2.707776997429    -1.396229197971     0.133436382425    12.000000000000
           H          2.002065816898    -2.009946207317    -0.428919579035     1.007825032070
           H          2.311271638186    -1.269101874549     1.140602032463     1.007825032070
           H          3.642793819564    -1.950403781112     0.214823198276     1.007825032070
           C         -2.600897003446    -0.562378600279     0.316274772161    12.000000000000
           H         -2.248118385577    -1.587577922475     0.175430696579     1.007825032070
           H         -2.874806858364    -0.471710339824     1.370830632478     1.007825032070
           C          2.926971535016    -0.052976937269    -0.553461916991    12.000000000000
           H          3.627238065007     0.544535056732     0.036924754898     1.007825032070
           H          3.402519202922    -0.218554122567    -1.523067783292     1.007825032070
           C         -1.462003451607     0.402304587270     0.010961862178    12.000000000000
           H         -1.813098861829     1.430955446030     0.144280950819     1.007825032070
           H         -1.186832797552     0.305243720340    -1.043530202791     1.007825032070
           C         -0.239245581122     0.175994580477     0.892698401192    12.000000000000
           H          0.079696501041    -0.865485225582     0.802428674650     1.007825032070
           H         -0.530676675834     0.323651462676     1.936663176477     1.007825032070
           C          0.923677834930     1.109116391206     0.549240337021    12.000000000000
           H          0.532230486836     2.128378739947     0.494407825143     1.007825032070
           H          1.652605751494     1.108346209673     1.365119040025     1.007825032070
           C          1.646819165417     0.756055097574    -0.759972097121    12.000000000000
           H          0.971810334571     0.196024275024    -1.414028396761     1.007825032070
           H          1.902925518827     1.670058127863    -1.299582228441     1.007825032070

  Nuclear repulsion =  392.795423582981584
  Reference energy  = -313.539042245794462

  ==> Basis Set <==

  Basis Set: AUG-CC-PVTZ
    Number of shells: 274
    Number of basis function: 782
    Number of Cartesian functions: 890
    Spherical Harmonics?: true
    Max angular momentum: 3

  ==> CGRSolver (by Rob Parrish) <==

   Number of roots    =         1
   Preconditioning    =    JACOBI
   Convergence cutoff =     1E-06
   Maximum iterations =       100

  ==> CPHFRHamiltonian (by Rob Parrish) <== 

  ==> DFJK: Density-Fitted J/K Matrices <==

    J tasked:                  Yes
    K tasked:                  Yes
    wK tasked:                  No
    OpenMP threads:             12
    Integrals threads:          12
    Memory (MB):             42915
    Algorithm:                Core
    Integral Cache:           NONE
    Schwarz Cutoff:          1E-12
    Fitting Condition:       1E-12

   => Auxiliary Basis Set <=

  Basis Set: 
    Number of shells: 492
    Number of basis function: 1660
    Number of Cartesian functions: 2038
    Spherical Harmonics?: true
    Max angular momentum: 4

  ==> CPHF Iterations <==

  => Iterations <=

             Iter  Converged  Remaining    Residual
  CGR           1          0          1   9.103E-02
  CGR           2          0          1   1.298E-02
  CGR           3          0          1   3.577E-03
  CGR           4          0          1   8.452E-04
  CGR           5          0          1   2.105E-04
  CGR           6          0          1   4.878E-05
  CGR           7          0          1   1.416E-05
  CGR           8          0          1   3.768E-06
  CGR           9          0          1   1.022E-06
  CGR          10          1          0   2.321E-07

    CGRSolver converged.

  ==> DFCorrGrad: Density-Fitted Correlated Gradients <==

    OpenMP threads:             12
    Integrals threads:          12
    Memory (MB):             42915
    Schwarz Cutoff:          0E+00
    Fitting Condition:       1E-12

   => Auxiliary Basis Set <=

  Basis Set: 
    Number of shells: 492
    Number of basis function: 1660
    Number of Cartesian functions: 2038
    Spherical Harmonics?: true
    Max angular momentum: 4

	-----------------------------------------------------------
	 ==================> DF-MP2 Energies <==================== 
	-----------------------------------------------------------
	 Reference Energy          =    -313.5390422457944624 [Eh]
	 Singles Energy            =      -0.0000000000000001 [Eh]
	 Same-Spin Energy          =      -0.3161685995420764 [Eh]
	 Opposite-Spin Energy      =      -1.1254070525656672 [Eh]
	 Correlation Energy        =      -1.4415756521077436 [Eh]
	 Total Energy              =    -314.9806178979022206 [Eh]
	-----------------------------------------------------------
	 ================> DF-SCS-MP2 Energies <================== 
	-----------------------------------------------------------
	 SCS Same-Spin Scale       =       0.3333333333333333 [-]
	 SCS Opposite-Spin Scale   =       1.2000000000000000 [-]
	 SCS Same-Spin Energy      =      -0.1053895331806921 [Eh]
	 SCS Opposite-Spin Energy  =      -1.3504884630788005 [Eh]
	 SCS Correlation Energy    =      -1.4558779962594928 [Eh]
	 SCS Total Energy          =    -314.9949202420539791 [Eh]
	-----------------------------------------------------------


  -Total Gradient:
     Atom            X                  Y                   Z
    ------   -----------------  -----------------  -----------------
       1        0.000001002590    -0.000000095762     0.000000710412
       2       -0.000000623463    -0.000000600555     0.000000243993
       3        0.000000146278    -0.000000073732    -0.000001039427
       4       -0.000000448364     0.000000943364     0.000000030427
       5        0.000000452613     0.000000975396    -0.000000603783
       6       -0.000000968095    -0.000000909006    -0.000000602704
       7       -0.000000725631     0.000000027094     0.000001366145
       8        0.000000858807    -0.000000306468    -0.000000021464
       9        0.000000075147     0.000001340245    -0.000001199833
      10        0.000000277694    -0.000001461123    -0.000000063883
      11       -0.000000520183    -0.000000101396     0.000001365904
      12       -0.000001515977    -0.000000816502     0.000000299919
      13        0.000000914398     0.000000806044     0.000000770926
      14        0.000000500355    -0.000000259367    -0.000001219044
      15        0.000000323776    -0.000001955803     0.000001465134
      16       -0.000001014543     0.000001826915     0.000000076826
      17        0.000000666156     0.000000006805    -0.000001771055
      18       -0.000000775372     0.000001864206    -0.000001532291
      19        0.000001120193    -0.000002094133    -0.000000001844
      20       -0.000000537037     0.000000527552     0.000001774681
      21       -0.000000490673    -0.000001043873    -0.000000826801
      22       -0.000000839901     0.000001116139     0.000000017365
      23        0.000001197019    -0.000000036962     0.000001058758
      24        0.000001794789     0.000000134097     0.000001534329
      25       -0.000001279226    -0.000000972606    -0.000001468126
      26        0.000000408648     0.000001159432    -0.000000364564


			-----------------------------------------
			 OPTKING 2.0: for geometry optimizations 
			  - R.A. King,  Bethel University        
			-----------------------------------------

	Internal coordinates to be generated automatically.
	Detected frag 1 with atoms:  1 2 3 4 5 6 7 8 9 10 11 12 13 14 15 16 17 18 19 20
	 21 22 23 24 25 26
	---Fragment 1 Bond Connectivity---
	 1 : 2 3 4 9
	 2 : 1
	 3 : 1
	 4 : 1
	 5 : 6 7 8 12
	 6 : 5
	 7 : 5
	 8 : 5
	 9 : 1 10 11 15
	 10 : 9
	 11 : 9
	 12 : 5 13 14 24
	 13 : 12
	 14 : 12
	 15 : 9 16 17 18
	 16 : 15
	 17 : 15
	 18 : 15 19 20 21
	 19 : 18
	 20 : 18
	 21 : 18 22 23 24
	 22 : 21
	 23 : 21
	 24 : 12 21 25 26
	 25 : 24
	 26 : 24

	---Fragment 1 Geometry and Gradient---
	 C          -7.2270622087       -0.5934198718       -1.0529710688
	 H          -8.7495290791       -1.9117906924       -0.6232672130
	 H          -6.7533224888       -0.8004408270       -3.0482697553
	 H          -7.9462410822        1.3180444220       -0.7750595909
	 C           5.1169569541       -2.6384908029        0.2521582189
	 H           3.7833560939       -3.7982478737       -0.8105405374
	 H           4.3676704149       -2.3982549776        2.1554254680
	 H           6.8838826775       -3.6857289948        0.4059570117
	 C          -4.9149830364       -1.0627415375        0.5976727021
	 H          -4.2483280630       -3.0000874881        0.3315159718
	 H          -5.4325976472       -0.8914033563        2.5904944700
	 C           5.5311745999       -0.1001119028       -1.0458914481
	 H           6.8544865616        1.0290221270        0.0697776743
	 H           6.4298294554       -0.4130074369       -2.8781809922
	 C          -2.7627861289        0.7602454919        0.0207149174
	 H          -3.4262603007        2.7041139014        0.2726514832
	 H          -2.2427889529        0.5768270352       -1.9719862947
	 C          -0.4521086268        0.3325815580        1.6869554975
	 H           0.1506045607       -1.6355300484        1.5163704363
	 H          -1.0028335824        0.6116126270        3.6597630152
	 C           1.7454981430        2.0959262289        1.0379138181
	 H           1.0057698597        4.0220529256        0.9342953875
	 H           3.1229722760        2.0944707967        2.5797011244
	 C           3.1120372130        1.4287370758       -1.4361391322
	 H           1.8364553854        0.3704321952       -2.6721264140
	 H           3.5960080819        3.1559524877       -2.4558544989
	             0.0000010026       -0.0000000958        0.0000007104
	            -0.0000006235       -0.0000006006        0.0000002440
	             0.0000001463       -0.0000000737       -0.0000010394
	            -0.0000004484        0.0000009434        0.0000000304
	             0.0000004526        0.0000009754       -0.0000006038
	            -0.0000009681       -0.0000009090       -0.0000006027
	            -0.0000007256        0.0000000271        0.0000013661
	             0.0000008588       -0.0000003065       -0.0000000215
	             0.0000000751        0.0000013402       -0.0000011998
	             0.0000002777       -0.0000014611       -0.0000000639
	            -0.0000005202       -0.0000001014        0.0000013659
	            -0.0000015160       -0.0000008165        0.0000002999
	             0.0000009144        0.0000008060        0.0000007709
	             0.0000005004       -0.0000002594       -0.0000012190
	             0.0000003238       -0.0000019558        0.0000014651
	            -0.0000010145        0.0000018269        0.0000000768
	             0.0000006662        0.0000000068       -0.0000017711
	            -0.0000007754        0.0000018642       -0.0000015323
	             0.0000011202       -0.0000020941       -0.0000000018
	            -0.0000005370        0.0000005276        0.0000017747
	            -0.0000004907       -0.0000010439       -0.0000008268
	            -0.0000008399        0.0000011161        0.0000000174
	             0.0000011970       -0.0000000370        0.0000010588
	             0.0000017948        0.0000001341        0.0000015343
	            -0.0000012792       -0.0000009726       -0.0000014681
	             0.0000004086        0.0000011594       -0.0000003646

	Previous optimization step data not found.  Starting new optimization.

	---Fragment 1 Intrafragment Coordinates---
	 - Coordinate -           - BOHR/RAD -       - ANG/DEG -
	 R(1,2)           =         2.059284	       1.089726
	 R(1,3)           =         2.061190	       1.090735
	 R(1,4)           =         2.061104	       1.090689
	 R(1,9)           =         2.879340	       1.523681
	 R(5,6)           =         2.062245	       1.091293
	 R(5,7)           =         2.059507	       1.089844
	 R(5,8)           =         2.059706	       1.089949
	 R(5,12)          =         2.880951	       1.524533
	 R(9,10)          =         2.066054	       1.093308
	 R(9,11)          =         2.066064	       1.093314
	 R(9,15)          =         2.878908	       1.523453
	 R(12,13)         =         2.066595	       1.093595
	 R(12,14)         =         2.064647	       1.092564
	 R(12,24)         =         2.888234	       1.528388
	 R(15,16)         =         2.069371	       1.095064
	 R(15,17)         =         2.067583	       1.094118
	 R(15,18)         =         2.880709	       1.524406
	 R(18,19)         =         2.065388	       1.092956
	 R(18,20)         =         2.067154	       1.093891
	 R(18,21)         =         2.891386	       1.530056
	 R(21,22)         =         2.065889	       1.093222
	 R(21,23)         =         2.067497	       1.094072
	 R(21,24)         =         2.904050	       1.536757
	 R(24,25)         =         2.067555	       1.094103
	 R(24,26)         =         2.063327	       1.091866
	 B(1,9,10)        =         1.915685	     109.760692
	 B(1,9,11)        =         1.915861	     109.770748
	 B(1,9,15)        =         1.962964	     112.469565
	 B(2,1,3)         =         1.883485	     107.915768
	 B(2,1,4)         =         1.883490	     107.916017
	 B(2,1,9)         =         1.949472	     111.696537
	 B(3,1,4)         =         1.879547	     107.690112
	 B(3,1,9)         =         1.932659	     110.733218
	 B(4,1,9)         =         1.932695	     110.735291
	 B(5,12,13)       =         1.907345	     109.282792
	 B(5,12,14)       =         1.905943	     109.202517
	 B(5,12,24)       =         1.989795	     114.006863
	 B(6,5,7)         =         1.882359	     107.851210
	 B(6,5,8)         =         1.883146	     107.896310
	 B(6,5,12)        =         1.935103	     110.873230
	 B(7,5,8)         =         1.878012	     107.602137
	 B(7,5,12)        =         1.945411	     111.463863
	 B(8,5,12)        =         1.937227	     110.994937
	 B(9,15,16)       =         1.907879	     109.313393
	 B(9,15,17)       =         1.901799	     108.965042
	 B(9,15,18)       =         1.971123	     112.937024
	 B(10,9,11)       =         1.857571	     106.430955
	 B(10,9,15)       =         1.903645	     109.070821
	 B(11,9,15)       =         1.905069	     109.152409
	 B(12,24,21)      =         1.983010	     113.618078
	 B(12,24,25)      =         1.903472	     109.060930
	 B(12,24,26)      =         1.889591	     108.265601
	 B(13,12,14)      =         1.857919	     106.450921
	 B(13,12,24)      =         1.896590	     108.666630
	 B(14,12,24)      =         1.901676	     108.958031
	 B(15,18,19)      =         1.904733	     109.133182
	 B(15,18,20)      =         1.894707	     108.558703
	 B(15,18,21)      =         1.970643	     112.909515
	 B(16,15,17)      =         1.855948	     106.337972
	 B(16,15,18)      =         1.903086	     109.038792
	 B(17,15,18)      =         1.920438	     110.033017
	 B(18,21,22)      =         1.883583	     107.921347
	 B(18,21,23)      =         1.916184	     109.789233
	 B(18,21,24)      =         1.991910	     114.128060
	 B(19,18,20)      =         1.860004	     106.570397
	 B(19,18,21)      =         1.918567	     109.925774
	 B(20,18,21)      =         1.911764	     109.535997
	 B(21,24,25)      =         1.914067	     109.667972
	 B(21,24,26)      =         1.916743	     109.821298
	 B(22,21,23)      =         1.851074	     106.058752
	 B(22,21,24)      =         1.917676	     109.874732
	 B(23,21,24)      =         1.898250	     108.761693
	 B(25,24,26)      =         1.852251	     106.126193
	 D(1,9,15,16)     =         1.005458	      57.608510
	 D(1,9,15,17)     =        -1.016065	     -58.216227
	 D(1,9,15,18)     =         3.127376	     179.185462
	 D(2,1,9,10)      =         1.017010	      58.270404
	 D(2,1,9,11)      =        -1.018889	     -58.378057
	 D(2,1,9,15)      =         3.139682	     179.890533
	 D(3,1,9,10)      =        -1.082714	     -62.034938
	 D(3,1,9,11)      =        -3.118614	    -178.683398
	 D(3,1,9,15)      =         1.039958	      59.585191
	 D(4,1,9,10)      =         3.116765	     178.577474
	 D(4,1,9,11)      =         1.080865	      61.929014
	 D(4,1,9,15)      =        -1.043749	     -59.802397
	 D(5,12,24,21)    =         1.056020	      60.505513
	 D(5,12,24,25)    =        -1.084892	     -62.159756
	 D(5,12,24,26)    =        -3.092991	    -177.215342
	 D(6,5,12,13)     =         3.129530	     179.308856
	 D(6,5,12,14)     =        -1.127759	     -64.615829
	 D(6,5,12,24)     =         1.003655	      57.505188
	 D(7,5,12,13)     =         1.032295	      59.146174
	 D(7,5,12,14)     =         3.058192	     175.221489
	 D(7,5,12,24)     =        -1.093580	     -62.657494
	 D(8,5,12,13)     =        -1.060871	     -60.783407
	 D(8,5,12,14)     =         0.965026	      55.291909
	 D(8,5,12,24)     =         3.096440	     177.412925
	 D(9,15,18,19)    =         0.963600	      55.210210
	 D(9,15,18,20)    =        -1.057128	     -60.568972
	 D(9,15,18,21)    =         3.102740	     177.773909
	 D(10,9,15,16)    =         3.134970	     179.620566
	 D(10,9,15,17)    =         1.113447	      63.795829
	 D(10,9,15,18)    =        -1.026297	     -58.802482
	 D(11,9,15,16)    =        -1.125281	     -64.473841
	 D(11,9,15,17)    =         3.136381	     179.701421
	 D(11,9,15,18)    =         0.996637	      57.103110
	 D(12,24,21,18)   =        -1.714420	     -98.229011
	 D(12,24,21,22)   =         2.450603	     140.409220
	 D(12,24,21,23)   =         0.431497	      24.722972
	 D(13,12,24,21)   =        -1.075778	     -61.637552
	 D(13,12,24,25)   =         3.066494	     175.697180
	 D(13,12,24,26)   =         1.058395	      60.641593
	 D(14,12,24,21)   =        -3.093406	    -177.239120
	 D(14,12,24,25)   =         1.048866	      60.095612
	 D(14,12,24,26)   =        -0.959233	     -54.959974
	 D(15,18,21,22)   =         0.856064	      49.048853
	 D(15,18,21,23)   =         2.866197	     164.221000
	 D(15,18,21,24)   =        -1.280851	     -73.387372
	 D(16,15,18,19)   =         3.088222	     176.942061
	 D(16,15,18,20)   =         1.067494	      61.162880
	 D(16,15,18,21)   =        -1.055824	     -60.494240
	 D(17,15,18,19)   =        -1.165703	     -66.789865
	 D(17,15,18,20)   =         3.096754	     177.430953
	 D(17,15,18,21)   =         0.973437	      55.773834
	 D(18,21,24,25)   =         0.420648	      24.101335
	 D(18,21,24,26)   =         2.449681	     140.356376
	 D(19,18,21,22)   =         2.987455	     171.168558
	 D(19,18,21,23)   =        -1.285597	     -73.659295
	 D(19,18,21,24)   =         0.850540	      48.732333
	 D(20,18,21,22)   =        -1.257598	     -72.055064
	 D(20,18,21,23)   =         0.752535	      43.117083
	 D(20,18,21,24)   =         2.888672	     165.508712
	 D(22,21,24,25)   =        -1.697515	     -97.260434
	 D(22,21,24,26)   =         0.331518	      18.994607
	 D(23,21,24,25)   =         2.566565	     147.053318
	 D(23,21,24,26)   =        -1.687587	     -96.691641
	 R(5,18)          =         6.473052	       3.425392

	Current energy   :      -314.9806178979

	Generating empirical Hessian (Schlegel '84) for each fragment.
	Taking RFO optimization step.
	Going to follow RFO solution 1.
	Using RFO vector 1.
	Norm of target step-size    0.00085
	Projected energy change by RFO approximation:         0.0000000035

	Back-transformation to cartesian coordinates...
	Successfully converged to displaced geometry.

	--- Internal Coordinate Step in ANG or DEG, aJ/ANG or AJ/DEG ---
	 ---------------------------------------------------------------------------
	   Coordinate                Previous        Force       Change         New 
	   ----------                --------       ------       ------       ------
	    1 R(1,2)          =      1.089726    -0.000007    -0.000001     1.089725
	    2 R(1,3)          =      1.090735    -0.000008    -0.000002     1.090733
	    3 R(1,4)          =      1.090689    -0.000009    -0.000002     1.090688
	    4 R(1,9)          =      1.523681     0.000000     0.000000     1.523681
	    5 R(5,6)          =      1.091293    -0.000012    -0.000002     1.091291
	    6 R(5,7)          =      1.089844    -0.000012    -0.000002     1.089842
	    7 R(5,8)          =      1.089949    -0.000007    -0.000001     1.089948
	    8 R(5,12)         =      1.524533    -0.000002    -0.000001     1.524533
	    9 R(9,10)         =      1.093308    -0.000012    -0.000002     1.093306
	   10 R(9,11)         =      1.093314    -0.000012    -0.000002     1.093312
	   11 R(9,15)         =      1.523453    -0.000001    -0.000000     1.523452
	   12 R(12,13)        =      1.093595    -0.000012    -0.000002     1.093593
	   13 R(12,14)        =      1.092564    -0.000011    -0.000002     1.092562
	   14 R(12,24)        =      1.528388     0.000002    -0.000002     1.528386
	   15 R(15,16)        =      1.095064    -0.000017    -0.000003     1.095061
	   16 R(15,17)        =      1.094118    -0.000015    -0.000003     1.094115
	   17 R(15,18)        =      1.524406    -0.000000    -0.000000     1.524405
	   18 R(18,19)        =      1.092956    -0.000019    -0.000004     1.092952
	   19 R(18,20)        =      1.093891    -0.000016    -0.000003     1.093888
	   20 R(18,21)        =      1.530056    -0.000002    -0.000002     1.530054
	   21 R(21,22)        =      1.093222    -0.000011    -0.000002     1.093219
	   22 R(21,23)        =      1.094072    -0.000013    -0.000002     1.094070
	   23 R(21,24)        =      1.536757    -0.000005    -0.000003     1.536754
	   24 R(24,25)        =      1.094103    -0.000018    -0.000003     1.094100
	   25 R(24,26)        =      1.091866    -0.000010    -0.000002     1.091864
	   26 B(1,9,10)       =    109.760692     0.000000     0.000006   109.760698
	   27 B(1,9,11)       =    109.770748     0.000000     0.000098   109.770845
	   28 B(1,9,15)       =    112.469565     0.000000     0.000005   112.469570
	   29 B(2,1,3)        =    107.915768    -0.000000     0.000008   107.915776
	   30 B(2,1,4)        =    107.916017     0.000000     0.000024   107.916040
	   31 B(2,1,9)        =    111.696537     0.000000     0.000090   111.696627
	   32 B(3,1,4)        =    107.690112     0.000000     0.000015   107.690127
	   33 B(3,1,9)        =    110.733218    -0.000000    -0.000065   110.733152
	   34 B(4,1,9)        =    110.735291    -0.000000    -0.000070   110.735221
	   35 B(5,12,13)      =    109.282792    -0.000000    -0.000070   109.282722
	   36 B(5,12,14)      =    109.202517    -0.000000     0.000365   109.202883
	   37 B(5,12,24)      =    114.006863     0.000000    -0.000693   114.006170
	   38 B(6,5,7)        =    107.851210     0.000000     0.000075   107.851285
	   39 B(6,5,8)        =    107.896310    -0.000000    -0.000001   107.896309
	   40 B(6,5,12)       =    110.873230    -0.000000    -0.000068   110.873162
	   41 B(7,5,8)        =    107.602137    -0.000000    -0.000049   107.602088
	   42 B(7,5,12)       =    111.463863    -0.000000    -0.000090   111.463773
	   43 B(8,5,12)       =    110.994937     0.000000     0.000135   110.995072
	   44 B(9,15,16)      =    109.313393     0.000000     0.000132   109.313524
	   45 B(9,15,17)      =    108.965042    -0.000000    -0.000100   108.964941
	   46 B(9,15,18)      =    112.937024     0.000000     0.000030   112.937054
	   47 B(10,9,11)      =    106.430955     0.000000     0.000107   106.431062
	   48 B(10,9,15)      =    109.070821    -0.000000    -0.000123   109.070698
	   49 B(11,9,15)      =    109.152409    -0.000000    -0.000088   109.152320
	   50 B(12,24,21)     =    113.618078    -0.000000    -0.000797   113.617281
	   51 B(12,24,25)     =    109.060930     0.000000    -0.000083   109.060847
	   52 B(12,24,26)     =    108.265601    -0.000000     0.000425   108.266026
	   53 B(13,12,14)     =    106.450921     0.000000     0.000104   106.451025
	   54 B(13,12,24)     =    108.666630    -0.000000     0.000053   108.666683
	   55 B(14,12,24)     =    108.958031    -0.000000     0.000291   108.958321
	   56 B(15,18,19)     =    109.133182     0.000000    -0.000015   109.133167
	   57 B(15,18,20)     =    108.558703     0.000000    -0.000079   108.558625
	   58 B(15,18,21)     =    112.909515    -0.000000    -0.000253   112.909262
	   59 B(16,15,17)     =    106.337972     0.000000     0.000047   106.338019
	   60 B(16,15,18)     =    109.038792    -0.000000    -0.000162   109.038630
	   61 B(17,15,18)     =    110.033017     0.000000     0.000056   110.033073
	   62 B(18,21,22)     =    107.921347     0.000000     0.000440   107.921786
	   63 B(18,21,23)     =    109.789233     0.000000    -0.000093   109.789140
	   64 B(18,21,24)     =    114.128060    -0.000000    -0.000547   114.127513
	   65 B(19,18,20)     =    106.570397    -0.000000    -0.000005   106.570392
	   66 B(19,18,21)     =    109.925774     0.000000     0.000317   109.926091
	   67 B(20,18,21)     =    109.535997     0.000000     0.000042   109.536040
	   68 B(21,24,25)     =    109.667972    -0.000000    -0.000204   109.667768
	   69 B(21,24,26)     =    109.821298     0.000000     0.000580   109.821879
	   70 B(22,21,23)     =    106.058752    -0.000000     0.000031   106.058783
	   71 B(22,21,24)     =    109.874732     0.000000     0.000257   109.874989
	   72 B(23,21,24)     =    108.761693     0.000000    -0.000045   108.761648
	   73 B(25,24,26)     =    106.126193    -0.000000     0.000146   106.126338
	   74 D(1,9,15,16)    =     57.608510     0.000000     0.000952    57.609462
	   75 D(1,9,15,17)    =    -58.216227     0.000000     0.000879   -58.215348
	   76 D(1,9,15,18)    =    179.185462    -0.000000     0.000859   179.186321
	   77 D(2,1,9,10)     =     58.270404     0.000000     0.000008    58.270412
	   78 D(2,1,9,11)     =    -58.378057    -0.000000    -0.000182   -58.378239
	   79 D(2,1,9,15)     =    179.890533    -0.000000    -0.000141   179.890392
	   80 D(3,1,9,10)     =    -62.034938     0.000000    -0.000017   -62.034955
	   81 D(3,1,9,11)     =   -178.683398    -0.000000    -0.000208  -178.683606
	   82 D(3,1,9,15)     =     59.585191    -0.000000    -0.000167    59.585024
	   83 D(4,1,9,10)     =    178.577474     0.000000     0.000051   178.577525
	   84 D(4,1,9,11)     =     61.929014    -0.000000    -0.000139    61.928875
	   85 D(4,1,9,15)     =    -59.802397     0.000000    -0.000098   -59.802495
	   86 D(5,12,24,21)   =     60.505513    -0.000000    -0.007073    60.498440
	   87 D(5,12,24,25)   =    -62.159756    -0.000000    -0.006198   -62.165954
	   88 D(5,12,24,26)   =   -177.215342    -0.000000    -0.006554  -177.221896
	   89 D(6,5,12,13)    =    179.308856    -0.000000    -0.000989   179.307867
	   90 D(6,5,12,14)    =    -64.615829    -0.000000    -0.000699   -64.616528
	   91 D(6,5,12,24)    =     57.505188    -0.000000    -0.000529    57.504658
	   92 D(7,5,12,13)    =     59.146174    -0.000000    -0.000978    59.145196
	   93 D(7,5,12,14)    =    175.221489    -0.000000    -0.000688   175.220801
	   94 D(7,5,12,24)    =    -62.657494    -0.000000    -0.000518   -62.658012
	   95 D(8,5,12,13)    =    -60.783407     0.000000    -0.000947   -60.784353
	   96 D(8,5,12,14)    =     55.291909    -0.000000    -0.000657    55.291252
	   97 D(8,5,12,24)    =    177.412925     0.000000    -0.000487   177.412438
	   98 D(9,15,18,19)   =     55.210210    -0.000000     0.001168    55.211378
	   99 D(9,15,18,20)   =    -60.568972    -0.000000     0.001225   -60.567747
	  100 D(9,15,18,21)   =    177.773909     0.000000     0.001392   177.775300
	  101 D(10,9,15,16)   =    179.620566     0.000000     0.000876   179.621442
	  102 D(10,9,15,17)   =     63.795829     0.000000     0.000803    63.796632
	  103 D(10,9,15,18)   =    -58.802482    -0.000000     0.000784   -58.801699
	  104 D(11,9,15,16)   =    -64.473841     0.000000     0.000887   -64.472955
	  105 D(11,9,15,17)   =    179.701421    -0.000000     0.000814   179.702235
	  106 D(11,9,15,18)   =     57.103110    -0.000000     0.000794    57.103904
	  107 D(12,24,21,18)  =    -98.229011    -0.000000    -0.009730   -98.238741
	  108 D(12,24,21,22)  =    140.409220    -0.000000    -0.010111   140.399109
	  109 D(12,24,21,23)  =     24.722972    -0.000000    -0.010264    24.712708
	  110 D(13,12,24,21)  =    -61.637552    -0.000000    -0.006551   -61.644103
	  111 D(13,12,24,25)  =    175.697180     0.000000    -0.005676   175.691503
	  112 D(13,12,24,26)  =     60.641593    -0.000000    -0.006032    60.635561
	  113 D(14,12,24,21)  =   -177.239120     0.000000    -0.006860  -177.245980
	  114 D(14,12,24,25)  =     60.095612     0.000000    -0.005986    60.089626
	  115 D(14,12,24,26)  =    -54.959974     0.000000    -0.006342   -54.966316
	  116 D(15,18,21,22)  =     49.048853    -0.000000    -0.010147    49.038706
	  117 D(15,18,21,23)  =    164.221000    -0.000000    -0.009917   164.211082
	  118 D(15,18,21,24)  =    -73.387372    -0.000000    -0.010435   -73.397807
	  119 D(16,15,18,19)  =    176.942061     0.000000     0.001240   176.943302
	  120 D(16,15,18,20)  =     61.162880     0.000000     0.001297    61.164177
	  121 D(16,15,18,21)  =    -60.494240     0.000000     0.001465   -60.492775
	  122 D(17,15,18,19)  =    -66.789865    -0.000000     0.001235   -66.788630
	  123 D(17,15,18,20)  =    177.430953     0.000000     0.001292   177.432245
	  124 D(17,15,18,21)  =     55.773834     0.000000     0.001459    55.775293
	  125 D(18,21,24,25)  =     24.101335    -0.000000    -0.010546    24.090788
	  126 D(18,21,24,26)  =    140.356376    -0.000000    -0.010154   140.346222
	  127 D(19,18,21,22)  =    171.168558    -0.000000    -0.010110   171.158448
	  128 D(19,18,21,23)  =    -73.659295    -0.000000    -0.009881   -73.669176
	  129 D(19,18,21,24)  =     48.732333    -0.000000    -0.010398    48.721935
	  130 D(20,18,21,22)  =    -72.055064    -0.000000    -0.009907   -72.064971
	  131 D(20,18,21,23)  =     43.117083    -0.000000    -0.009678    43.107405
	  132 D(20,18,21,24)  =    165.508712     0.000000    -0.010195   165.498516
	  133 D(22,21,24,25)  =    -97.260434    -0.000000    -0.010928   -97.271362
	  134 D(22,21,24,26)  =     18.994607    -0.000000    -0.010535    18.984072
	  135 D(23,21,24,25)  =    147.053318    -0.000000    -0.011081   147.042237
	  136 D(23,21,24,26)  =    -96.691641    -0.000000    -0.010688   -96.702329
	  137 R(5,18)         =      3.425392    -0.000000     0.000067     3.425459
	 ---------------------------------------------------------------------------

  ==> Convergence Check <==

  Measures of convergence in internal coordinates in au.
  Criteria marked as inactive (o), active & met (*), and active & unmet ( ).
  --------------------------------------------------------------------------------------------- ~
   Step     Total Energy     Delta E     MAX Force     RMS Force      MAX Disp      RMS Disp    ~
  --------------------------------------------------------------------------------------------- ~
    Convergence Criteria             o    2.00e-06 *    1.00e-06 *    6.00e-06 *    4.00e-06 *  ~
  --------------------------------------------------------------------------------------------- ~
      1    -314.98061790   -3.15e+02 o    2.33e-06      5.96e-07 *    1.93e-04      7.23e-05    ~
  ---------------------------------------------------------------------------------------------

	Writing optimization data to binary file.
	Structure for next step:
	Cartesian Geometry (in Angstrom)
	    C    -3.8245398680  -0.3137450866  -0.5574006215
	    H    -4.6302392799  -1.0113794123  -0.3301223746
	    H    -3.5738605348  -0.4231383393  -1.6132850047
	    H    -4.2050431916   0.6977582175  -0.4101672617
	    C     2.7080567882  -1.3961381197   0.1338027642
	    H     2.0024019181  -2.0100007457  -0.4284606105
	    H     2.3115459028  -1.2689022858   1.1409500579
	    H     3.6431244318  -1.9502131318   0.2152654862
	    C    -2.6010511333  -0.5623240325   0.3160339497
	    H    -2.2483417128  -1.5875212908   0.1750192240
	    H    -2.8749453658  -0.4718085808   1.3706046765
	    C     2.9271196471  -0.0529645425  -0.5532894457
	    H     3.6273179361   0.5447034924   0.0370161321
	    H     3.4026878140  -0.2186278089  -1.5228682128
	    C    -1.4620946548   0.4023316450   0.0108704263
	    H    -1.8131115672   1.4309819241   0.1443745408
	    H    -1.1869501388   0.3054338158  -1.0436404748
	    C    -0.2393382533   0.1757827169   0.8925474812
	    H     0.0795405173  -0.8656951991   0.8020757449
	    H    -0.5307475719   0.3232572093   1.9365410376
	    C     0.9236283026   1.1089074264   0.5492501342
	    H     0.5322082144   2.1281791230   0.4944378682
	    H     1.6524803386   1.1080766045   1.3651932910
	    C     1.6468794406   0.7558961225  -0.7599116196
	    H     0.9719789933   0.1957472449  -1.4139730716
	    H     1.9028940818   1.6699062116  -1.2995494306
			--------------------------
			 OPTKING Finished Execution 
			--------------------------

    Structure for next step:
    Molecular point group: c1
    Full point group: C1

    Geometry (in Angstrom), charge = 0, multiplicity = 1:

    C           -3.824535763342    -0.313733961603    -0.557394228709
    H           -4.630235175279    -1.011368287293    -0.330115981879
    H           -3.573856430195    -0.423127214293    -1.613278611936
    H           -4.205039087023     0.697769342551    -0.410160868986
    C            2.708060892816    -1.396126994693     0.133809156901
    H            2.002406022720    -2.009989620703    -0.428454217728
    H            2.311550007433    -1.268891160759     1.140956450680
    H            3.643128536420    -1.950202006823     0.215271878916
    C           -2.601047028703    -0.562312907442     0.316040342461
    H           -2.248337608195    -1.587510165753     0.175025616786
    H           -2.874941261149    -0.471797455777     1.370611069236
    C            2.927123751690    -0.052953417525    -0.553283052951
    H            3.627322040722     0.544714617459     0.037022524880
    H            3.402691918644    -0.218616683881    -1.522861820038
    C           -1.462090550177     0.402342770050     0.010876819005
    H           -1.813107462615     1.430993049158     0.144380933504
    H           -1.186946034216     0.305444940856    -1.043634082072
    C           -0.239334148685     0.175793841880     0.892553873954
    H            0.079544621919    -0.865684074082     0.802082137630
    H           -0.530743467279     0.323268334286     1.936547430301
    C            0.923632407179     1.108918551438     0.549256526952
    H            0.532212318989     2.128190247986     0.494444260912
    H            1.652484443250     1.108087729536     1.365199683724
    C            1.646883545196     0.755907247485    -0.759905226895
    H            0.971983097963     0.195758369937    -1.413966678883
    H            1.902898186459     1.669917336641    -1.299543037804

gradient() will perform analytic gradient computation.

*** tstart() called on wr42
*** at Thu Sep 22 00:08:10 2016


         ---------------------------------------------------------
                                   SCF
            by Justin Turney, Rob Parrish, and Andy Simmonett
                              RHF Reference
                       12 Threads,  60000 MiB Core
         ---------------------------------------------------------

  ==> Geometry <==

    Molecular point group: c1
    Full point group: C1

    Geometry (in Angstrom), charge = 0, multiplicity = 1:

       Center              X                  Y                   Z               Mass       
    ------------   -----------------  -----------------  -----------------  -----------------
           C         -3.824535763342    -0.313733961603    -0.557394228709    12.000000000000
           H         -4.630235175279    -1.011368287293    -0.330115981879     1.007825032070
           H         -3.573856430195    -0.423127214293    -1.613278611936     1.007825032070
           H         -4.205039087023     0.697769342551    -0.410160868986     1.007825032070
           C          2.708060892816    -1.396126994693     0.133809156901    12.000000000000
           H          2.002406022720    -2.009989620703    -0.428454217728     1.007825032070
           H          2.311550007433    -1.268891160759     1.140956450680     1.007825032070
           H          3.643128536420    -1.950202006823     0.215271878916     1.007825032070
           C         -2.601047028703    -0.562312907442     0.316040342461    12.000000000000
           H         -2.248337608195    -1.587510165753     0.175025616786     1.007825032070
           H         -2.874941261149    -0.471797455777     1.370611069236     1.007825032070
           C          2.927123751690    -0.052953417525    -0.553283052951    12.000000000000
           H          3.627322040722     0.544714617459     0.037022524880     1.007825032070
           H          3.402691918644    -0.218616683881    -1.522861820038     1.007825032070
           C         -1.462090550177     0.402342770050     0.010876819005    12.000000000000
           H         -1.813107462615     1.430993049158     0.144380933504     1.007825032070
           H         -1.186946034216     0.305444940856    -1.043634082072     1.007825032070
           C         -0.239334148685     0.175793841880     0.892553873954    12.000000000000
           H          0.079544621919    -0.865684074082     0.802082137630     1.007825032070
           H         -0.530743467279     0.323268334286     1.936547430301     1.007825032070
           C          0.923632407179     1.108918551438     0.549256526952    12.000000000000
           H          0.532212318989     2.128190247986     0.494444260912     1.007825032070
           H          1.652484443250     1.108087729536     1.365199683724     1.007825032070
           C          1.646883545196     0.755907247485    -0.759905226895    12.000000000000
           H          0.971983097963     0.195758369937    -1.413966678883     1.007825032070
           H          1.902898186459     1.669917336641    -1.299543037804     1.007825032070

  Running in c1 symmetry.

  Rotational constants: A =      0.13256  B =      0.02437  C =      0.02337 [cm^-1]
  Rotational constants: A =   3974.01062  B =    730.52395  C =    700.66119 [MHz]
  Nuclear repulsion =  392.793117280935860

  Charge       = 0
  Multiplicity = 1
  Electrons    = 66
  Nalpha       = 33
  Nbeta        = 33

  ==> Algorithm <==

  SCF Algorithm Type is DF.
  DIIS enabled.
  MOM disabled.
  Fractional occupation disabled.
  Guess Type is READ.
  Energy threshold   = 1.00e-10
  Density threshold  = 1.00e-10
  Integral threshold = 0.00e+00

  ==> Primary Basis <==

  Basis Set: AUG-CC-PVTZ
    Number of shells: 274
    Number of basis function: 782
    Number of Cartesian functions: 890
    Spherical Harmonics?: true
    Max angular momentum: 3

  ==> Pre-Iterations <==

   -------------------------------------------------------
    Irrep   Nso     Nmo     Nalpha   Nbeta   Ndocc  Nsocc
   -------------------------------------------------------
     A        782     782       0       0       0       0
   -------------------------------------------------------
    Total     782     782      33      33      33       0
   -------------------------------------------------------

  ==> Integral Setup <==

  ==> DFJK: Density-Fitted J/K Matrices <==

    J tasked:                  Yes
    K tasked:                  Yes
    wK tasked:                  No
    OpenMP threads:             12
    Integrals threads:          12
    Memory (MB):             42915
    Algorithm:                Core
    Integral Cache:           NONE
    Schwarz Cutoff:          1E-12
    Fitting Condition:       1E-12

   => Auxiliary Basis Set <=

  Basis Set: 
    Number of shells: 492
    Number of basis function: 1660
    Number of Cartesian functions: 2038
    Spherical Harmonics?: true
    Max angular momentum: 4

  Minimum eigenvalue in the overlap matrix is 1.7684672629E-06.
  Using Symmetric Orthogonalization.
  SCF Guess: Reading in previously saved MOs, projecting if necessary.

  Using orbitals from previous SCF, no projection.
  Recomputing DOCC and SOCC from number of alpha and beta electrons from previous calculation.
              A 
    DOCC [    33 ]

  ==> Iterations <==

                           Total Energy        Delta E     RMS |[F,P]|

   @DF-RHF iter   0:  -313.53914308075531   -3.13539e+02   6.61094e-07 
   @DF-RHF iter   1:  -313.53904308363855    9.99971e-05   1.33295e-07 
   @DF-RHF iter   2:  -313.53904309347587   -9.83732e-09   5.41945e-08 DIIS
   @DF-RHF iter   3:  -313.53904309486194   -1.38607e-09   2.33378e-08 DIIS
   @DF-RHF iter   4:  -313.53904309516230   -3.00361e-10   2.53106e-09 DIIS
   @DF-RHF iter   5:  -313.53904309516719   -4.88853e-12   7.52819e-10 DIIS
   @DF-RHF iter   6:  -313.53904309516685    3.41061e-13   2.19513e-10 DIIS
   @DF-RHF iter   7:  -313.53904309516753   -6.82121e-13   4.90440e-11 DIIS

  ==> Post-Iterations <==

    Orbital Energies (a.u.)
    -----------------------

    Doubly Occupied:                                                      

       1A    -11.213114     2A    -11.212239     3A    -11.210617  
       4A    -11.209947     5A    -11.209509     6A    -11.208914  
       7A    -11.207013     8A    -11.206959     9A     -1.093547  
      10A     -1.060204    11A     -1.008356    12A     -0.946342  
      13A     -0.888645    14A     -0.818432    15A     -0.791089  
      16A     -0.763096    17A     -0.647011    18A     -0.628816  
      19A     -0.612785    20A     -0.593051    21A     -0.572767  
      22A     -0.558123    23A     -0.544499    24A     -0.532102  
      25A     -0.516520    26A     -0.500368    27A     -0.492504  
      28A     -0.471058    29A     -0.465502    30A     -0.462869  
      31A     -0.443533    32A     -0.439946    33A     -0.434321  

    Virtual:                                                              

      34A      0.029888    35A      0.032889    36A      0.034412  
      37A      0.035081    38A      0.046191    39A      0.046890  
      40A      0.049075    41A      0.053649    42A      0.057437  
      43A      0.065179    44A      0.067564    45A      0.070623  
      46A      0.073840    47A      0.083817    48A      0.087544  
      49A      0.091540    50A      0.093463    51A      0.108658  
      52A      0.114113    53A      0.114727    54A      0.116640  
      55A      0.123219    56A      0.125851    57A      0.128250  
      58A      0.131206    59A      0.137734    60A      0.141774  
      61A      0.144380    62A      0.149088    63A      0.150053  
      64A      0.157052    65A      0.159174    66A      0.161689  
      67A      0.163920    68A      0.169901    69A      0.172824  
      70A      0.175330    71A      0.179231    72A      0.184598  
      73A      0.189866    74A      0.194746    75A      0.197916  
      76A      0.210177    77A      0.212677    78A      0.220272  
      79A      0.229225    80A      0.232073    81A      0.236805  
      82A      0.239553    83A      0.249798    84A      0.257045  
      85A      0.260331    86A      0.270889    87A      0.272117  
      88A      0.279231    89A      0.289684    90A      0.292240  
      91A      0.295824    92A      0.302291    93A      0.309913  
      94A      0.310865    95A      0.314797    96A      0.321136  
      97A      0.327895    98A      0.329316    99A      0.331051  
     100A      0.336593   101A      0.342074   102A      0.344775  
     103A      0.346865   104A      0.351493   105A      0.355538  
     106A      0.358350   107A      0.362297   108A      0.365571  
     109A      0.368790   110A      0.372166   111A      0.374374  
     112A      0.382438   113A      0.383843   114A      0.389865  
     115A      0.391608   116A      0.394596   117A      0.398591  
     118A      0.400335   119A      0.405333   120A      0.410882  
     121A      0.413874   122A      0.414651   123A      0.419917  
     124A      0.424026   125A      0.429848   126A      0.433571  
     127A      0.439145   128A      0.442011   129A      0.446542  
     130A      0.450801   131A      0.454778   132A      0.456624  
     133A      0.464268   134A      0.464771   135A      0.469536  
     136A      0.472453   137A      0.475870   138A      0.478993  
     139A      0.481551   140A      0.485915   141A      0.489378  
     142A      0.493618   143A      0.495650   144A      0.501834  
     145A      0.505195   146A      0.511143   147A      0.515412  
     148A      0.520295   149A      0.524111   150A      0.527445  
     151A      0.532414   152A      0.533683   153A      0.536809  
     154A      0.541422   155A      0.550326   156A      0.551069  
     157A      0.555020   158A      0.557586   159A      0.563274  
     160A      0.564951   161A      0.569950   162A      0.575615  
     163A      0.581817   164A      0.585777   165A      0.591144  
     166A      0.592864   167A      0.601007   168A      0.605844  
     169A      0.609256   170A      0.610785   171A      0.614081  
     172A      0.624888   173A      0.630800   174A      0.635291  
     175A      0.639992   176A      0.642718   177A      0.647580  
     178A      0.650477   179A      0.655844   180A      0.662290  
     181A      0.668245   182A      0.673609   183A      0.676694  
     184A      0.681217   185A      0.690033   186A      0.695892  
     187A      0.700723   188A      0.708583   189A      0.712870  
     190A      0.721005   191A      0.723711   192A      0.732042  
     193A      0.736384   194A      0.747342   195A      0.751517  
     196A      0.754158   197A      0.768668   198A      0.780031  
     199A      0.783747   200A      0.789080   201A      0.798270  
     202A      0.816751   203A      0.821318   204A      0.830721  
     205A      0.838446   206A      0.840264   207A      0.843877  
     208A      0.846447   209A      0.855721   210A      0.856997  
     211A      0.863124   212A      0.871214   213A      0.876434  
     214A      0.876939   215A      0.886164   216A      0.886975  
     217A      0.892042   218A      0.899710   219A      0.902778  
     220A      0.910605   221A      0.915264   222A      0.918865  
     223A      0.928784   224A      0.931091   225A      0.933457  
     226A      0.937006   227A      0.946242   228A      0.947544  
     229A      0.956355   230A      0.959962   231A      0.966510  
     232A      0.967645   233A      0.975291   234A      0.976996  
     235A      0.987196   236A      0.991878   237A      0.995050  
     238A      1.000976   239A      1.001468   240A      1.004992  
     241A      1.006830   242A      1.013542   243A      1.020276  
     244A      1.024834   245A      1.029112   246A      1.032740  
     247A      1.045606   248A      1.046383   249A      1.051444  
     250A      1.052594   251A      1.059421   252A      1.062974  
     253A      1.066941   254A      1.080816   255A      1.087024  
     256A      1.094028   257A      1.102237   258A      1.107487  
     259A      1.111429   260A      1.116556   261A      1.127418  
     262A      1.131434   263A      1.131685   264A      1.136185  
     265A      1.140654   266A      1.143415   267A      1.154455  
     268A      1.158739   269A      1.165239   270A      1.168670  
     271A      1.173596   272A      1.175917   273A      1.179682  
     274A      1.182276   275A      1.188947   276A      1.192760  
     277A      1.197531   278A      1.199716   279A      1.210339  
     280A      1.213834   281A      1.219776   282A      1.229774  
     283A      1.234691   284A      1.241846   285A      1.244863  
     286A      1.247575   287A      1.253937   288A      1.259609  
[...]
	Denominators (dg)(dq) or (dq)(dq) are very small.
	 Skipping Hessian update for step 4.
	Denominators (dg)(dq) or (dq)(dq) are very small.
	 Skipping Hessian update for step 3.
	Denominators (dg)(dq) or (dq)(dq) are very small.
	 Skipping Hessian update for step 2.
	Steps to be used in Hessian update: 1
	Taking RFO optimization step.
	Going to follow RFO solution 1.
	Using RFO vector 1.
	Norm of target step-size    0.00001
	Projected energy change by RFO approximation:        -0.0000000000

	Back-transformation to cartesian coordinates...
	Successfully converged to displaced geometry.

	--- Internal Coordinate Step in ANG or DEG, aJ/ANG or AJ/DEG ---
	 ---------------------------------------------------------------------------
	   Coordinate                Previous        Force       Change         New 
	   ----------                --------       ------       ------       ------
	    1 R(1,2)          =      1.089726    -0.000002    -0.000000     1.089726
	    2 R(1,3)          =      1.090735    -0.000003    -0.000000     1.090734
	    3 R(1,4)          =      1.090689    -0.000003    -0.000000     1.090689
	    4 R(1,9)          =      1.523681    -0.000002    -0.000000     1.523681
	    5 R(5,6)          =      1.091293     0.000000    -0.000000     1.091293
	    6 R(5,7)          =      1.089844     0.000000    -0.000000     1.089844
	    7 R(5,8)          =      1.089949    -0.000000    -0.000000     1.089949
	    8 R(5,12)         =      1.524533     0.000000    -0.000000     1.524533
	    9 R(9,10)         =      1.093308    -0.000003    -0.000000     1.093308
	   10 R(9,11)         =      1.093314    -0.000003    -0.000000     1.093313
	   11 R(9,15)         =      1.523453    -0.000001    -0.000000     1.523453
	   12 R(12,13)        =      1.093595    -0.000001    -0.000000     1.093595
	   13 R(12,14)        =      1.092564     0.000000    -0.000000     1.092564
	   14 R(12,24)        =      1.528388    -0.000000    -0.000000     1.528388
	   15 R(15,16)        =      1.095063    -0.000002    -0.000000     1.095063
	   16 R(15,17)        =      1.094117    -0.000003    -0.000000     1.094117
	   17 R(15,18)        =      1.524406    -0.000002    -0.000000     1.524406
	   18 R(18,19)        =      1.092955     0.000000     0.000000     1.092955
	   19 R(18,20)        =      1.093890     0.000001     0.000000     1.093890
	   20 R(18,21)        =      1.530055     0.000001     0.000000     1.530056
	   21 R(21,22)        =      1.093221    -0.000000    -0.000000     1.093221
	   22 R(21,23)        =      1.094072    -0.000000    -0.000000     1.094072
	   23 R(21,24)        =      1.536757     0.000001     0.000000     1.536757
	   24 R(24,25)        =      1.094102     0.000000    -0.000000     1.094102
	   25 R(24,26)        =      1.091865     0.000000     0.000000     1.091865
	   26 B(1,9,10)       =    109.760699    -0.000000    -0.000013   109.760686
	   27 B(1,9,11)       =    109.770771    -0.000000     0.000003   109.770774
	   28 B(1,9,15)       =    112.469587     0.000000    -0.000001   112.469585
	   29 B(2,1,3)        =    107.915768     0.000000     0.000006   107.915774
	   30 B(2,1,4)        =    107.916019     0.000000     0.000007   107.916025
	   31 B(2,1,9)        =    111.696553     0.000000     0.000011   111.696563
	   32 B(3,1,4)        =    107.690116     0.000000     0.000008   107.690125
	   33 B(3,1,9)        =    110.733214    -0.000000    -0.000013   110.733201
	   34 B(4,1,9)        =    110.735273    -0.000000    -0.000018   110.735256
	   35 B(5,12,13)      =    109.282820     0.000000     0.000002   109.282822
	   36 B(5,12,14)      =    109.202536     0.000000    -0.000005   109.202531
	   37 B(5,12,24)      =    114.006736    -0.000000     0.000011   114.006746
	   38 B(6,5,7)        =    107.851204     0.000000     0.000006   107.851210
	   39 B(6,5,8)        =    107.896318    -0.000000    -0.000001   107.896317
	   40 B(6,5,12)       =    110.873193    -0.000000    -0.000001   110.873191
	   41 B(7,5,8)        =    107.602142     0.000000    -0.000002   107.602141
	   42 B(7,5,12)       =    111.463844    -0.000000    -0.000007   111.463837
	   43 B(8,5,12)       =    110.994987     0.000000     0.000005   110.994992
	   44 B(9,15,16)      =    109.313436     0.000000     0.000013   109.313449
	   45 B(9,15,17)      =    108.965051     0.000000    -0.000007   108.965043
	   46 B(9,15,18)      =    112.937060    -0.000000    -0.000033   112.937026
	   47 B(10,9,11)      =    106.430975     0.000000     0.000022   106.430997
	   48 B(10,9,15)      =    109.070788    -0.000000    -0.000007   109.070780
	   49 B(11,9,15)      =    109.152370    -0.000000    -0.000003   109.152368
	   50 B(12,24,21)     =    113.617924     0.000000     0.000051   113.617975
	   51 B(12,24,25)     =    109.060929    -0.000000    -0.000019   109.060910
	   52 B(12,24,26)     =    108.265666    -0.000000    -0.000013   108.265653
	   53 B(13,12,14)     =    106.450942    -0.000000    -0.000004   106.450938
	   54 B(13,12,24)     =    108.666643     0.000000     0.000002   108.666646
	   55 B(14,12,24)     =    108.958085     0.000000    -0.000006   108.958079
	   56 B(15,18,19)     =    109.133189    -0.000000    -0.000021   109.133168
	   57 B(15,18,20)     =    108.558740    -0.000000    -0.000021   108.558719
	   58 B(15,18,21)     =    112.909346     0.000000     0.000063   112.909409
	   59 B(16,15,17)     =    106.338004    -0.000000    -0.000004   106.338000
	   60 B(16,15,18)     =    109.038684     0.000000     0.000044   109.038728
	   61 B(17,15,18)     =    110.033007     0.000000    -0.000010   110.032996
	   62 B(18,21,22)     =    107.921466     0.000000    -0.000010   107.921456
	   63 B(18,21,23)     =    109.789270    -0.000000    -0.000005   109.789265
	   64 B(18,21,24)     =    114.127878     0.000000     0.000002   114.127881
	   65 B(19,18,20)     =    106.570410     0.000000     0.000008   106.570417
	   66 B(19,18,21)     =    109.925770    -0.000000    -0.000018   109.925752
	   67 B(20,18,21)     =    109.536123    -0.000000    -0.000013   109.536110
	   68 B(21,24,25)     =    109.667936    -0.000000    -0.000015   109.667921
	   69 B(21,24,26)     =    109.821414    -0.000000     0.000001   109.821415
	   70 B(22,21,23)     =    106.058731     0.000000     0.000012   106.058743
	   71 B(22,21,24)     =    109.874802    -0.000000    -0.000014   109.874789
	   72 B(23,21,24)     =    108.761681    -0.000000     0.000015   108.761696
	   73 B(25,24,26)     =    106.126215     0.000000    -0.000009   106.126206
	   74 D(1,9,15,16)    =     57.608725    -0.000000    -0.000025    57.608700
	   75 D(1,9,15,17)    =    -58.216079    -0.000000    -0.000023   -58.216102
	   76 D(1,9,15,18)    =    179.185593    -0.000000     0.000018   179.185611
	   77 D(2,1,9,10)     =     58.270310     0.000000     0.000016    58.270326
	   78 D(2,1,9,11)     =    -58.378192    -0.000000    -0.000006   -58.378197
	   79 D(2,1,9,15)     =    179.890416     0.000000    -0.000003   179.890413
	   80 D(3,1,9,10)     =    -62.035039     0.000000     0.000010   -62.035029
	   81 D(3,1,9,11)     =   -178.683541    -0.000000    -0.000011  -178.683552
	   82 D(3,1,9,15)     =     59.585067    -0.000000    -0.000009    59.585058
	   83 D(4,1,9,10)     =    178.577381     0.000000     0.000019   178.577401
	   84 D(4,1,9,11)     =     61.928879    -0.000000    -0.000002    61.928878
	   85 D(4,1,9,15)     =    -59.802512     0.000000     0.000000   -59.802512
	   86 D(5,12,24,21)   =     60.505779     0.000000     0.000032    60.505811
	   87 D(5,12,24,25)   =    -62.159337     0.000000     0.000030   -62.159307
	   88 D(5,12,24,26)   =   -177.214984     0.000000     0.000057  -177.214926
	   89 D(6,5,12,13)    =    179.308926    -0.000000    -0.000094   179.308832
	   90 D(6,5,12,14)    =    -64.615707     0.000000    -0.000101   -64.615808
	   91 D(6,5,12,24)    =     57.505306    -0.000000    -0.000105    57.505201
	   92 D(7,5,12,13)    =     59.146289    -0.000000    -0.000096    59.146194
	   93 D(7,5,12,14)    =    175.221657     0.000000    -0.000103   175.221554
	   94 D(7,5,12,24)    =    -62.657330    -0.000000    -0.000107   -62.657438
	   95 D(8,5,12,13)    =    -60.783318    -0.000000    -0.000092   -60.783411
	   96 D(8,5,12,14)    =     55.292049     0.000000    -0.000099    55.291950
	   97 D(8,5,12,24)    =    177.413062    -0.000000    -0.000104   177.412958
	   98 D(9,15,18,19)   =     55.210277    -0.000000    -0.000166    55.210111
	   99 D(9,15,18,20)   =    -60.568944     0.000000    -0.000152   -60.569096
	  100 D(9,15,18,21)   =    177.773861    -0.000000    -0.000161   177.773700
	  101 D(10,9,15,16)   =    179.620780    -0.000000    -0.000047   179.620733
	  102 D(10,9,15,17)   =     63.795976    -0.000000    -0.000045    63.795931
	  103 D(10,9,15,18)   =    -58.802352    -0.000000    -0.000004   -58.802356
	  104 D(11,9,15,16)   =    -64.473644     0.000000    -0.000026   -64.473670
	  105 D(11,9,15,17)   =    179.701552    -0.000000    -0.000024   179.701528
	  106 D(11,9,15,18)   =     57.103224     0.000000     0.000017    57.103241
	  107 D(12,24,21,18)  =    -98.230127     0.000000     0.000201   -98.229927
	  108 D(12,24,21,22)  =    140.408023     0.000000     0.000222   140.408246
	  109 D(12,24,21,23)  =     24.721769     0.000000     0.000207    24.721976
	  110 D(13,12,24,21)  =    -61.637246    -0.000000     0.000021   -61.637226
	  111 D(13,12,24,25)  =    175.697638     0.000000     0.000019   175.697657
	  112 D(13,12,24,26)  =     60.641991     0.000000     0.000046    60.642037
	  113 D(14,12,24,21)  =   -177.238876    -0.000000     0.000028  -177.238848
	  114 D(14,12,24,25)  =     60.096008    -0.000000     0.000026    60.096035
	  115 D(14,12,24,26)  =    -54.959639     0.000000     0.000054   -54.959585
	  116 D(15,18,21,22)  =     49.048363     0.000000    -0.000041    49.048322
	  117 D(15,18,21,23)  =    164.220570     0.000000    -0.000035   164.220535
	  118 D(15,18,21,24)  =    -73.387918    -0.000000    -0.000017   -73.387935
	  119 D(16,15,18,19)  =    176.942131    -0.000000    -0.000140   176.941990
	  120 D(16,15,18,20)  =     61.162909    -0.000000    -0.000126    61.162783
	  121 D(16,15,18,21)  =    -60.494285    -0.000000    -0.000136   -60.494421
	  122 D(17,15,18,19)  =    -66.789826     0.000000    -0.000126   -66.789952
	  123 D(17,15,18,20)  =    177.430952     0.000000    -0.000112   177.430841
	  124 D(17,15,18,21)  =     55.773758     0.000000    -0.000121    55.773636
	  125 D(18,21,24,25)  =     24.100083     0.000000     0.000201    24.100284
	  126 D(18,21,24,26)  =    140.355197     0.000000     0.000182   140.355379
	  127 D(19,18,21,22)  =    171.167958     0.000000    -0.000038   171.167920
	  128 D(19,18,21,23)  =    -73.659836     0.000000    -0.000031   -73.659867
	  129 D(19,18,21,24)  =     48.731677    -0.000000    -0.000014    48.731663
	  130 D(20,18,21,22)  =    -72.055576    -0.000000    -0.000046   -72.055623
	  131 D(20,18,21,23)  =     43.116630    -0.000000    -0.000040    43.116590
	  132 D(20,18,21,24)  =    165.508142    -0.000000    -0.000023   165.508119
	  133 D(22,21,24,25)  =    -97.261766     0.000000     0.000223   -97.261544
	  134 D(22,21,24,26)  =     18.993347     0.000000     0.000204    18.993551
	  135 D(23,21,24,25)  =    147.051979    -0.000000     0.000207   147.052186
	  136 D(23,21,24,26)  =    -96.692907    -0.000000     0.000189   -96.692718
	  137 R(5,18)         =      3.425403     0.000000    -0.000002     3.425401
	 ---------------------------------------------------------------------------

  ==> Convergence Check <==

  Measures of convergence in internal coordinates in au.
  Criteria marked as inactive (o), active & met (*), and active & unmet ( ).
  ---------------------------------------------------------------------------------------------
   Step     Total Energy     Delta E     MAX Force     RMS Force      MAX Disp      RMS Disp   
  ---------------------------------------------------------------------------------------------
    Convergence Criteria             o    2.00e-06 *    1.00e-06 *    6.00e-06 *    4.00e-06 *
  ---------------------------------------------------------------------------------------------
     27    -314.98061790    1.38e-10 o    3.68e-07 *    9.80e-08 *    3.88e-06 *    1.27e-06 *  ~
  ---------------------------------------------------------------------------------------------


  **** Optimization is complete! (in 27 steps) ****

  ==> Optimization Summary <==

  Measures of convergence in internal coordinates in au.
  --------------------------------------------------------------------------------------------------------------- ~
   Step         Total Energy             Delta E       MAX Force       RMS Force        MAX Disp        RMS Disp  ~
  --------------------------------------------------------------------------------------------------------------- ~
      1    -314.980617897902   -314.980617897902      0.00000233      0.00000060      0.00019340      0.00007225  ~
      2    -314.980617901875     -0.000000003973      0.00000379      0.00000106      0.00015560      0.00005952  ~
      3    -314.980617895398      0.000000006477      0.00000191      0.00000051      0.00005208      0.00001613  ~
      4    -314.980617898689     -0.000000003291      0.00000065      0.00000017      0.00007622      0.00002547  ~
      5    -314.980617898956     -0.000000000267      0.00000163      0.00000033      0.00010971      0.00003524  ~
      6    -314.980617903044     -0.000000004088      0.00000225      0.00000061      0.00009569      0.00002561  ~
      7    -314.980617897963      0.000000005081      0.00000284      0.00000070      0.00004194      0.00001181  ~
      8    -314.980617898356     -0.000000000393      0.00000062      0.00000019      0.00001724      0.00000595  ~
      9    -314.980617900850     -0.000000002494      0.00000238      0.00000054      0.00001840      0.00000770  ~
     10    -314.980617897172      0.000000003678      0.00000081      0.00000021      0.00000918      0.00000318  ~
     11    -314.980617897929     -0.000000000757      0.00000066      0.00000013      0.00001940      0.00000559  ~
     12    -314.980617896159      0.000000001770      0.00000153      0.00000036      0.00001311      0.00000376  ~
     13    -314.980617899253     -0.000000003094      0.00000056      0.00000011      0.00002024      0.00000580  ~
     14    -314.980617899778     -0.000000000525      0.00000044      0.00000008      0.00000851      0.00000289  ~
     15    -314.980617898975      0.000000000803      0.00000057      0.00000013      0.00001596      0.00000651  ~
     16    -314.980617896143      0.000000002832      0.00000104      0.00000025      0.00001723      0.00000758  ~
     17    -314.980617900235     -0.000000004092      0.00000088      0.00000020      0.00002523      0.00000729  ~
     18    -314.980617897454      0.000000002780      0.00000247      0.00000052      0.00002367      0.00000781  ~
     19    -314.980617899972     -0.000000002518      0.00000071      0.00000015      0.00002107      0.00000835  ~
     20    -314.980617903570     -0.000000003597      0.00000052      0.00000012      0.00001630      0.00000561  ~
     21    -314.980617900561      0.000000003009      0.00000352      0.00000083      0.00005474      0.00001588  ~
     22    -314.980617898686      0.000000001875      0.00000213      0.00000055      0.00002247      0.00000651  ~
     23    -314.980617898830     -0.000000000144      0.00000052      0.00000013      0.00000829      0.00000299  ~
     24    -314.980617896971      0.000000001860      0.00000030      0.00000006      0.00001203      0.00000381  ~
     25    -314.980617899689     -0.000000002719      0.00000045      0.00000013      0.00001348      0.00000396  ~
     26    -314.980617898670      0.000000001019      0.00000085      0.00000025      0.00000794      0.00000275  ~
     27    -314.980617898533      0.000000000138      0.00000037      0.00000010      0.00000388      0.00000127  ~
  --------------------------------------------------------------------------------------------------------------- ~

	Writing optimization data to binary file.
	Final energy is   -314.9806178985327
	Final (previous) structure:
	Cartesian Geometry (in Angstrom)
	    C    -3.8243751876  -0.3139511111  -0.5574528282
	    H    -4.6300563801  -1.0115909966  -0.3301211607
	    H    -3.5736188831  -0.4234950575  -1.6133048443
	    H    -4.2049394840   0.6975573171  -0.4104013319
	    C     2.7077727138  -1.3962609672   0.1336200169
	    H     2.0020978019  -2.0099809839  -0.4287776523
	    H     2.3112010086  -1.2691252038   1.1407582948
	    H     3.6427831789  -1.9504362881   0.2150728767
	    C    -2.6009340907  -0.5623360407   0.3161041916
	    H    -2.2481656003  -1.5875402204   0.1752727424
	    H    -2.8749071203  -0.4716718208   1.3706436486
	    C     2.9270133537  -0.0530142246  -0.5532742973
	    H     3.6272426717   0.5445014782   0.0371523871
	    H     3.4026220777  -0.2185990808  -1.5228485370
	    C    -1.4620030821   0.4023285769   0.0108708495
	    H    -1.8130853154   1.4309844049   0.1441807423
	    H    -1.1867703452   0.3052740562  -1.0436050905
	    C    -0.2393026743   0.1759861642   0.8926790203
	    H     0.0796257959  -0.8654977980   0.8024168751
	    H    -0.5307933163   0.3236368804   1.9366271819
	    C     0.9236567431   1.1090903997   0.5492971039
	    H     0.5322310262   2.1283591990   0.4944415895
	    H     1.6525334703   1.1083066419   1.3652210384
	    C     1.6468737004   0.7560162525  -0.7598702996
	    H     0.9719030462   0.1959775683  -1.4139585021
	    H     1.9030113714   1.6700123898  -1.2994763063
	Saving final (previous) structure.
			--------------------------
			 OPTKING Finished Execution 
			--------------------------

    Final optimized geometry and variables:
    Molecular point group: c1
    Full point group: C1

    Geometry (in Angstrom), charge = 0, multiplicity = 1:

    C           -3.824375187650    -0.313951111057    -0.557452828203
    H           -4.630056380139    -1.011590996561    -0.330121160651
    H           -3.573618883098    -0.423495057497    -1.613304844310
    H           -4.204939484005     0.697557317148    -0.410401331921
    C            2.707772713830    -1.396260967166     0.133620016906
    H            2.002097801934    -2.009980983915    -0.428777652266
    H            2.311201008613    -1.269125203791     1.140758294793
    H            3.642783178882    -1.950436288091     0.215072876689
    C           -2.600934090662    -0.562336040716     0.316104191635
    H           -2.248165600313    -1.587540220377     0.175272742364
    H           -2.874907120301    -0.471671820790     1.370643648592
    C            2.927013353743    -0.053014224626    -0.553274297286
    H            3.627242671654     0.544501478186     0.037152387137
    H            3.402622077682    -0.218599080799    -1.522848536974
    C           -1.462003082097     0.402328576914     0.010870849529
    H           -1.813085315408     1.430984404901     0.144180742270
    H           -1.186770345199     0.305274056170    -1.043605090501
    C           -0.239302674336     0.175986164167     0.892679020259
    H            0.079625795900    -0.865497798023     0.802416875113
    H           -0.530793316306     0.323636880385     1.936627181927
    C            0.923656743115     1.109090399714     0.549297103857
    H            0.532231026164     2.128359199007     0.494441589516
    H            1.652533470335     1.108306641897     1.365221038409
    C            1.646873700407     0.756016252510    -0.759870299591
    H            0.971903046156     0.195977568258    -1.413958502129
    H            1.903011371395     1.670012389821    -1.299476306299

	Cleaning optimization helper files.

*** Psi4 exiting successfully. Buy a developer a beer!
