    -----------------------------------------------------------------------
          Psi4: An Open-Source Ab Initio Electronic Structure Package
                              Psi4 1.0.0 Driver

                          Git: Rev {master} 6a9a71b dirty

    J. M. Turney, A. C. Simmonett, R. M. Parrish, E. G. Hohenstein,
    F. A. Evangelista, J. T. Fermann, B. J. Mintz, L. A. Burns, J. J. Wilke,
    M. L. Abrams, N. J. Russ, M. L. Leininger, C. L. Janssen, E. T. Seidl,
    W. D. Allen, H. F. Schaefer, R. A. King, E. F. Valeev, C. D. Sherrill,
    and T. D. Crawford, WIREs Comput. Mol. Sci. 2, 556-565 (2012)
    (doi: 10.1002/wcms.93)

                         Additional Contributions by
    A. E. DePrince, U. Bozkaya, A. Yu. Sokolov, D. G. A. Smith, R. Di Remigio,
    R. M. Richard, J. F. Gonthier, H. R. McAlexander, M. Saitow, and
    B. P. Pritchard
    -----------------------------------------------------------------------


    Psi4 started on: Tue Sep 20 16:43:05 2016

    Process ID:  29803
    PSI4DATADIR: /usr/local/hpc5/psi4conda/share/psi4
    Memory level set to 256.000 MB

  ==> Input File <==

--------------------------------------------------------------------------
memory 30 Gb

molecule molecule_21_psi {
0 1
symmetry c1
    C            0.103136162663     3.154876709479    -1.295660067108
    H            0.936779984451     3.833059330288    -1.462700885882
    H           -0.792948764207     3.753396270975    -1.141477392240
    H           -0.041149322272     2.570354133077    -2.202826059052
    C           -0.103130920518    -3.154890831976    -1.295622902488
    H            0.041130792802    -2.570370932014    -2.202795288803
    H           -0.936767126866    -3.833088389316    -1.462646681306
    H            0.792966630473    -3.753395790487    -1.141450725296
    C            0.350547877011     2.243564237386    -0.107927519225
    H            0.505230112274     2.840981464663     0.793076162882
    H            1.270321412558     1.681457676874    -0.268948291372
    C           -0.350540555313    -2.243575683563    -0.107891693442
    H           -1.270324132499    -1.681480381502    -0.268905143671
    H           -0.505206119610    -2.840991727494     0.793117589693
    C           -0.802041475656     1.284639953034     0.127325287053
    H           -0.923740787244     0.651586791086    -0.754370138379
    H           -1.726081609226     1.859529594425     0.217967446222
    C           -0.634280628876     0.421987293610     1.368242507159
    H           -1.502846321495    -0.228457752253     1.474883547336
    H           -0.625283287323     1.067901517345     2.248467607099
    C            0.634270321050    -0.421966797571     1.368251192938
    H            1.502834474194     0.228480681283     1.474888357106
    H            0.625269737616    -1.067870478099     2.248484253491
    C            0.802039018071    -1.284633836161     0.127345611540
    H            0.923731994626    -0.651589959978    -0.754358553046
    H            1.726084731770    -1.859514482414     0.217994535705
}

set globals {
  reference rhf
  g_convergence gau_verytight
  basis aug-cc-pvtz
  freeze_core true
  scf_type df
  mp_type df
}
optimize('mp2')
--------------------------------------------------------------------------
/usr/local/hpc5/psi4conda/lib/python2.7/site-packages/v2rdm_casscf/v2rdm_casscf.so loaded.

  Memory set to  30.000 GiB by Python script.
gradient() will perform analytic gradient computation.

*** tstart() called on wr34
*** at Tue Sep 20 16:43:06 2016


         ---------------------------------------------------------
                                   SCF
            by Justin Turney, Rob Parrish, and Andy Simmonett
                              RHF Reference
                       12 Threads,  30000 MiB Core
         ---------------------------------------------------------

  ==> Geometry <==

    Molecular point group: c1
    Full point group: C1

    Geometry (in Angstrom), charge = 0, multiplicity = 1:

       Center              X                  Y                   Z               Mass       
    ------------   -----------------  -----------------  -----------------  -----------------
           C          0.103136162663     3.154876709479    -1.295660067108    12.000000000000
           H          0.936779984451     3.833059330288    -1.462700885882     1.007825032070
           H         -0.792948764207     3.753396270975    -1.141477392240     1.007825032070
           H         -0.041149322272     2.570354133077    -2.202826059052     1.007825032070
           C         -0.103130920518    -3.154890831976    -1.295622902488    12.000000000000
           H          0.041130792802    -2.570370932014    -2.202795288803     1.007825032070
           H         -0.936767126866    -3.833088389316    -1.462646681306     1.007825032070
           H          0.792966630473    -3.753395790487    -1.141450725296     1.007825032070
           C          0.350547877011     2.243564237386    -0.107927519225    12.000000000000
           H          0.505230112274     2.840981464663     0.793076162882     1.007825032070
           H          1.270321412558     1.681457676874    -0.268948291372     1.007825032070
           C         -0.350540555313    -2.243575683563    -0.107891693442    12.000000000000
           H         -1.270324132499    -1.681480381502    -0.268905143671     1.007825032070
           H         -0.505206119610    -2.840991727494     0.793117589693     1.007825032070
           C         -0.802041475656     1.284639953034     0.127325287053    12.000000000000
           H         -0.923740787244     0.651586791086    -0.754370138379     1.007825032070
           H         -1.726081609226     1.859529594425     0.217967446222     1.007825032070
           C         -0.634280628876     0.421987293610     1.368242507159    12.000000000000
           H         -1.502846321495    -0.228457752253     1.474883547336     1.007825032070
           H         -0.625283287323     1.067901517345     2.248467607099     1.007825032070
           C          0.634270321050    -0.421966797571     1.368251192938    12.000000000000
           H          1.502834474194     0.228480681283     1.474888357106     1.007825032070
           H          0.625269737616    -1.067870478099     2.248484253491     1.007825032070
           C          0.802039018071    -1.284633836161     0.127345611540    12.000000000000
           H          0.923731994626    -0.651589959978    -0.754358553046     1.007825032070
           H          1.726084731770    -1.859514482414     0.217994535705     1.007825032070

  Running in c1 symmetry.

  Rotational constants: A =      0.10036  B =      0.03036  C =      0.02689 [cm^-1]
  Rotational constants: A =   3008.86589  B =    910.16298  C =    806.05894 [MHz]
  Nuclear repulsion =  401.511924767285336

  Charge       = 0
  Multiplicity = 1
  Electrons    = 66
  Nalpha       = 33
  Nbeta        = 33

  ==> Algorithm <==

  SCF Algorithm Type is DF.
  DIIS enabled.
  MOM disabled.
  Fractional occupation disabled.
  Guess Type is SAD.
  Energy threshold   = 1.00e-10
  Density threshold  = 1.00e-10
  Integral threshold = 0.00e+00

  ==> Primary Basis <==

  Basis Set: AUG-CC-PVTZ
    Number of shells: 274
    Number of basis function: 782
    Number of Cartesian functions: 890
    Spherical Harmonics?: true
    Max angular momentum: 3

  ==> Pre-Iterations <==

   -------------------------------------------------------
    Irrep   Nso     Nmo     Nalpha   Nbeta   Ndocc  Nsocc
   -------------------------------------------------------
     A        782     782       0       0       0       0
   -------------------------------------------------------
    Total     782     782      33      33      33       0
   -------------------------------------------------------

  ==> Integral Setup <==

  ==> DFJK: Density-Fitted J/K Matrices <==

    J tasked:                  Yes
    K tasked:                  Yes
    wK tasked:                  No
    OpenMP threads:             12
    Integrals threads:          12
    Memory (MB):             21457
    Algorithm:                Core
    Integral Cache:           NONE
    Schwarz Cutoff:          1E-12
    Fitting Condition:       1E-12

   => Auxiliary Basis Set <=

  Basis Set: 
    Number of shells: 492
    Number of basis function: 1660
    Number of Cartesian functions: 2038
    Spherical Harmonics?: true
    Max angular momentum: 4

  Minimum eigenvalue in the overlap matrix is 1.6553208551E-06.
  Using Symmetric Orthogonalization.
  SCF Guess: Superposition of Atomic Densities via on-the-fly atomic UHF.

  ==> Iterations <==

                           Total Energy        Delta E     RMS |[F,P]|

   @DF-RHF iter   0:  -317.38110374621374   -3.17381e+02   7.24911e-03 
   @DF-RHF iter   1:  -313.34452972178224    4.03657e+00   6.00654e-04 
   @DF-RHF iter   2:  -313.52122488575264   -1.76695e-01   1.69523e-04 DIIS
   @DF-RHF iter   3:  -313.53991482595518   -1.86899e-02   4.15037e-05 DIIS
   @DF-RHF iter   4:  -313.54088859015349   -9.73764e-04   1.45475e-05 DIIS
   @DF-RHF iter   5:  -313.54098634290426   -9.77528e-05   2.75100e-06 DIIS
   @DF-RHF iter   6:  -313.54099194820583   -5.60530e-06   5.62079e-07 DIIS
   @DF-RHF iter   7:  -313.54099211351013   -1.65304e-07   1.64534e-07 DIIS
   @DF-RHF iter   8:  -313.54099212819983   -1.46897e-08   3.73498e-08 DIIS
   @DF-RHF iter   9:  -313.54099212903907   -8.39236e-10   1.18412e-08 DIIS
   @DF-RHF iter  10:  -313.54099212912467   -8.56062e-11   2.90806e-09 DIIS
   @DF-RHF iter  11:  -313.54099212913241   -7.73070e-12   7.38118e-10 DIIS
   @DF-RHF iter  12:  -313.54099212913263   -2.27374e-13   1.75763e-10 DIIS
   @DF-RHF iter  13:  -313.54099212913263    0.00000e+00   4.31700e-11 DIIS

  ==> Post-Iterations <==

    Orbital Energies (a.u.)
    -----------------------

    Doubly Occupied:                                                      

       1A    -11.210303     2A    -11.210302     3A    -11.208458  
       4A    -11.208181     5A    -11.207788     6A    -11.207443  
       7A    -11.205873     8A    -11.205872     9A     -1.100502  
      10A     -1.060944    11A     -1.011188    12A     -0.950080  
      13A     -0.882902    14A     -0.834423    15A     -0.794286  
      16A     -0.747540    17A     -0.658809    18A     -0.623624  
      19A     -0.614830    20A     -0.594131    21A     -0.576220  
      22A     -0.571593    23A     -0.545262    24A     -0.525380  
      25A     -0.516271    26A     -0.499387    27A     -0.495777  
      28A     -0.472530    29A     -0.468875    30A     -0.463175  
      31A     -0.443896    32A     -0.440334    33A     -0.434407  

    Virtual:                                                              

      34A      0.029438    35A      0.033092    36A      0.033426  
      37A      0.034345    38A      0.046711    39A      0.049289  
      40A      0.049302    41A      0.052873    42A      0.055302  
      43A      0.068457    44A      0.069233    45A      0.070873  
      46A      0.073112    47A      0.075524    48A      0.085631  
      49A      0.090822    50A      0.093280    51A      0.101125  
      52A      0.113148    53A      0.114259    54A      0.122858  
      55A      0.125968    56A      0.126359    57A      0.132749  
      58A      0.133130    59A      0.136027    60A      0.141310  
      61A      0.143990    62A      0.146904    63A      0.151047  
      64A      0.157414    65A      0.158415    66A      0.160643  
      67A      0.164726    68A      0.166712    69A      0.171420  
      70A      0.179352    71A      0.181208    72A      0.183815  
      73A      0.186162    74A      0.188622    75A      0.197459  
      76A      0.203698    77A      0.211801    78A      0.220066  
      79A      0.227376    80A      0.234951    81A      0.238490  
      82A      0.244840    83A      0.253718    84A      0.262287  
      85A      0.262489    86A      0.267490    87A      0.273039  
      88A      0.278138    89A      0.284756    90A      0.285318  
      91A      0.303071    92A      0.311418    93A      0.311965  
      94A      0.313446    95A      0.314413    96A      0.322341  
      97A      0.325908    98A      0.332764    99A      0.333830  
     100A      0.338148   101A      0.338427   102A      0.341122  
     103A      0.346884   104A      0.350648   105A      0.358130  
     106A      0.360517   107A      0.362802   108A      0.366108  
     109A      0.373345   110A      0.379667   111A      0.380131  
     112A      0.381558   113A      0.384320   114A      0.387398  
     115A      0.390332   116A      0.396141   117A      0.396957  
     118A      0.402169   119A      0.404468   120A      0.414272  
     121A      0.414646   122A      0.418771   123A      0.427028  
     124A      0.431804   125A      0.437156   126A      0.438582  
     127A      0.442080   128A      0.443880   129A      0.451190  
     130A      0.454732   131A      0.458769   132A      0.461537  
     133A      0.467337   134A      0.468771   135A      0.471993  
     136A      0.473345   137A      0.480598   138A      0.482410  
     139A      0.483200   140A      0.488275   141A      0.494706  
     142A      0.495295   143A      0.496104   144A      0.504695  
     145A      0.510123   146A      0.510680   147A      0.518907  
     148A      0.522417   149A      0.522862   150A      0.528229  
     151A      0.531157   152A      0.537562   153A      0.541704  
     154A      0.546282   155A      0.549204   156A      0.550780  
     157A      0.556132   158A      0.558982   159A      0.566652  
     160A      0.573177   161A      0.576722   162A      0.579095  
     163A      0.582189   164A      0.592543   165A      0.597946  
     166A      0.603260   167A      0.607748   168A      0.608800  
     169A      0.613817   170A      0.616303   171A      0.624467  
     172A      0.626055   173A      0.634127   174A      0.641219  
     175A      0.643131   176A      0.648792   177A      0.652143  
     178A      0.661960   179A      0.662291   180A      0.669139  
     181A      0.676904   182A      0.677900   183A      0.678664  
     184A      0.684541   185A      0.691904   186A      0.701631  
     187A      0.705462   188A      0.710173   189A      0.718302  
     190A      0.721385   191A      0.730589   192A      0.739856  
     193A      0.744733   194A      0.754864   195A      0.762658  
     196A      0.762905   197A      0.773127   198A      0.777532  
     199A      0.783175   200A      0.795103   201A      0.795516  
     202A      0.811876   203A      0.816367   204A      0.829572  
     205A      0.830529   206A      0.833822   207A      0.841364  
     208A      0.852484   209A      0.860992   210A      0.861827  
     211A      0.863980   212A      0.871079   213A      0.871841  
     214A      0.878492   215A      0.896555   216A      0.897219  
     217A      0.903384   218A      0.905649   219A      0.913955  
     220A      0.914725   221A      0.920432   222A      0.921325  
     223A      0.929138   224A      0.930240   225A      0.938511  
     226A      0.944170   227A      0.951231   228A      0.952467  
     229A      0.958663   230A      0.959523   231A      0.971192  
     232A      0.974163   233A      0.974693   234A      0.981362  
     235A      0.981739   236A      0.998837   237A      1.001329  
     238A      1.005287   239A      1.011057   240A      1.013119  
     241A      1.014179   242A      1.019895   243A      1.030260  
     244A      1.037688   245A      1.037753   246A      1.042581  
     247A      1.052108   248A      1.053429   249A      1.056598  
     250A      1.058902   251A      1.061387   252A      1.066731  
     253A      1.076568   254A      1.083645   255A      1.088327  
     256A      1.092577   257A      1.095479   258A      1.101051  
     259A      1.104383   260A      1.112376   261A      1.113118  
     262A      1.121280   263A      1.125334   264A      1.140863  
     265A      1.142423   266A      1.147129   267A      1.151326  
     268A      1.167719   269A      1.168599   270A      1.170378  
     271A      1.172958   272A      1.180661   273A      1.195228  
     274A      1.199738   275A      1.205970   276A      1.210871  
     277A      1.215302   278A      1.220847   279A      1.224746  
     280A      1.229231   281A      1.232683   282A      1.236484  
     283A      1.238715   284A      1.245528   285A      1.247399  
     286A      1.254804   287A      1.268619   288A      1.272781  
     289A      1.276193   290A      1.283070   291A      1.287087  
     292A      1.288410   293A      1.299041   294A      1.304904  
     295A      1.313640   296A      1.315194   297A      1.316865  
     298A      1.323590   299A      1.331467   300A      1.335480  
     301A      1.339643   302A      1.344861   303A      1.350108  
     304A      1.356448   305A      1.373562   306A      1.373643  
     307A      1.375818   308A      1.383790   309A      1.394397  
     310A      1.398193   311A      1.417682   312A      1.421743  
     313A      1.432678   314A      1.433329   315A      1.446542  
     316A      1.450447   317A      1.470015   318A      1.472954  
     319A      1.473981   320A      1.483316   321A      1.490225  
     322A      1.490852   323A      1.515767   324A      1.517640  
     325A      1.524001   326A      1.525366   327A      1.532473  
     328A      1.541444   329A      1.544141   330A      1.552241  
     331A      1.563334   332A      1.572101   333A      1.578049  
     334A      1.585870   335A      1.587043   336A      1.591636  
     337A      1.610419   338A      1.613368   339A      1.618373  
     340A      1.631991   341A      1.634622   342A      1.636969  
     343A      1.643211   344A      1.657775   345A      1.659556  
     346A      1.667836   347A      1.669484   348A      1.681137  
     349A      1.682576   350A      1.690590   351A      1.691210  
     352A      1.700622   353A      1.700903   354A      1.713552  
     355A      1.723975   356A      1.726717   357A      1.728190  
     358A      1.740000   359A      1.743866   360A      1.746620  
     361A      1.754532   362A      1.758070   363A      1.763964  
     364A      1.769986   365A      1.771764   366A      1.782388  
     367A      1.793696   368A      1.797815   369A      1.807852  
     370A      1.816715   371A      1.816798   372A      1.826145  
     373A      1.832352   374A      1.840069   375A      1.843768  
     376A      1.848923   377A      1.857086   378A      1.863699  
     379A      1.868633   380A      1.881544   381A      1.886021  
     382A      1.888661   383A      1.888908   384A      1.898661  
     385A      1.902496   386A      1.906100   387A      1.906949  
     388A      1.922099   389A      1.925385   390A      1.927192  
     391A      1.948474   392A      1.954878   393A      1.960229  
     394A      1.964234   395A      1.975784   396A      1.980983  
     397A      1.994512   398A      1.995044   399A      1.997957  
     400A      2.003290   401A      2.009575   402A      2.012845  
     403A      2.028562   404A      2.031019   405A      2.051110  
     406A      2.056613   407A      2.063589   408A      2.066532  
     409A      2.073443   410A      2.073983   411A      2.087692  
     412A      2.094710   413A      2.101373   414A      2.115609  
     415A      2.116215   416A      2.121219   417A      2.123363  
     418A      2.140647   419A      2.143911   420A      2.153123  
     421A      2.156996   422A      2.178640   423A      2.182254  
     424A      2.187452   425A      2.189701   426A      2.195221  
     427A      2.215442   428A      2.227256   429A      2.235515  
     430A      2.240308   431A      2.253016   432A      2.256302  
     433A      2.268720   434A      2.270073   435A      2.279645  
     436A      2.289808   437A      2.300507   438A      2.313281  
     439A      2.319668   440A      2.326221   441A      2.329435  
     442A      2.343633   443A      2.365204   444A      2.368690  
     445A      2.377301   446A      2.382446   447A      2.387590  
     448A      2.395047   449A      2.406063   450A      2.412062  
     451A      2.430862   452A      2.436309   453A      2.451182  
     454A      2.454822   455A      2.459909   456A      2.470522  
     457A      2.482888   458A      2.488382   459A      2.494996  
     460A      2.499228   461A      2.513135   462A      2.533833  
     463A      2.548418   464A      2.551567   465A      2.551746  
     466A      2.568985   467A      2.572058   468A      2.609291  
     469A      2.619795   470A      2.636111   471A      2.638351  
     472A      2.658604   473A      2.672156   474A      2.675023  
     475A      2.697648   476A      2.712133   477A      2.722086  
     478A      2.738790   479A      2.763894   480A      2.774174  
     481A      2.801374   482A      2.806892   483A      2.831333  
     484A      2.917992   485A      2.961073   486A      2.967282  
     487A      3.011921   488A      3.049453   489A      3.078867  
     490A      3.117986   491A      3.205987   492A      3.261487  
     493A      3.289091   494A      3.338139   495A      3.338536  
     496A      3.401018   497A      3.430588   498A      3.462726  
     499A      3.464189   500A      3.485561   501A      3.496307  
     502A      3.505071   503A      3.514371   504A      3.519765  
     505A      3.533475   506A      3.564810   507A      3.570244  
     508A      3.586047   509A      3.590418   510A      3.601560  
     511A      3.610711   512A      3.619377   513A      3.624315  
     514A      3.635806   515A      3.646609   516A      3.656446  
     517A      3.661221   518A      3.678313   519A      3.685640  
     520A      3.696811   521A      3.698140   522A      3.725672  
     523A      3.725948   524A      3.738248   525A      3.749251  
     526A      3.754386   527A      3.756421   528A      3.771462  
     529A      3.781351   530A      3.794267   531A      3.802651  
     532A      3.807433   533A      3.811587   534A      3.830427  
     535A      3.833484   536A      3.849280   537A      3.851827  
     538A      3.854841   539A      3.866127   540A      3.873237  
     541A      3.882855   542A      3.899648   543A      3.902397  
     544A      3.913469   545A      3.916784   546A      3.926917  
     547A      3.936183   548A      3.943615   549A      3.950564  
     550A      3.970692   551A      3.971919   552A      3.989007  
     553A      3.991621   554A      4.000722   555A      4.005590  
     556A      4.005745   557A      4.014163   558A      4.014614  
     559A      4.019562   560A      4.034373   561A      4.038651  
     562A      4.050258   563A      4.061652   564A      4.063122  
     565A      4.064273   566A      4.075147   567A      4.083729  
     568A      4.087637   569A      4.097243   570A      4.099680  
     571A      4.099830   572A      4.128910   573A      4.136870  
     574A      4.138057   575A      4.152011   576A      4.174322  
     577A      4.175508   578A      4.176942   579A      4.194236  
     580A      4.202988   581A      4.207834   582A      4.208352  
     583A      4.227270   584A      4.239011   585A      4.245818  
     586A      4.257180   587A      4.263202   588A      4.263936  
     589A      4.273611   590A      4.278490   591A      4.293537  
     592A      4.297618   593A      4.300760   594A      4.312452  
     595A      4.312956   596A      4.324191   597A      4.353066  
     598A      4.355315   599A      4.371533   600A      4.394387  
     601A      4.397291   602A      4.417107   603A      4.420946  
     604A      4.426051   605A      4.432979   606A      4.441836  
     607A      4.443768   608A      4.475418   609A      4.478399  
     610A      4.496962   611A      4.520211   612A      4.529890  
     613A      4.530228   614A      4.549525   615A      4.555893  
     616A      4.587889   617A      4.595139   618A      4.605004  
     619A      4.608361   620A      4.651879   621A      4.660411  
     622A      4.690264   623A      4.690532   624A      4.701160  
     625A      4.708589   626A      4.718918   627A      4.727765  
     628A      4.735892   629A      4.739341   630A      4.741518  
     631A      4.750464   632A      4.768354   633A      4.781379  
     634A      4.786089   635A      4.796471   636A      4.809392  
     637A      4.819101   638A      4.824121   639A      4.836554  
     640A      4.836988   641A      4.846502   642A      4.855973  
     643A      4.862081   644A      4.866694   645A      4.880777  
     646A      4.888233   647A      4.906966   648A      4.907276  
     649A      4.919215   650A      4.928681   651A      4.956431  
     652A      4.975221   653A      4.987916   654A      4.995133  
     655A      5.003572   656A      5.025665   657A      5.050764  
     658A      5.053749   659A      5.079965   660A      5.090241  
     661A      5.102552   662A      5.117905   663A      5.128229  
     664A      5.144329   665A      5.144551   666A      5.153143  
     667A      5.200711   668A      5.207048   669A      5.210289  
     670A      5.216255   671A      5.233024   672A      5.233110  
     673A      5.239560   674A      5.250213   675A      5.264497  
     676A      5.280695   677A      5.291489   678A      5.305133  
     679A      5.311299   680A      5.330044   681A      5.330845  
     682A      5.336637   683A      5.353052   684A      5.362722  
     685A      5.373544   686A      5.378777   687A      5.392242  
     688A      5.408826   689A      5.424802   690A      5.428270  
     691A      5.441244   692A      5.444565   693A      5.455327  
     694A      5.457784   695A      5.461931   696A      5.470187  
     697A      5.489227   698A      5.498096   699A      5.504722  
     700A      5.518519   701A      5.542054   702A      5.560893  
     703A      5.570518   704A      5.582880   705A      5.598992  
     706A      5.601953   707A      5.616645   708A      5.647086  
     709A      5.652049   710A      5.660206   711A      5.680640  
     712A      5.684003   713A      5.692458   714A      5.701493  
     715A      5.717795   716A      5.720612   717A      5.726010  
     718A      5.756009   719A      5.760195   720A      5.772637  
     721A      5.779140   722A      5.795851   723A      5.817600  
     724A      5.818015   725A      5.855051   726A      5.864812  
     727A      5.881788   728A      5.889719   729A      5.918506  
     730A      5.927830   731A      5.963246   732A      5.974729  
     733A      5.977630   734A      6.019235   735A      6.027578  
     736A      6.055988   737A      6.058435   738A      6.085491  
     739A      6.091989   740A      6.149998   741A      6.170760  
     742A      6.178889   743A      6.194231   744A      6.230248  
     745A      6.236443   746A      6.244215   747A      6.261426  
     748A      6.270482   749A      6.290995   750A      6.293583  
     751A      6.324979   752A      6.325693   753A      6.370808  
     754A      6.383326   755A      6.389130   756A      6.430001  
     757A      6.439812   758A      6.454572   759A      6.600372  
     760A      6.623227   761A      6.661501   762A      6.710421  
     763A      6.745411   764A      6.811202   765A      6.816879  
     766A      6.824128   767A      6.879368   768A      6.891697  
     769A      6.960874   770A      6.983908   771A      7.077811  
     772A      7.107679   773A      7.132307   774A      7.189352  
     775A     18.235751   776A     18.327918   777A     18.488296  
     778A     18.608192   779A     18.625212   780A     18.891809  
     781A     19.651029   782A     19.997384  

    Final Occupation by Irrep:
              A 
    DOCC [    33 ]

  Energy converged.

  @DF-RHF Final Energy:  -313.54099212913263

   => Energetics <=

    Nuclear Repulsion Energy =            401.5119247672853362
    One-Electron Energy =               -1218.1246622585342720
    Two-Electron Energy =                 503.0717453621161894
    DFT Exchange-Correlation Energy =       0.0000000000000000
    Empirical Dispersion Energy =           0.0000000000000000
    PCM Polarization Energy =               0.0000000000000000
    EFP Energy =                            0.0000000000000000
    Total Energy =                       -313.5409921291327464


  Saving occupied orbitals to File 180.

*** tstop() called on wr34 at Tue Sep 20 16:44:35 2016
Module time:
	user time   =     964.42 seconds =      16.07 minutes
	system time =      11.82 seconds =       0.20 minutes
	total time  =         89 seconds =       1.48 minutes
Total time:
	user time   =     964.42 seconds =      16.07 minutes
	system time =      11.82 seconds =       0.20 minutes
	total time  =         89 seconds =       1.48 minutes


Properties will be evaluated at   0.000000,   0.000000,   0.000000 Bohr

Properties computed using the SCF density matrix

  Nuclear Dipole Moment: (a.u.)
     X:     0.0000      Y:    -0.0000      Z:    -2.0546

  Electronic Dipole Moment: (a.u.)
     X:    -0.0000      Y:     0.0000      Z:     2.1027

  Dipole Moment: (a.u.)
     X:     0.0000      Y:     0.0000      Z:     0.0481     Total:     0.0481

  Dipole Moment: (Debye)
     X:     0.0000      Y:     0.0000      Z:     0.1224     Total:     0.1224


  //>>>>>>>>>>>>>>>>>>>>>>>>>>>>>>>>>>>//
  //               DFMP2               //
  //<<<<<<<<<<<<<<<<<<<<<<<<<<<<<<<<<<<//


*** tstart() called on wr34
*** at Tue Sep 20 16:44:35 2016


*** tstop() called on wr34 at Tue Sep 20 16:44:35 2016
Module time:
	user time   =       4.00 seconds =       0.07 minutes
	system time =       0.23 seconds =       0.00 minutes
	total time  =          0 seconds =       0.00 minutes
Total time:
	user time   =     968.98 seconds =      16.15 minutes
	system time =      12.08 seconds =       0.20 minutes
	total time  =         89 seconds =       1.48 minutes
	 --------------------------------------------------------
	                          DF-MP2                         
	      2nd-Order Density-Fitted Moller-Plesset Theory     
	              RMP2 Wavefunction,  12 Threads             
	                                                         
	        Rob Parrish, Justin Turney, Andy Simmonett,      
	           Ed Hohenstein, and C. David Sherrill          
	 --------------------------------------------------------

   => Auxiliary Basis Set <=

  Basis Set: 
    Number of shells: 476
    Number of basis function: 1676
    Number of Cartesian functions: 2078
    Spherical Harmonics?: true
    Max angular momentum: 4

	 --------------------------------------------------------
	                 NBF =   782, NAUX =  1676
	 --------------------------------------------------------
	   CLASS    FOCC     OCC    AOCC    AVIR     VIR    FVIR
	   PAIRS       8      33      25     749     749       0
	 --------------------------------------------------------

DGAS Warning! /src/lib/libfock/apps.cc:80 is not currently checking restricted

         ------------------------------------------------------------
                                     CPHF                           
                                  Rob Parrish                       
         ------------------------------------------------------------

  ==> Geometry <==

    Molecular point group: c1
    Full point group: C1

    Geometry (in Angstrom), charge = 0, multiplicity = 1:

       Center              X                  Y                   Z               Mass       
    ------------   -----------------  -----------------  -----------------  -----------------
           C          0.103136162663     3.154876709479    -1.295660067108    12.000000000000
           H          0.936779984451     3.833059330288    -1.462700885882     1.007825032070
           H         -0.792948764207     3.753396270975    -1.141477392240     1.007825032070
           H         -0.041149322272     2.570354133077    -2.202826059052     1.007825032070
           C         -0.103130920518    -3.154890831976    -1.295622902488    12.000000000000
           H          0.041130792802    -2.570370932014    -2.202795288803     1.007825032070
           H         -0.936767126866    -3.833088389316    -1.462646681306     1.007825032070
           H          0.792966630473    -3.753395790487    -1.141450725296     1.007825032070
           C          0.350547877011     2.243564237386    -0.107927519225    12.000000000000
           H          0.505230112274     2.840981464663     0.793076162882     1.007825032070
           H          1.270321412558     1.681457676874    -0.268948291372     1.007825032070
           C         -0.350540555313    -2.243575683563    -0.107891693442    12.000000000000
           H         -1.270324132499    -1.681480381502    -0.268905143671     1.007825032070
           H         -0.505206119610    -2.840991727494     0.793117589693     1.007825032070
           C         -0.802041475656     1.284639953034     0.127325287053    12.000000000000
           H         -0.923740787244     0.651586791086    -0.754370138379     1.007825032070
           H         -1.726081609226     1.859529594425     0.217967446222     1.007825032070
           C         -0.634280628876     0.421987293610     1.368242507159    12.000000000000
           H         -1.502846321495    -0.228457752253     1.474883547336     1.007825032070
           H         -0.625283287323     1.067901517345     2.248467607099     1.007825032070
           C          0.634270321050    -0.421966797571     1.368251192938    12.000000000000
           H          1.502834474194     0.228480681283     1.474888357106     1.007825032070
           H          0.625269737616    -1.067870478099     2.248484253491     1.007825032070
           C          0.802039018071    -1.284633836161     0.127345611540    12.000000000000
           H          0.923731994626    -0.651589959978    -0.754358553046     1.007825032070
           H          1.726084731770    -1.859514482414     0.217994535705     1.007825032070

  Nuclear repulsion =  401.511924767285336
  Reference energy  = -313.540992129132633

  ==> Basis Set <==

  Basis Set: AUG-CC-PVTZ
    Number of shells: 274
    Number of basis function: 782
    Number of Cartesian functions: 890
    Spherical Harmonics?: true
    Max angular momentum: 3

  ==> CGRSolver (by Rob Parrish) <==

   Number of roots    =         1
   Preconditioning    =    JACOBI
   Convergence cutoff =     1E-06
   Maximum iterations =       100

  ==> CPHFRHamiltonian (by Rob Parrish) <== 

  ==> DFJK: Density-Fitted J/K Matrices <==

    J tasked:                  Yes
    K tasked:                  Yes
    wK tasked:                  No
    OpenMP threads:             12
    Integrals threads:          12
    Memory (MB):             21457
    Algorithm:                Core
    Integral Cache:           NONE
    Schwarz Cutoff:          1E-12
    Fitting Condition:       1E-12

   => Auxiliary Basis Set <=

  Basis Set: 
    Number of shells: 492
    Number of basis function: 1660
    Number of Cartesian functions: 2038
    Spherical Harmonics?: true
    Max angular momentum: 4

  ==> CPHF Iterations <==

  => Iterations <=

             Iter  Converged  Remaining    Residual
  CGR           1          0          1   9.191E-02
  CGR           2          0          1   1.340E-02
  CGR           3          0          1   4.143E-03
  CGR           4          0          1   8.867E-04
  CGR           5          0          1   2.114E-04
  CGR           6          0          1   5.196E-05
  CGR           7          0          1   1.323E-05
  CGR           8          0          1   3.321E-06
  CGR           9          1          0   8.208E-07

    CGRSolver converged.

  ==> DFCorrGrad: Density-Fitted Correlated Gradients <==

    OpenMP threads:             12
    Integrals threads:          12
    Memory (MB):             21457
    Schwarz Cutoff:          0E+00
    Fitting Condition:       1E-12

   => Auxiliary Basis Set <=

  Basis Set: 
    Number of shells: 492
    Number of basis function: 1660
    Number of Cartesian functions: 2038
    Spherical Harmonics?: true
    Max angular momentum: 4

	-----------------------------------------------------------
	 ==================> DF-MP2 Energies <==================== 
	-----------------------------------------------------------
	 Reference Energy          =    -313.5409921291326327 [Eh]
	 Singles Energy            =      -0.0000000000000001 [Eh]
	 Same-Spin Energy          =      -0.3174089919550847 [Eh]
	 Opposite-Spin Energy      =      -1.1257447462766887 [Eh]
	 Correlation Energy        =      -1.4431537382317734 [Eh]
	 Total Energy              =    -314.9841458673644183 [Eh]
	-----------------------------------------------------------
	 ================> DF-SCS-MP2 Energies <================== 
	-----------------------------------------------------------
	 SCS Same-Spin Scale       =       0.3333333333333333 [-]
	 SCS Opposite-Spin Scale   =       1.2000000000000000 [-]
	 SCS Same-Spin Energy      =      -0.1058029973183616 [Eh]
	 SCS Opposite-Spin Energy  =      -1.3508936955320265 [Eh]
	 SCS Correlation Energy    =      -1.4566966928503882 [Eh]
	 SCS Total Energy          =    -314.9976888219830471 [Eh]
	-----------------------------------------------------------


  -Total Gradient:
     Atom            X                  Y                   Z
    ------   -----------------  -----------------  -----------------
       1        0.000300311795    -0.000946555043     0.001160939319
       2       -0.000970742521    -0.001017086146     0.000416348305
       3        0.001144107670    -0.000965600504     0.000066995232
       4        0.000194717635     0.000557587406     0.001411755358
       5       -0.000300235680     0.000946676170     0.001161145799
       6       -0.000194659350    -0.000557288987     0.001411294201
       7        0.000970254345     0.001016770508     0.000416299413
       8       -0.001143683620     0.000965245292     0.000067030914
       9       -0.001533666141    -0.000420774133    -0.001276252473
      10       -0.000491990739    -0.000789102691    -0.001036136417
      11       -0.001454264096     0.000573393417     0.000022005060
      12        0.001534228101     0.000420127110    -0.001276807141
      13        0.001453338001    -0.000572676702     0.000021874470
      14        0.000491777943     0.000788326812    -0.001035207096
      15        0.001799435858    -0.000124585843     0.001065623630
      16        0.000422754121     0.000699580932     0.001248970249
      17        0.001199088562    -0.000677523331     0.000124365407
      18        0.001248374496     0.000056777500    -0.001686298147
      19        0.001329078962     0.000563083587    -0.000312866269
      20        0.000246917012    -0.000680455903    -0.001205545847
      21       -0.001248371818    -0.000056743256    -0.001686317773
      22       -0.001329247808    -0.000563239592    -0.000312919723
      23       -0.000246868124     0.000680380917    -0.001205547840
      24       -0.001799237114     0.000125451259     0.001066297299
      25       -0.000422428490    -0.000698930262     0.001248608409
      26       -0.001198989001     0.000677161481     0.000124345661


			-----------------------------------------
			 OPTKING 2.0: for geometry optimizations 
			  - R.A. King,  Bethel University        
			-----------------------------------------

	Internal coordinates to be generated automatically.
	Detected frag 1 with atoms:  1 2 3 4 5 6 7 8 9 10 11 12 13 14 15 16 17 18 19 20
	 21 22 23 24 25 26
	---Fragment 1 Bond Connectivity---
	 1 : 2 3 4 9
	 2 : 1
	 3 : 1
	 4 : 1
	 5 : 6 7 8 12
	 6 : 5
	 7 : 5
	 8 : 5
	 9 : 1 10 11 15
	 10 : 9
	 11 : 9
	 12 : 5 13 14 24
	 13 : 12
	 14 : 12
	 15 : 9 16 17 18
	 16 : 15
	 17 : 15
	 18 : 15 19 20 21
	 19 : 18
	 20 : 18
	 21 : 18 22 23 24
	 22 : 21
	 23 : 21
	 24 : 12 21 25 26
	 25 : 24
	 26 : 24

	---Fragment 1 Geometry and Gradient---
	 C           0.1948991018        5.9618529639       -2.4484426882
	 H           1.7702576174        7.2434323853       -2.7641040886
	 H          -1.4984560018        7.0928910203       -2.1570796582
	 H          -0.0777609496        4.8572653760       -4.1627379700
	 C          -0.1948891956       -5.9618796516       -2.4483724572
	 H           0.0777259340       -4.8572971214       -4.1626798226
	 H          -1.7702333201       -7.2434872990       -2.7640016568
	 H           1.4984897641       -7.0928901123       -2.1570292650
	 C           0.6624394840        4.2397219702       -0.2039534535
	 H           0.9547465463        5.3686769168        1.4986967504
	 H           2.4005595705        3.1774945133       -0.5082386146
	 C          -0.6624256480       -4.2397436003       -0.2038857526
	 H          -2.4005647104       -3.1775374189       -0.5081570773
	 H          -0.9547012067       -5.3686963108        1.4987750357
	 C          -1.5156387362        2.4276176906        0.2406099223
	 H          -1.7456171057        1.2313205870       -1.4255529644
	 H          -3.2618215244        3.5140016695        0.4118987792
	 C          -1.1986166800        0.7974404165        2.5856036219
	 H          -2.8399679674       -0.4317225847        2.7871259824
	 H          -1.1816141685        2.0180414047        4.2489879961
	 C           1.1985972010       -0.7974016846        2.5856200356
	 H           2.8399455793        0.4317659143        2.7871350715
	 H           1.1815885633       -2.0179827490        4.2490194532
	 C           1.5156340920       -2.4276061314        0.2406483300
	 H           1.7456004900       -1.2313265753       -1.4255310713
	 H           3.2618274252       -3.5139731119        0.4119499709
	             0.0003003118       -0.0009465550        0.0011609393
	            -0.0009707425       -0.0010170861        0.0004163483
	             0.0011441077       -0.0009656005        0.0000669952
	             0.0001947176        0.0005575874        0.0014117554
	            -0.0003002357        0.0009466762        0.0011611458
	            -0.0001946594       -0.0005572890        0.0014112942
	             0.0009702543        0.0010167705        0.0004162994
	            -0.0011436836        0.0009652453        0.0000670309
	            -0.0015336661       -0.0004207741       -0.0012762525
	            -0.0004919907       -0.0007891027       -0.0010361364
	            -0.0014542641        0.0005733934        0.0000220051
	             0.0015342281        0.0004201271       -0.0012768071
	             0.0014533380       -0.0005726767        0.0000218745
	             0.0004917779        0.0007883268       -0.0010352071
	             0.0017994359       -0.0001245858        0.0010656236
	             0.0004227541        0.0006995809        0.0012489702
	             0.0011990886       -0.0006775233        0.0001243654
	             0.0012483745        0.0000567775       -0.0016862981
	             0.0013290790        0.0005630836       -0.0003128663
	             0.0002469170       -0.0006804559       -0.0012055458
	            -0.0012483718       -0.0000567433       -0.0016863178
	            -0.0013292478       -0.0005632396       -0.0003129197
	            -0.0002468681        0.0006803809       -0.0012055478
	            -0.0017992371        0.0001254513        0.0010662973
	            -0.0004224285       -0.0006989303        0.0012486084
	            -0.0011989890        0.0006771615        0.0001243457

	Previous optimization step data not found.  Starting new optimization.

	---Fragment 1 Intrafragment Coordinates---
	 - Coordinate -           - BOHR/RAD -       - ANG/DEG -
	 R(1,2)           =         2.055199	       1.087564
	 R(1,3)           =         2.057083	       1.088562
	 R(1,4)           =         2.057490	       1.088777
	 R(1,9)           =         2.867414	       1.517370
	 R(5,6)           =         2.057492	       1.088778
	 R(5,7)           =         2.055200	       1.087565
	 R(5,8)           =         2.057085	       1.088562
	 R(5,12)          =         2.867414	       1.517370
	 R(9,10)          =         2.063735	       1.092081
	 R(9,11)          =         2.059606	       1.089897
	 R(9,15)          =         2.867993	       1.517676
	 R(12,13)         =         2.059609	       1.089898
	 R(12,14)         =         2.063738	       1.092083
	 R(12,24)         =         2.867995	       1.517678
	 R(15,16)         =         2.064005	       1.092224
	 R(15,17)         =         2.063668	       1.092046
	 R(15,18)         =         2.873495	       1.520588
	 R(18,19)         =         2.060458	       1.090347
	 R(18,20)         =         2.063251	       1.091825
	 R(18,21)         =         2.879263	       1.523640
	 R(21,22)         =         2.060458	       1.090347
	 R(21,23)         =         2.063251	       1.091825
	 R(21,24)         =         2.873495	       1.520588
	 R(24,25)         =         2.064007	       1.092225
	 R(24,26)         =         2.063669	       1.092046
	 B(1,9,10)        =         1.918083	     109.898081
	 B(1,9,11)        =         1.908908	     109.372365
	 B(1,9,15)        =         1.957327	     112.146595
	 B(2,1,3)         =         1.885867	     108.052199
	 B(2,1,4)         =         1.884290	     107.961864
	 B(2,1,9)         =         1.949541	     111.700481
	 B(3,1,4)         =         1.879795	     107.704327
	 B(3,1,9)         =         1.932183	     110.705941
	 B(4,1,9)         =         1.929827	     110.570962
	 B(5,12,13)       =         1.908908	     109.372360
	 B(5,12,14)       =         1.918083	     109.898065
	 B(5,12,24)       =         1.957329	     112.146697
	 B(6,5,7)         =         1.884290	     107.961857
	 B(6,5,8)         =         1.879795	     107.704340
	 B(6,5,12)        =         1.929828	     110.570984
	 B(7,5,8)         =         1.885866	     108.052184
	 B(7,5,12)        =         1.949540	     111.700407
	 B(8,5,12)        =         1.932184	     110.706003
	 B(9,15,16)       =         1.902551	     109.008125
	 B(9,15,17)       =         1.899538	     108.835527
	 B(9,15,18)       =         1.983583	     113.650906
	 B(10,9,11)       =         1.859274	     106.528564
	 B(10,9,15)       =         1.902150	     108.985164
	 B(11,9,15)       =         1.915520	     109.751197
	 B(12,24,21)      =         1.983582	     113.650881
	 B(12,24,25)      =         1.902554	     109.008286
	 B(12,24,26)      =         1.899535	     108.835359
	 B(13,12,14)      =         1.859274	     106.528549
	 B(13,12,24)      =         1.915518	     109.751123
	 B(14,12,24)      =         1.902150	     108.985165
	 B(15,18,19)      =         1.907483	     109.290727
	 B(15,18,20)      =         1.899914	     108.857077
	 B(15,18,21)      =         1.988978	     113.960040
	 B(16,15,17)      =         1.852344	     106.131494
	 B(16,15,18)      =         1.920110	     110.014221
	 B(17,15,18)      =         1.901037	     108.921395
	 B(18,21,22)      =         1.910062	     109.438495
	 B(18,21,23)      =         1.897393	     108.712635
	 B(18,21,24)      =         1.988978	     113.960062
	 B(19,18,20)      =         1.855244	     106.297664
	 B(19,18,21)      =         1.910063	     109.438571
	 B(20,18,21)      =         1.897392	     108.712556
	 B(21,24,25)      =         1.920110	     110.014186
	 B(21,24,26)      =         1.901038	     108.921441
	 B(22,21,23)      =         1.855244	     106.297667
	 B(22,21,24)      =         1.907482	     109.290694
	 B(23,21,24)      =         1.899914	     108.857081
	 B(25,24,26)      =         1.852344	     106.131516
	 D(1,9,15,16)     =         1.064425	      60.987065
	 D(1,9,15,17)     =        -0.948655	     -54.353944
	 D(1,9,15,18)     =        -3.070320	    -175.916367
	 D(2,1,9,10)      =         1.031273	      59.087577
	 D(2,1,9,11)      =        -1.004032	     -57.526772
	 D(2,1,9,15)      =        -3.133263	    -179.522763
	 D(3,1,9,10)      =        -1.071194	     -61.374874
	 D(3,1,9,11)      =        -3.106498	    -177.989223
	 D(3,1,9,15)      =         1.047456	      60.014786
	 D(4,1,9,10)      =         3.130134	     179.343492
	 D(4,1,9,11)      =         1.094830	      62.729143
	 D(4,1,9,15)      =        -1.034402	     -59.266848
	 D(5,12,24,21)    =        -3.070333	    -175.917094
	 D(5,12,24,25)    =         1.064411	      60.986280
	 D(5,12,24,26)    =        -0.948669	     -54.354750
	 D(6,5,12,13)     =         1.094823	      62.728765
	 D(6,5,12,14)     =         3.130127	     179.343084
	 D(6,5,12,24)     =        -1.034408	     -59.267197
	 D(7,5,12,13)     =        -1.004037	     -57.527106
	 D(7,5,12,14)     =         1.031266	      59.087213
	 D(7,5,12,24)     =        -3.133269	    -179.523068
	 D(8,5,12,13)     =        -3.106503	    -177.989530
	 D(8,5,12,14)     =        -1.071200	     -61.375211
	 D(8,5,12,24)     =         1.047451	      60.014508
	 D(9,15,18,19)    =         3.130338	     179.355169
	 D(9,15,18,20)    =         1.110917	      63.650835
	 D(9,15,18,21)    =        -1.009968	     -57.866898
	 D(10,9,15,16)    =        -3.090987	    -177.100527
	 D(10,9,15,17)    =         1.179118	      67.558465
	 D(10,9,15,18)    =        -0.942547	     -54.003959
	 D(11,9,15,16)    =        -1.061030	     -60.792561
	 D(11,9,15,17)    =        -3.074111	    -176.133569
	 D(11,9,15,18)    =         1.087410	      62.304007
	 D(12,24,21,18)   =        -1.009982	     -57.867728
	 D(12,24,21,22)   =         3.130326	     179.354447
	 D(12,24,21,23)   =         1.110904	      63.650125
	 D(13,12,24,21)   =         1.087397	      62.303270
	 D(13,12,24,25)   =        -1.061044	     -60.793356
	 D(13,12,24,26)   =        -3.074125	    -176.134386
	 D(14,12,24,21)   =        -0.942559	     -54.004638
	 D(14,12,24,25)   =        -3.091000	    -177.101263
	 D(14,12,24,26)   =         1.179104	      67.557706
	 D(15,18,21,22)   =         1.207927	      69.209130
	 D(15,18,21,23)   =        -3.055823	    -175.085742
	 D(15,18,21,24)   =        -0.933540	     -53.487897
	 D(16,15,18,19)   =        -1.014054	     -58.101022
	 D(16,15,18,20)   =        -3.033476	    -173.805356
	 D(16,15,18,21)   =         1.128825	      64.676911
	 D(17,15,18,19)   =         1.009509	      57.840589
	 D(17,15,18,20)   =        -1.009913	     -57.863745
	 D(17,15,18,21)   =        -3.130797	    -179.381477
	 D(18,21,24,25)   =         1.128813	      64.676247
	 D(18,21,24,26)   =        -3.130808	    -179.382108
	 D(19,18,21,22)   =        -2.933790	    -168.093759
	 D(19,18,21,23)   =        -0.914354	     -52.388631
	 D(19,18,21,24)   =         1.207929	      69.209215
	 D(20,18,21,22)   =        -0.914354	     -52.388637
	 D(20,18,21,23)   =         1.105081	      63.316490
	 D(20,18,21,24)   =        -3.055821	    -175.085664
	 D(22,21,24,25)   =        -1.014064	     -58.101578
	 D(22,21,24,26)   =         1.009500	      57.840066
	 D(23,21,24,25)   =        -3.033485	    -173.805900
	 D(23,21,24,26)   =        -1.009922	     -57.864255
	 R(9,24)          =         6.736384	       3.564741
	 R(12,15)         =         6.736413	       3.564756

	Current energy   :      -314.9841458674

	Generating empirical Hessian (Schlegel '84) for each fragment.
	Taking RFO optimization step.
	Going to follow RFO solution 1.
	Using RFO vector 1.
	Norm of target step-size    0.08561
	Projected energy change by RFO approximation:        -0.0001649537

	Back-transformation to cartesian coordinates...
	Successfully converged to displaced geometry.

	--- Internal Coordinate Step in ANG or DEG, aJ/ANG or AJ/DEG ---
	 ---------------------------------------------------------------------------
	   Coordinate                Previous        Force       Change         New 
	   ----------                --------       ------       ------       ------
	    1 R(1,2)          =      1.087564     0.011883     0.002171     1.089736
	    2 R(1,3)          =      1.088562     0.012055     0.002210     1.090772
	    3 R(1,4)          =      1.088777     0.012370     0.002270     1.091046
	    4 R(1,9)          =      1.517370     0.032341     0.006772     1.524142
	    5 R(5,6)          =      1.088778     0.012365     0.002269     1.091046
	    6 R(5,7)          =      1.087565     0.011878     0.002170     1.089736
	    7 R(5,8)          =      1.088562     0.012051     0.002209     1.090772
	    8 R(5,12)         =      1.517370     0.032338     0.006771     1.524141
	    9 R(9,10)         =      1.092081     0.011173     0.002073     1.094154
	   10 R(9,11)         =      1.089897     0.012574     0.002316     1.092212
	   11 R(9,15)         =      1.517676     0.029925     0.006814     1.524490
	   12 R(12,13)        =      1.089898     0.012565     0.002314     1.092212
	   13 R(12,14)        =      1.092083     0.011163     0.002071     1.094154
	   14 R(12,24)        =      1.517678     0.029917     0.006812     1.524490
	   15 R(15,16)        =      1.092224     0.012035     0.002234     1.094458
	   16 R(15,17)        =      1.092046     0.011213     0.002080     1.094126
	   17 R(15,18)        =      1.520588     0.027457     0.006975     1.527564
	   18 R(18,19)        =      1.090347     0.011742     0.002166     1.092513
	   19 R(18,20)        =      1.091825     0.011307     0.002096     1.093921
	   20 R(18,21)        =      1.523640     0.027598     0.007233     1.530873
	   21 R(21,22)        =      1.090347     0.011744     0.002166     1.092513
	   22 R(21,23)        =      1.091825     0.011307     0.002096     1.093921
	   23 R(21,24)        =      1.520588     0.027460     0.006976     1.527564
	   24 R(24,25)        =      1.092225     0.012029     0.002232     1.094458
	   25 R(24,26)        =      1.092046     0.011210     0.002079     1.094126
	   26 B(1,9,10)       =    109.898081    -0.000003    -0.044651   109.853430
	   27 B(1,9,11)       =    109.372365     0.000001     0.000662   109.373027
	   28 B(1,9,15)       =    112.146595    -0.000009     0.005133   112.151728
	   29 B(2,1,3)        =    108.052199    -0.000024    -0.123163   107.929036
	   30 B(2,1,4)        =    107.961864    -0.000022    -0.113776   107.848088
	   31 B(2,1,9)        =    111.700481     0.000017     0.070092   111.770573
	   32 B(3,1,4)        =    107.704327    -0.000022    -0.086930   107.617396
	   33 B(3,1,9)        =    110.705941     0.000026     0.127517   110.833458
	   34 B(4,1,9)        =    110.570962     0.000022     0.109619   110.680581
	   35 B(5,12,13)      =    109.372360     0.000001     0.000665   109.373024
	   36 B(5,12,14)      =    109.898065    -0.000003    -0.044612   109.853453
	   37 B(5,12,24)      =    112.146697    -0.000009     0.005044   112.151740
	   38 B(6,5,7)        =    107.961857    -0.000022    -0.113765   107.848092
	   39 B(6,5,8)        =    107.704340    -0.000022    -0.086951   107.617389
	   40 B(6,5,12)       =    110.570984     0.000022     0.109613   110.680597
	   41 B(7,5,8)        =    108.052184    -0.000024    -0.123161   107.929022
	   42 B(7,5,12)       =    111.700407     0.000017     0.070169   111.770575
	   43 B(8,5,12)       =    110.706003     0.000026     0.127452   110.833455
	   44 B(9,15,16)      =    109.008125    -0.000007     0.017716   109.025842
	   45 B(9,15,17)      =    108.835527     0.000007    -0.080263   108.755264
	   46 B(9,15,18)      =    113.650906    -0.000002     0.177218   113.828124
	   47 B(10,9,11)      =    106.528564    -0.000013    -0.165749   106.362815
	   48 B(10,9,15)      =    108.985164     0.000013     0.095380   109.080544
	   49 B(11,9,15)      =    109.751197     0.000011     0.100677   109.851874
	   50 B(12,24,21)     =    113.650881    -0.000002     0.177287   113.828168
	   51 B(12,24,25)     =    109.008286    -0.000007     0.017491   109.025777
	   52 B(12,24,26)     =    108.835359     0.000007    -0.080126   108.755233
	   53 B(13,12,14)     =    106.528549    -0.000013    -0.165745   106.362804
	   54 B(13,12,24)     =    109.751123     0.000011     0.100755   109.851878
	   55 B(14,12,24)     =    108.985165     0.000013     0.095352   109.080517
	   56 B(15,18,19)     =    109.290727    -0.000003    -0.113722   109.177006
	   57 B(15,18,20)     =    108.857077     0.000059     0.048505   108.905582
	   58 B(15,18,21)     =    113.960040    -0.000100     0.127936   114.087976
	   59 B(16,15,17)     =    106.131494    -0.000011    -0.187252   105.944242
	   60 B(16,15,18)     =    110.014221     0.000005     0.029153   110.043374
	   61 B(17,15,18)     =    108.921395     0.000008     0.016040   108.937435
	   62 B(18,21,22)     =    109.438495     0.000056     0.067072   109.505568
	   63 B(18,21,23)     =    108.712635     0.000020     0.053700   108.766335
	   64 B(18,21,24)     =    113.960062    -0.000099     0.127979   114.088042
	   65 B(19,18,20)     =    106.297664    -0.000028    -0.207379   106.090284
	   66 B(19,18,21)     =    109.438571     0.000056     0.067068   109.505640
	   67 B(20,18,21)     =    108.712556     0.000020     0.053772   108.766327
	   68 B(21,24,25)     =    110.014186     0.000005     0.029259   110.043445
	   69 B(21,24,26)     =    108.921441     0.000008     0.015962   108.937403
	   70 B(22,21,23)     =    106.297667    -0.000028    -0.207389   106.090278
	   71 B(22,21,24)     =    109.290694    -0.000003    -0.113684   109.177010
	   72 B(23,21,24)     =    108.857081     0.000059     0.048497   108.905578
	   73 B(25,24,26)     =    106.131516    -0.000011    -0.187264   105.944252
	   74 D(1,9,15,16)    =     60.987065    -0.000001    -0.478552    60.508512
	   75 D(1,9,15,17)    =    -54.353944     0.000002    -0.222405   -54.576348
	   76 D(1,9,15,18)    =   -175.916367    -0.000001    -0.303480  -176.219847
	   77 D(2,1,9,10)     =     59.087577    -0.000002    -0.223479    58.864098
	   78 D(2,1,9,11)     =    -57.526772     0.000002     0.001950   -57.524821
	   79 D(2,1,9,15)     =   -179.522763    -0.000000    -0.129872  -179.652635
	   80 D(3,1,9,10)     =    -61.374874    -0.000002    -0.201695   -61.576568
	   81 D(3,1,9,11)     =   -177.989223     0.000002     0.023735  -177.965488
	   82 D(3,1,9,15)     =     60.014786     0.000000    -0.108087    59.906699
	   83 D(4,1,9,10)     =    179.343492    -0.000002    -0.246162   179.097330
	   84 D(4,1,9,11)     =     62.729143     0.000001    -0.020732    62.708411
	   85 D(4,1,9,15)     =    -59.266848    -0.000001    -0.152554   -59.419402
	   86 D(5,12,24,21)   =   -175.917094    -0.000001    -0.302762  -176.219856
	   87 D(5,12,24,25)   =     60.986280    -0.000001    -0.477850    60.508430
	   88 D(5,12,24,26)   =    -54.354750     0.000002    -0.221641   -54.576391
	   89 D(6,5,12,13)    =     62.728765     0.000001    -0.020468    62.708297
	   90 D(6,5,12,14)    =    179.343084    -0.000002    -0.245870   179.097214
	   91 D(6,5,12,24)    =    -59.267197    -0.000001    -0.152332   -59.419529
	   92 D(7,5,12,13)    =    -57.527106     0.000002     0.002152   -57.524954
	   93 D(7,5,12,14)    =     59.087213    -0.000002    -0.223249    58.863964
	   94 D(7,5,12,24)    =   -179.523068    -0.000000    -0.129711  -179.652779
	   95 D(8,5,12,13)    =   -177.989530     0.000002     0.023928  -177.965602
	   96 D(8,5,12,14)    =    -61.375211    -0.000002    -0.201474   -61.576685
	   97 D(8,5,12,24)    =     60.014508     0.000000    -0.107936    59.906572
	   98 D(9,15,18,19)   =    179.355169     0.000003    -0.575723   178.779445
	   99 D(9,15,18,20)   =     63.650835     0.000004    -0.293216    63.357619
	  100 D(9,15,18,21)   =    -57.866898     0.000003    -0.484483   -58.351381
	  101 D(10,9,15,16)   =   -177.100527    -0.000001    -0.465429  -177.565956
	  102 D(10,9,15,17)   =     67.558465     0.000002    -0.209281    67.349183
	  103 D(10,9,15,18)   =    -54.003959    -0.000001    -0.290356   -54.294315
	  104 D(11,9,15,16)   =    -60.792561    -0.000002    -0.553586   -61.346147
	  105 D(11,9,15,17)   =   -176.133569     0.000001    -0.297438  -176.431008
	  106 D(11,9,15,18)   =     62.304007    -0.000002    -0.378513    61.925494
	  107 D(12,24,21,18)  =    -57.867728     0.000003    -0.484107   -58.351835
	  108 D(12,24,21,22)  =    179.354447     0.000003    -0.575411   178.779036
	  109 D(12,24,21,23)  =     63.650125     0.000004    -0.292907    63.357217
	  110 D(13,12,24,21)  =     62.303270    -0.000002    -0.377793    61.925477
	  111 D(13,12,24,25)  =    -60.793356    -0.000002    -0.552882   -61.346238
	  112 D(13,12,24,26)  =   -176.134386     0.000001    -0.296672  -176.431059
	  113 D(14,12,24,21)  =    -54.004638    -0.000001    -0.289668   -54.294306
	  114 D(14,12,24,25)  =   -177.101263    -0.000001    -0.464757  -177.566020
	  115 D(14,12,24,26)  =     67.557706     0.000002    -0.208548    67.349159
	  116 D(15,18,21,22)  =     69.209130     0.000006     0.668124    69.877254
	  117 D(15,18,21,23)  =   -175.085742     0.000008     0.487138  -174.598604
	  118 D(15,18,21,24)  =    -53.487897     0.000013     0.675112   -52.812785
	  119 D(16,15,18,19)  =    -58.101022     0.000002    -0.403958   -58.504981
	  120 D(16,15,18,20)  =   -173.805356     0.000002    -0.121451  -173.926807
	  121 D(16,15,18,21)  =     64.676911     0.000002    -0.312719    64.364193
	  122 D(17,15,18,19)  =     57.840589     0.000000    -0.603541    57.237048
	  123 D(17,15,18,20)  =    -57.863745     0.000001    -0.321034   -58.184778
	  124 D(17,15,18,21)  =   -179.381477     0.000000    -0.512301  -179.893779
	  125 D(18,21,24,25)  =     64.676247     0.000002    -0.312507    64.363740
	  126 D(18,21,24,26)  =   -179.382108     0.000000    -0.512091  -179.894199
	  127 D(19,18,21,22)  =   -168.093759    -0.000002     0.661054  -167.432705
	  128 D(19,18,21,23)  =    -52.388631     0.000000     0.480068   -51.908563
	  129 D(19,18,21,24)  =     69.209215     0.000006     0.668042    69.877257
	  130 D(20,18,21,22)  =    -52.388637     0.000000     0.480117   -51.908520
	  131 D(20,18,21,23)  =     63.316490     0.000002     0.299132    63.615622
	  132 D(20,18,21,24)  =   -175.085664     0.000008     0.487105  -174.598559
	  133 D(22,21,24,25)  =    -58.101578     0.000002    -0.403811   -58.505389
	  134 D(22,21,24,26)  =     57.840066     0.000000    -0.603394    57.236672
	  135 D(23,21,24,25)  =   -173.805900     0.000002    -0.121307  -173.927208
	  136 D(23,21,24,26)  =    -57.864255     0.000001    -0.320891   -58.185146
	  137 R(9,24)         =      3.564741     0.007978     0.020192     3.584933
	  138 R(12,15)        =      3.564756     0.007977     0.020186     3.584942
	 ---------------------------------------------------------------------------

  ==> Convergence Check <==

  Measures of convergence in internal coordinates in au.
  Criteria marked as inactive (o), active & met (*), and active & unmet ( ).
  --------------------------------------------------------------------------------------------- ~
   Step     Total Energy     Delta E     MAX Force     RMS Force      MAX Disp      RMS Disp    ~
  --------------------------------------------------------------------------------------------- ~
    Convergence Criteria             o    2.00e-06 *    1.00e-06 *    6.00e-06 *    4.00e-06 *  ~
  --------------------------------------------------------------------------------------------- ~
      1    -314.98414587   -3.15e+02 o    3.93e-03      1.00e-03      3.82e-02      7.29e-03    ~
  ---------------------------------------------------------------------------------------------

	Writing optimization data to binary file.
	Structure for next step:
	Cartesian Geometry (in Angstrom)
	    C     0.1159327517   3.1606689236  -1.3098160354
	    H     0.9508020306   3.8396536560  -1.4815631740
	    H    -0.7819753470   3.7626292767  -1.1642559352
	    H    -0.0261163201   2.5694844582  -2.2157438692
	    C    -0.1159209787  -3.1606753893  -1.3098058660
	    H     0.0261233984  -2.5694926893  -2.2157354931
	    H    -0.9507838351  -3.8396684089  -1.4815513552
	    H     0.7819925227  -3.7626271924  -1.1642432668
	    C     0.3618135393   2.2548217619  -0.1089863153
	    H     0.5182449157   2.8613342345   0.7881450000
	    H     1.2841198621   1.6905812076  -0.2636195518
	    C    -0.3618107113  -2.2548270342  -0.1089793760
	    H    -1.2841208209  -1.6905938959  -0.2636158914
	    H    -0.5182392887  -2.8613377403   0.7881533091
	    C    -0.7975551550   1.2952206005   0.1341203974
	    H    -0.9252377547   0.6593268799  -0.7474544164
	    H    -1.7212683250   1.8748540390   0.2229445256
	    C    -0.6322287831   0.4314988984   1.3831609838
	    H    -1.5105747594  -0.2083363275   1.4958727761
	    H    -0.6151570488   1.0808005679   2.2633761275
	    C     0.6322155184  -0.4314924152   1.3831650577
	    H     1.5105602329   0.2083442083   1.4958805169
	    H     0.6151396155  -1.0807922304   2.2633816780
	    C     0.7975500664  -1.2952168519   0.1341272853
	    H     0.9252298284  -0.6593260945  -0.7474499390
	    H     1.7212670439  -1.8748438322   0.2229555843
			--------------------------
			 OPTKING Finished Execution 
			--------------------------

    Structure for next step:
    Molecular point group: c1
    Full point group: C1

    Geometry (in Angstrom), charge = 0, multiplicity = 1:

    C            0.115933093639     3.160669169219    -1.311060635683
    H            0.950802372520     3.839653901572    -1.482807774291
    H           -0.781975005042     3.762629522311    -1.165500535567
    H           -0.026115978122     2.569484703764    -2.216988469523
    C           -0.115920636803    -3.160675143682    -1.311050466275
    H            0.026123740330    -2.569492443728    -2.216980093422
    H           -0.950783493147    -3.839668163252    -1.482795955531
    H            0.781992864684    -3.762626946786    -1.165487867150
    C            0.361813881208     2.254822007468    -0.110230915615
    H            0.518245257693     2.861334480088     0.786900399728
    H            1.284120204007     1.690581453250    -0.264864152128
    C           -0.361810369308    -2.254826788562    -0.110223976291
    H           -1.284120478946    -1.690593650252    -0.264860491739
    H           -0.518238946777    -2.861337494652     0.786908708819
    C           -0.797554813033     1.295220846081     0.132875797117
    H           -0.925237412717     0.659327125557    -0.748699016744
    H           -1.721267983043     1.874854284625     0.221699925254
    C           -0.632228441151     0.431499144051     1.381916383531
    H           -1.510574417419    -0.208336081848     1.494628175790
    H           -0.615156706811     1.080800813460     2.262131527150
    C            0.632215860363    -0.431492169555     1.381920457336
    H            1.510560574821     0.208344453938     1.494635916541
    H            0.615139957461    -1.080791984834     2.262137077708
    C            0.797550408382    -1.295216606275     0.132882684985
    H            0.925230170329    -0.659325848842    -0.748694539330
    H            1.721267385886    -1.874843586558     0.221710983969

gradient() will perform analytic gradient computation.

*** tstart() called on wr34
*** at Tue Sep 20 16:51:47 2016


         ---------------------------------------------------------
                                   SCF
            by Justin Turney, Rob Parrish, and Andy Simmonett
                              RHF Reference
                       12 Threads,  30000 MiB Core
         ---------------------------------------------------------

  ==> Geometry <==

    Molecular point group: c1
    Full point group: C1

    Geometry (in Angstrom), charge = 0, multiplicity = 1:

       Center              X                  Y                   Z               Mass       
    ------------   -----------------  -----------------  -----------------  -----------------
           C          0.115933093639     3.160669169219    -1.311060635683    12.000000000000
           H          0.950802372520     3.839653901572    -1.482807774291     1.007825032070
           H         -0.781975005042     3.762629522311    -1.165500535567     1.007825032070
           H         -0.026115978122     2.569484703764    -2.216988469523     1.007825032070
           C         -0.115920636803    -3.160675143682    -1.311050466275    12.000000000000
           H          0.026123740330    -2.569492443728    -2.216980093422     1.007825032070
           H         -0.950783493147    -3.839668163252    -1.482795955531     1.007825032070
           H          0.781992864684    -3.762626946786    -1.165487867150     1.007825032070
           C          0.361813881208     2.254822007468    -0.110230915615    12.000000000000
           H          0.518245257693     2.861334480088     0.786900399728     1.007825032070
           H          1.284120204007     1.690581453250    -0.264864152128     1.007825032070
           C         -0.361810369308    -2.254826788562    -0.110223976291    12.000000000000
           H         -1.284120478946    -1.690593650252    -0.264860491739     1.007825032070
           H         -0.518238946777    -2.861337494652     0.786908708819     1.007825032070
           C         -0.797554813033     1.295220846081     0.132875797117    12.000000000000
           H         -0.925237412717     0.659327125557    -0.748699016744     1.007825032070
           H         -1.721267983043     1.874854284625     0.221699925254     1.007825032070
           C         -0.632228441151     0.431499144051     1.381916383531    12.000000000000
           H         -1.510574417419    -0.208336081848     1.494628175790     1.007825032070
           H         -0.615156706811     1.080800813460     2.262131527150     1.007825032070
           C          0.632215860363    -0.431492169555     1.381920457336    12.000000000000
           H          1.510560574821     0.208344453938     1.494635916541     1.007825032070
           H          0.615139957461    -1.080791984834     2.262137077708     1.007825032070
           C          0.797550408382    -1.295216606275     0.132882684985    12.000000000000
           H          0.925230170329    -0.659325848842    -0.748694539330     1.007825032070
           H          1.721267385886    -1.874843586558     0.221710983969     1.007825032070

  Running in c1 symmetry.

  Rotational constants: A =      0.09881  B =      0.03015  C =      0.02663 [cm^-1]
  Rotational constants: A =   2962.33908  B =    904.01136  C =    798.30333 [MHz]
  Nuclear repulsion =  399.728045247025705

  Charge       = 0
  Multiplicity = 1
  Electrons    = 66
  Nalpha       = 33
  Nbeta        = 33

  ==> Algorithm <==

  SCF Algorithm Type is DF.
  DIIS enabled.
  MOM disabled.
  Fractional occupation disabled.
  Guess Type is READ.
  Energy threshold   = 1.00e-10
  Density threshold  = 1.00e-10
  Integral threshold = 0.00e+00

  ==> Primary Basis <==

  Basis Set: AUG-CC-PVTZ
    Number of shells: 274
    Number of basis function: 782
    Number of Cartesian functions: 890
    Spherical Harmonics?: true
    Max angular momentum: 3

  ==> Pre-Iterations <==

   -------------------------------------------------------
    Irrep   Nso     Nmo     Nalpha   Nbeta   Ndocc  Nsocc
   -------------------------------------------------------
     A        782     782       0       0       0       0
   -------------------------------------------------------
    Total     782     782      33      33      33       0
   -------------------------------------------------------

  ==> Integral Setup <==

  ==> DFJK: Density-Fitted J/K Matrices <==

    J tasked:                  Yes
    K tasked:                  Yes
    wK tasked:                  No
    OpenMP threads:             12
    Integrals threads:          12
    Memory (MB):             21457
    Algorithm:                Core
    Integral Cache:           NONE
    Schwarz Cutoff:          1E-12
    Fitting Condition:       1E-12

   => Auxiliary Basis Set <=

  Basis Set: 
    Number of shells: 492
    Number of basis function: 1660
    Number of Cartesian functions: 2038
    Spherical Harmonics?: true
    Max angular momentum: 4

  Minimum eigenvalue in the overlap matrix is 1.7254084522E-06.
  Using Symmetric Orthogonalization.
  SCF Guess: Reading in previously saved MOs, projecting if necessary.

  Using orbitals from previous SCF, no projection.
  Recomputing DOCC and SOCC from number of alpha and beta electrons from previous calculation.
              A 
    DOCC [    33 ]

  ==> Iterations <==

                           Total Energy        Delta E     RMS |[F,P]|

   @DF-RHF iter   0:  -313.49536378070928   -3.13495e+02   6.40064e-05 
   @DF-RHF iter   1:  -313.54123445846466   -4.58707e-02   1.84112e-05 
   @DF-RHF iter   2:  -313.54133722126898   -1.02763e-04   9.91494e-06 DIIS
   @DF-RHF iter   3:  -313.54136719763261   -2.99764e-05   1.31251e-06 DIIS
   @DF-RHF iter   4:  -313.54136842198392   -1.22435e-06   3.30325e-07 DIIS
   @DF-RHF iter   5:  -313.54136847992146   -5.79375e-08   9.74861e-08 DIIS
   @DF-RHF iter   6:  -313.54136848507432   -5.15286e-09   1.92189e-08 DIIS
   @DF-RHF iter   7:  -313.54136848532374   -2.49429e-10   5.17453e-09 DIIS
   @DF-RHF iter   8:  -313.54136848533875   -1.50067e-11   1.30367e-09 DIIS
   @DF-RHF iter   9:  -313.54136848533989   -1.13687e-12   3.41149e-10 DIIS
   @DF-RHF iter  10:  -313.54136848533909    7.95808e-13   9.57635e-11 DIIS

  ==> Post-Iterations <==

    Orbital Energies (a.u.)
    -----------------------

    Doubly Occupied:                                                      

       1A    -11.212319     2A    -11.212319     3A    -11.210618  
       4A    -11.210267     5A    -11.209875     6A    -11.209623  
       7A    -11.207430     8A    -11.207430     9A     -1.096591  
      10A     -1.057915    11A     -1.008861    12A     -0.948394  
      13A     -0.882061    14A     -0.833544    15A     -0.793806  
      16A     -0.747654    17A     -0.655946    18A     -0.621366  
      19A     -0.612924    20A     -0.592180    21A     -0.574454  
      22A     -0.570293    23A     -0.544208    24A     -0.524522  
      25A     -0.515430    26A     -0.499299    27A     -0.494994  
      28A     -0.472171    29A     -0.468801    30A     -0.462719  
      31A     -0.443473    32A     -0.440061    33A     -0.434556  

    Virtual:                                                              

      34A      0.029452    35A      0.033122    36A      0.033478  
      37A      0.034386    38A      0.046713    39A      0.049218  
      40A      0.049311    41A      0.052855    42A      0.055258  
      43A      0.068304    44A      0.069204    45A      0.070866  
      46A      0.073200    47A      0.075475    48A      0.085429  
      49A      0.090744    50A      0.092997    51A      0.101078  
      52A      0.113163    53A      0.114474    54A      0.122988  
      55A      0.126123    56A      0.126684    57A      0.132825  
      58A      0.133076    59A      0.136003    60A      0.141076  
      61A      0.144027    62A      0.146842    63A      0.151020  
      64A      0.157016    65A      0.158347    66A      0.160189  
      67A      0.164632    68A      0.166582    69A      0.171249  
      70A      0.179585    71A      0.181049    72A      0.183321  
      73A      0.185949    74A      0.188475    75A      0.197156  
      76A      0.203686    77A      0.211282    78A      0.220067  
      79A      0.226676    80A      0.234285    81A      0.238089  
      82A      0.244126    83A      0.253596    84A      0.262011  
      85A      0.262145    86A      0.267214    87A      0.272636  
      88A      0.277521    89A      0.284537    90A      0.285233  
      91A      0.302689    92A      0.309892    93A      0.311321  
      94A      0.313031    95A      0.313214    96A      0.321851  
      97A      0.325698    98A      0.332288    99A      0.333061  
     100A      0.337765   101A      0.337892   102A      0.340502  
     103A      0.346799   104A      0.350424   105A      0.357712  
     106A      0.360483   107A      0.361384   108A      0.366235  
     109A      0.372623   110A      0.378766   111A      0.379326  
     112A      0.380974   113A      0.383809   114A      0.386849  
     115A      0.389265   116A      0.395194   117A      0.396710  
     118A      0.401194   119A      0.403850   120A      0.413050  
     121A      0.413718   122A      0.417742   123A      0.426193  
     124A      0.430965   125A      0.436122   126A      0.438010  
     127A      0.440830   128A      0.442116   129A      0.450263  
     130A      0.453550   131A      0.457463   132A      0.460467  
     133A      0.466455   134A      0.466742   135A      0.470827  
     136A      0.471928   137A      0.479237   138A      0.481336  
     139A      0.482248   140A      0.487013   141A      0.493768  
     142A      0.493861   143A      0.495748   144A      0.502922  
     145A      0.508532   146A      0.509576   147A      0.517726  
     148A      0.521122   149A      0.521200   150A      0.526719  
     151A      0.530559   152A      0.536036   153A      0.540922  
     154A      0.544551   155A      0.547947   156A      0.550056  
     157A      0.555074   158A      0.557932   159A      0.564709  
     160A      0.572170   161A      0.576077   162A      0.577590  
     163A      0.580264   164A      0.591182   165A      0.597458  
     166A      0.601589   167A      0.605571   168A      0.607445  
     169A      0.612581   170A      0.615565   171A      0.622349  
     172A      0.623983   173A      0.632444   174A      0.640359  
     175A      0.642190   176A      0.647055   177A      0.651183  
     178A      0.660566   179A      0.661263   180A      0.667870  
     181A      0.674954   182A      0.675573   183A      0.676025  
     184A      0.682605   185A      0.689394   186A      0.699725  
     187A      0.704556   188A      0.709641   189A      0.718010  
     190A      0.720317   191A      0.729571   192A      0.738548  
     193A      0.743472   194A      0.752088   195A      0.760212  
     196A      0.760624   197A      0.770847   198A      0.776544  
     199A      0.781623   200A      0.793985   201A      0.794162  
     202A      0.809019   203A      0.815371   204A      0.828104  
     205A      0.828782   206A      0.833296   207A      0.840369  
     208A      0.849889   209A      0.859481   210A      0.861037  
     211A      0.863380   212A      0.869087   213A      0.869667  
     214A      0.876471   215A      0.894769   216A      0.897336  
     217A      0.902034   218A      0.905058   219A      0.913700  
     220A      0.913954   221A      0.919054   222A      0.920041  
     223A      0.926662   224A      0.928627   225A      0.937439  
     226A      0.942743   227A      0.949687   228A      0.950394  
     229A      0.957261   230A      0.957925   231A      0.968296  
     232A      0.972452   233A      0.972576   234A      0.979307  
     235A      0.980407   236A      0.997096   237A      1.000215  
     238A      1.004148   239A      1.009236   240A      1.011681  
     241A      1.013781   242A      1.019024   243A      1.028297  
     244A      1.035824   245A      1.035862   246A      1.040346  
     247A      1.050646   248A      1.051691   249A      1.055700  
     250A      1.057504   251A      1.059521   252A      1.065313  
     253A      1.074131   254A      1.082321   255A      1.087367  
     256A      1.091576   257A      1.092955   258A      1.098591  
     259A      1.101197   260A      1.110816   261A      1.112134  
     262A      1.118644   263A      1.122640   264A      1.139758  
     265A      1.141674   266A      1.144472   267A      1.148819  
     268A      1.164671   269A      1.165776   270A      1.169138  
     271A      1.170535   272A      1.177343   273A      1.192746  
[...]
	 D(19,18,21,24)   =         1.198361	      68.661013
	 D(20,18,21,22)   =        -0.926001	     -53.055953
	 D(20,18,21,23)   =         1.091213	      62.521900
	 D(20,18,21,24)   =        -3.067611	    -175.761153
	 D(22,21,24,25)   =        -1.026307	     -58.803040
	 D(22,21,24,26)   =         0.995282	      57.025481
	 D(23,21,24,25)   =        -3.041957	    -174.291283
	 D(23,21,24,26)   =        -1.020368	     -58.462762
	 R(9,24)          =         6.825398	       3.611845
	 R(12,15)         =         6.825396	       3.611844

	Current energy   :      -314.9844169986

	Energy change for the previous step:
		Projected    :        -0.0000000003
		Actual       :         0.0000000059

	Performing BFGS update.
	Previous computed or guess Hessian on step 1.
	Denominators (dg)(dq) or (dq)(dq) are very small.
	 Skipping Hessian update for step 14.
	Denominators (dg)(dq) or (dq)(dq) are very small.
	 Skipping Hessian update for step 13.
	Denominators (dg)(dq) or (dq)(dq) are very small.
	 Skipping Hessian update for step 12.
	Denominators (dg)(dq) or (dq)(dq) are very small.
	 Skipping Hessian update for step 11.
	Denominators (dg)(dq) or (dq)(dq) are very small.
	 Skipping Hessian update for step 10.
	Denominators (dg)(dq) or (dq)(dq) are very small.
	 Skipping Hessian update for step 9.
	Denominators (dg)(dq) or (dq)(dq) are very small.
	 Skipping Hessian update for step 8.
	Denominators (dg)(dq) or (dq)(dq) are very small.
	 Skipping Hessian update for step 7.
	Denominators (dg)(dq) or (dq)(dq) are very small.
	 Skipping Hessian update for step 6.
	Steps to be used in Hessian update: 5 4
	Taking RFO optimization step.
	Going to follow RFO solution 1.
	Using RFO vector 1.
	Norm of target step-size    0.00003
	Projected energy change by RFO approximation:        -0.0000000000

	Back-transformation to cartesian coordinates...
	Successfully converged to displaced geometry.

	--- Internal Coordinate Step in ANG or DEG, aJ/ANG or AJ/DEG ---
	 ---------------------------------------------------------------------------
	   Coordinate                Previous        Force       Change         New 
	   ----------                --------       ------       ------       ------
	    1 R(1,2)          =      1.089735     0.000001     0.000000     1.089735
	    2 R(1,3)          =      1.090706     0.000002     0.000000     1.090706
	    3 R(1,4)          =      1.090938     0.000001     0.000000     1.090938
	    4 R(1,9)          =      1.523850    -0.000000    -0.000000     1.523850
	    5 R(5,6)          =      1.090938     0.000001     0.000000     1.090938
	    6 R(5,7)          =      1.089735     0.000001     0.000000     1.089735
	    7 R(5,8)          =      1.090706     0.000001     0.000000     1.090707
	    8 R(5,12)         =      1.523850    -0.000000    -0.000000     1.523850
	    9 R(9,10)         =      1.093913     0.000002     0.000000     1.093913
	   10 R(9,11)         =      1.092234     0.000001     0.000000     1.092234
	   11 R(9,15)         =      1.524186     0.000002     0.000000     1.524187
	   12 R(12,13)        =      1.092234     0.000001     0.000000     1.092234
	   13 R(12,14)        =      1.093913     0.000003     0.000000     1.093914
	   14 R(12,24)        =      1.524186     0.000002     0.000001     1.524187
	   15 R(15,16)        =      1.094417     0.000002     0.000000     1.094418
	   16 R(15,17)        =      1.094005     0.000002     0.000000     1.094006
	   17 R(15,18)        =      1.527397    -0.000001    -0.000000     1.527397
	   18 R(18,19)        =      1.092498     0.000003     0.000000     1.092499
	   19 R(18,20)        =      1.093846     0.000002     0.000000     1.093846
	   20 R(18,21)        =      1.530349    -0.000000     0.000000     1.530349
	   21 R(21,22)        =      1.092498     0.000003     0.000001     1.092499
	   22 R(21,23)        =      1.093845     0.000002     0.000000     1.093846
	   23 R(21,24)        =      1.527397     0.000001     0.000000     1.527397
	   24 R(24,25)        =      1.094417     0.000003     0.000000     1.094417
	   25 R(24,26)        =      1.094005     0.000001     0.000000     1.094005
	   26 B(1,9,10)       =    109.860402    -0.000000     0.000024   109.860427
	   27 B(1,9,11)       =    109.385565    -0.000000    -0.000068   109.385496
	   28 B(1,9,15)       =    112.032378     0.000000    -0.000001   112.032377
	   29 B(2,1,3)        =    107.967139     0.000000     0.000007   107.967146
	   30 B(2,1,4)        =    107.893366    -0.000000     0.000004   107.893370
	   31 B(2,1,9)        =    111.713997    -0.000000    -0.000005   111.713992
	   32 B(3,1,4)        =    107.674242     0.000000     0.000004   107.674246
	   33 B(3,1,9)        =    110.785675    -0.000000    -0.000026   110.785650
	   34 B(4,1,9)        =    110.652623     0.000000     0.000016   110.652639
	   35 B(5,12,13)      =    109.385553    -0.000000    -0.000044   109.385509
	   36 B(5,12,14)      =    109.860417    -0.000000     0.000010   109.860427
	   37 B(5,12,24)      =    112.032416    -0.000000    -0.000016   112.032400
	   38 B(6,5,7)        =    107.893370    -0.000000    -0.000004   107.893366
	   39 B(6,5,8)        =    107.674243     0.000000     0.000009   107.674251
	   40 B(6,5,12)       =    110.652633     0.000000     0.000010   110.652643
	   41 B(7,5,8)        =    107.967132     0.000000     0.000008   107.967140
	   42 B(7,5,12)       =    111.713980    -0.000000    -0.000010   111.713970
	   43 B(8,5,12)       =    110.785683    -0.000000    -0.000012   110.785672
	   44 B(9,15,16)      =    109.035215     0.000000     0.000063   109.035278
	   45 B(9,15,17)      =    108.762387    -0.000000    -0.000036   108.762351
	   46 B(9,15,18)      =    113.797961     0.000000    -0.000003   113.797958
	   47 B(10,9,11)      =    106.474982     0.000000     0.000005   106.474987
	   48 B(10,9,15)      =    109.100023     0.000000     0.000081   109.100104
	   49 B(11,9,15)      =    109.832179    -0.000000    -0.000041   109.832138
	   50 B(12,24,21)     =    113.797931    -0.000000    -0.000019   113.797912
	   51 B(12,24,25)     =    109.035242     0.000000     0.000071   109.035314
	   52 B(12,24,26)     =    108.762370    -0.000000    -0.000043   108.762327
	   53 B(13,12,14)     =    106.474972     0.000000     0.000027   106.474999
	   54 B(13,12,24)     =    109.832171    -0.000000    -0.000047   109.832124
	   55 B(14,12,24)     =    109.099998     0.000000     0.000071   109.100069
	   56 B(15,18,19)     =    109.149652     0.000000     0.000026   109.149678
	   57 B(15,18,20)     =    108.859575    -0.000000    -0.000035   108.859540
	   58 B(15,18,21)     =    114.168904    -0.000000    -0.000030   114.168874
	   59 B(16,15,17)     =    106.057943     0.000000     0.000029   106.057971
	   60 B(16,15,18)     =    110.000319    -0.000000    -0.000030   110.000289
	   61 B(17,15,18)     =    108.891639    -0.000000    -0.000020   108.891618
	   62 B(18,21,22)     =    109.497173    -0.000000    -0.000004   109.497169
	   63 B(18,21,23)     =    108.679032     0.000000    -0.000013   108.679018
	   64 B(18,21,24)     =    114.168853    -0.000000    -0.000007   114.168846
	   65 B(19,18,20)     =    106.179741     0.000000     0.000038   106.179779
	   66 B(19,18,21)     =    109.497154     0.000000     0.000008   109.497162
	   67 B(20,18,21)     =    108.679021     0.000000    -0.000002   108.679018
	   68 B(21,24,25)     =    110.000292    -0.000000    -0.000012   110.000280
	   69 B(21,24,26)     =    108.891694     0.000000    -0.000019   108.891675
	   70 B(22,21,23)     =    106.179743     0.000000     0.000033   106.179777
	   71 B(22,21,24)     =    109.149643     0.000000     0.000029   109.149672
	   72 B(23,21,24)     =    108.859606    -0.000000    -0.000036   108.859570
	   73 B(25,24,26)     =    106.057936     0.000000     0.000025   106.057961
	   74 D(1,9,15,16)    =     60.417207    -0.000000    -0.000257    60.416950
	   75 D(1,9,15,17)    =    -54.811435    -0.000000    -0.000305   -54.811740
	   76 D(1,9,15,18)    =   -176.381171    -0.000000    -0.000251  -176.381422
	   77 D(2,1,9,10)     =     58.819651    -0.000000     0.000131    58.819782
	   78 D(2,1,9,11)     =    -57.715971    -0.000000     0.000151   -57.715820
	   79 D(2,1,9,15)     =   -179.747629     0.000000     0.000251  -179.747379
	   80 D(3,1,9,10)     =    -61.598476    -0.000000     0.000143   -61.598333
	   81 D(3,1,9,11)     =   -178.134098     0.000000     0.000163  -178.133935
	   82 D(3,1,9,15)     =     59.834244     0.000000     0.000262    59.834506
	   83 D(4,1,9,10)     =    179.053372    -0.000000     0.000144   179.053516
	   84 D(4,1,9,11)     =     62.517750     0.000000     0.000164    62.517914
	   85 D(4,1,9,15)     =    -59.513908     0.000000     0.000263   -59.513645
	   86 D(5,12,24,21)   =   -176.381378    -0.000000    -0.000182  -176.381560
	   87 D(5,12,24,25)   =     60.417036    -0.000000    -0.000206    60.416830
	   88 D(5,12,24,26)   =    -54.811604    -0.000000    -0.000251   -54.811854
	   89 D(6,5,12,13)    =     62.517711    -0.000000     0.000085    62.517796
	   90 D(6,5,12,14)    =    179.053322    -0.000000     0.000098   179.053421
	   91 D(6,5,12,24)    =    -59.513955     0.000000     0.000185   -59.513769
	   92 D(7,5,12,13)    =    -57.716012    -0.000000     0.000090   -57.715922
	   93 D(7,5,12,14)    =     58.819599    -0.000000     0.000103    58.819702
	   94 D(7,5,12,24)    =   -179.747678     0.000000     0.000190  -179.747487
	   95 D(8,5,12,13)    =   -178.134125    -0.000000     0.000095  -178.134029
	   96 D(8,5,12,14)    =    -61.598513    -0.000000     0.000108   -61.598405
	   97 D(8,5,12,24)    =     59.834210     0.000000     0.000195    59.834406
	   98 D(9,15,18,19)   =    178.523378    -0.000000    -0.000265   178.523113
	   99 D(9,15,18,20)   =     63.035150    -0.000000    -0.000305    63.034845
	  100 D(9,15,18,21)   =    -58.582309    -0.000000    -0.000256   -58.582565
	  101 D(10,9,15,16)   =   -177.713735     0.000000    -0.000171  -177.713906
	  102 D(10,9,15,17)   =     67.057623    -0.000000    -0.000219    67.057404
	  103 D(10,9,15,18)   =    -54.512113    -0.000000    -0.000165   -54.512278
	  104 D(11,9,15,16)   =    -61.358868     0.000000    -0.000141   -61.359009
	  105 D(11,9,15,17)   =   -176.587510     0.000000    -0.000189  -176.587699
	  106 D(11,9,15,18)   =     61.842754     0.000000    -0.000135    61.842619
	  107 D(12,24,21,18)  =    -58.582308    -0.000000    -0.000183   -58.582491
	  108 D(12,24,21,22)  =    178.523396    -0.000000    -0.000195   178.523202
	  109 D(12,24,21,23)  =     63.035154    -0.000000    -0.000231    63.034923
	  110 D(13,12,24,21)  =     61.842542     0.000000    -0.000083    61.842459
	  111 D(13,12,24,25)  =    -61.359044     0.000000    -0.000107   -61.359151
	  112 D(13,12,24,26)  =   -176.587683     0.000000    -0.000152  -176.587835
	  113 D(14,12,24,21)  =    -54.512294    -0.000000    -0.000130   -54.512425
	  114 D(14,12,24,25)  =   -177.713880     0.000000    -0.000155  -177.714035
	  115 D(14,12,24,26)  =     67.057481    -0.000000    -0.000199    67.057281
	  116 D(15,18,21,22)  =     68.660980    -0.000000     0.000221    68.661201
	  117 D(15,18,21,23)  =   -175.761167     0.000000     0.000251  -175.760916
	  118 D(15,18,21,24)  =    -54.044219    -0.000000     0.000191   -54.044029
	  119 D(16,15,18,19)  =    -58.803052     0.000000    -0.000208   -58.803260
	  120 D(16,15,18,20)  =   -174.291280    -0.000000    -0.000248  -174.291528
	  121 D(16,15,18,21)  =     64.091261     0.000000    -0.000199    64.091062
	  122 D(17,15,18,19)  =     57.025460     0.000000    -0.000202    57.025258
	  123 D(17,15,18,20)  =    -58.462767    -0.000000    -0.000242   -58.463010
	  124 D(17,15,18,21)  =    179.919773    -0.000000    -0.000193   179.919580
	  125 D(18,21,24,25)  =     64.091255     0.000000    -0.000113    64.091142
	  126 D(18,21,24,26)  =    179.919776     0.000000    -0.000101   179.919676
	  127 D(19,18,21,22)  =   -168.633788    -0.000000     0.000239  -168.633548
	  128 D(19,18,21,23)  =    -53.055934     0.000000     0.000270   -53.055665
	  129 D(19,18,21,24)  =     68.661013    -0.000000     0.000209    68.661222
	  130 D(20,18,21,22)  =    -53.055953     0.000000     0.000288   -53.055666
	  131 D(20,18,21,23)  =     62.521900     0.000000     0.000318    62.522218
	  132 D(20,18,21,24)  =   -175.761153     0.000000     0.000258  -175.760895
	  133 D(22,21,24,25)  =    -58.803040     0.000000    -0.000125   -58.803165
	  134 D(22,21,24,26)  =     57.025481     0.000000    -0.000112    57.025368
	  135 D(23,21,24,25)  =   -174.291283    -0.000000    -0.000161  -174.291444
	  136 D(23,21,24,26)  =    -58.462762    -0.000000    -0.000149   -58.462911
	  137 R(9,24)         =      3.611845     0.000000     0.000001     3.611846
	  138 R(12,15)        =      3.611844    -0.000000    -0.000000     3.611844
	 ---------------------------------------------------------------------------

  ==> Convergence Check <==

  Measures of convergence in internal coordinates in au.
  Criteria marked as inactive (o), active & met (*), and active & unmet ( ).
  ---------------------------------------------------------------------------------------------
   Step     Total Energy     Delta E     MAX Force     RMS Force      MAX Disp      RMS Disp   
  ---------------------------------------------------------------------------------------------
    Convergence Criteria             o    2.00e-06 *    1.00e-06 *    6.00e-06 *    4.00e-06 *
  ---------------------------------------------------------------------------------------------
     15    -314.98441700    5.93e-09 o    3.63e-07 *    9.86e-08 *    5.55e-06 *    2.37e-06 *  ~
  ---------------------------------------------------------------------------------------------


  **** Optimization is complete! (in 15 steps) ****

  ==> Optimization Summary <==

  Measures of convergence in internal coordinates in au.
  --------------------------------------------------------------------------------------------------------------- ~
   Step         Total Energy             Delta E       MAX Force       RMS Force        MAX Disp        RMS Disp  ~
  --------------------------------------------------------------------------------------------------------------- ~
      1    -314.984145867364   -314.984145867364      0.00392550      0.00100289      0.03815712      0.00728753  ~
      2    -314.984394095760     -0.000248228395      0.00034869      0.00011812      0.03034044      0.00787382  ~
      3    -314.984406566483     -0.000012470723      0.00036791      0.00011039      0.00986229      0.00347723  ~
      4    -314.984415742529     -0.000009176046      0.00009093      0.00003372      0.00990573      0.00201237  ~
      5    -314.984416506910     -0.000000764381      0.00006814      0.00001979      0.00276358      0.00092066  ~
      6    -314.984416979218     -0.000000472308      0.00003019      0.00000701      0.00023907      0.00008983  ~
      7    -314.984416999036     -0.000000019818      0.00000535      0.00000133      0.00003369      0.00001299  ~
      8    -314.984416999093     -0.000000000057      0.00000158      0.00000039      0.00002397      0.00000895  ~
      9    -314.984416999031      0.000000000061      0.00000108      0.00000024      0.00002178      0.00000505  ~
     10    -314.984416996884      0.000000002147      0.00000146      0.00000035      0.00002638      0.00000977  ~
     11    -314.984417000046     -0.000000003161      0.00000067      0.00000016      0.00001461      0.00000494  ~
     12    -314.984417002324     -0.000000002279      0.00000168      0.00000038      0.00002656      0.00000968  ~
     13    -314.984416995017      0.000000007307      0.00000137      0.00000028      0.00002479      0.00000831  ~
     14    -314.984417004570     -0.000000009553      0.00000159      0.00000034      0.00002099      0.00000798  ~
     15    -314.984416998638      0.000000005933      0.00000036      0.00000010      0.00000555      0.00000237  ~
  --------------------------------------------------------------------------------------------------------------- ~

	Writing optimization data to binary file.
	Final energy is   -314.9844169986375
	Final (previous) structure:
	Cartesian Geometry (in Angstrom)
	    C     0.1281091990   3.1857204089  -1.2964083175
	    H     0.9611811524   3.8701690274  -1.4546584567
	    H    -0.7743043892   3.7814397897  -1.1535522297
	    H    -0.0023539678   2.6001761747  -2.2075956642
	    C    -0.1280793670  -3.1857142419  -1.2964225731
	    H     0.0024040947  -2.6001654065  -2.2076041883
	    H    -0.9611480297  -3.8701621162  -1.4546945752
	    H     0.7743311490  -3.7814346710  -1.1535494568
	    C     0.3681618073   2.2724466560  -0.1004042756
	    H     0.5138392340   2.8728515038   0.8023345088
	    H     1.2932017086   1.7118824305  -0.2522041039
	    C    -0.3681586782  -2.2724466947  -0.1004191809
	    H    -1.2931951706  -1.7118811656  -0.2522372893
	    H    -0.5138571210  -2.8728561357   0.8023134428
	    C    -0.7902722528   1.3076278344   0.1238686174
	    H    -0.9088361421   0.6795885738  -0.7645334719
	    H    -1.7159534628   1.8838626782   0.2128351769
	    C    -0.6315757922   0.4319985138   1.3652511493
	    H    -1.5111119812  -0.2079788811   1.4672214900
	    H    -0.6171404710   1.0736192109   2.2510348076
	    C     0.6315424985  -0.4320038292   1.3652667413
	    H     1.5110760394   0.2079728975   1.4672614356
	    H     0.6170840182  -1.0736266235   2.2510482150
	    C     0.7902706253  -1.3076290987   0.1238860315
	    H     0.9088575684  -0.6795868151  -0.7645106531
	    H     1.7159491095  -1.8838650979   0.2128738232
	Saving final (previous) structure.
			--------------------------
			 OPTKING Finished Execution 
			--------------------------

    Final optimized geometry and variables:
    Molecular point group: c1
    Full point group: C1

    Geometry (in Angstrom), charge = 0, multiplicity = 1:

    C            0.128109198974     3.185720408938    -1.296408317536
    H            0.961181152438     3.870169027442    -1.454658456727
    H           -0.774304389155     3.781439789704    -1.153552229652
    H           -0.002353967766     2.600176174661    -2.207595664184
    C           -0.128079367031    -3.185714241911    -1.296422573079
    H            0.002404094680    -2.600165406471    -2.207604188267
    H           -0.961148029653    -3.870162116160    -1.454694575199
    H            0.774331149045    -3.781434670988    -1.153549456765
    C            0.368161807299     2.272446655965    -0.100404275556
    H            0.513839233993     2.872851503793     0.802334508847
    H            1.293201708602     1.711882430522    -0.252204103937
    C           -0.368158678171    -2.272446694737    -0.100419180890
    H           -1.293195170632    -1.711881165570    -0.252237289285
    H           -0.513857120966    -2.872856135674     0.802313442751
    C           -0.790272252835     1.307627834448     0.123868617393
    H           -0.908836142133     0.679588573822    -0.764533471936
    H           -1.715953462771     1.883862678163     0.212835176916
    C           -0.631575792196     0.431998513820     1.365251149272
    H           -1.511111981156    -0.207978881137     1.467221490009
    H           -0.617140470985     1.073619210851     2.251034807591
    C            0.631542498542    -0.432003829157     1.365266741331
    H            1.511076039404     0.207972897509     1.467261435602
    H            0.617084018152    -1.073626623451     2.251048214989
    C            0.790270625277    -1.307629098707     0.123886031491
    H            0.908857568425    -0.679586815125    -0.764510653092
    H            1.715949109542    -1.883865097859     0.212873823223

	Cleaning optimization helper files.

*** Psi4 exiting successfully. Buy a developer a beer!
