    -----------------------------------------------------------------------
          Psi4: An Open-Source Ab Initio Electronic Structure Package
                              Psi4 1.0.0 Driver

                          Git: Rev {master} 6a9a71b dirty

    J. M. Turney, A. C. Simmonett, R. M. Parrish, E. G. Hohenstein,
    F. A. Evangelista, J. T. Fermann, B. J. Mintz, L. A. Burns, J. J. Wilke,
    M. L. Abrams, N. J. Russ, M. L. Leininger, C. L. Janssen, E. T. Seidl,
    W. D. Allen, H. F. Schaefer, R. A. King, E. F. Valeev, C. D. Sherrill,
    and T. D. Crawford, WIREs Comput. Mol. Sci. 2, 556-565 (2012)
    (doi: 10.1002/wcms.93)

                         Additional Contributions by
    A. E. DePrince, U. Bozkaya, A. Yu. Sokolov, D. G. A. Smith, R. Di Remigio,
    R. M. Richard, J. F. Gonthier, H. R. McAlexander, M. Saitow, and
    B. P. Pritchard
    -----------------------------------------------------------------------


    Psi4 started on: Tue Sep 20 22:40:03 2016

    Process ID:   4209
    PSI4DATADIR: /usr/local/hpc5/psi4conda/share/psi4
    Memory level set to 256.000 MB

  ==> Input File <==

--------------------------------------------------------------------------
memory 60 Gb

molecule molecule_48_psi {
0 1
C           -2.983600901020    -0.669762623983     0.657881276988
H           -3.773014209867    -0.389190649280    -0.041686494978
H           -2.793565240161     0.186179624704     1.305119184769
H           -3.361719468488    -1.478032288424     1.283377341799
C            3.270591445260    -0.952003759386    -0.151442329836
H            3.427033609617    -0.675295187438    -1.194976290629
H            3.484583417445    -2.015816136217    -0.051243853735
H            3.998168159865    -0.404259976559     0.449066705475
C           -1.724381637407    -1.096365914878    -0.089138384135
H           -1.923320749868    -2.023184288003    -0.632282628783
H           -0.936831636999    -1.328092499820     0.630740845625
C            1.849170377013    -0.620249728615     0.286573655314
H            1.141210841482    -1.198891950147    -0.307421920733
H            1.703452592687    -0.925622033066     1.326599812223
C           -1.232163414999    -0.044950195251    -1.082822664364
H           -2.003740652641     0.100194313834    -1.845243220568
H           -0.353273915367    -0.422550665875    -1.611118094436
C           -0.911173940745     1.312659882772    -0.458473195938
H           -1.828701084903     1.745773944012    -0.052458399450
H           -0.582563287863     1.991639617190    -1.250819331416
C            0.156963502007     1.303987394648     0.636483242370
H            0.218021573660     2.317568962224     1.039401486775
H           -0.158894761887     0.668688480296     1.469586827423
C            1.552514100984     0.872347834254     0.167433524604
H            1.698491855515     1.188744848499    -0.871308980407
H            2.307571318309     1.404035959841     0.753603817719
}

set globals {
  reference rhf
  g_convergence gau_verytight
  basis aug-cc-pvtz
  freeze_core true
  scf_type df
  mp_type df
}
optimize('mp2')
--------------------------------------------------------------------------
/usr/local/hpc5/psi4conda/lib/python2.7/site-packages/v2rdm_casscf/v2rdm_casscf.so loaded.

  Memory set to  60.000 GiB by Python script.
gradient() will perform analytic gradient computation.

*** tstart() called on wr23
*** at Tue Sep 20 22:40:03 2016


         ---------------------------------------------------------
                                   SCF
            by Justin Turney, Rob Parrish, and Andy Simmonett
                              RHF Reference
                       12 Threads,  60000 MiB Core
         ---------------------------------------------------------

  ==> Geometry <==

    Molecular point group: c1
    Full point group: C1

    Geometry (in Angstrom), charge = 0, multiplicity = 1:

       Center              X                  Y                   Z               Mass       
    ------------   -----------------  -----------------  -----------------  -----------------
           C         -2.983600901020    -0.669762623983     0.657881276988    12.000000000000
           H         -3.773014209867    -0.389190649280    -0.041686494978     1.007825032070
           H         -2.793565240161     0.186179624704     1.305119184769     1.007825032070
           H         -3.361719468488    -1.478032288424     1.283377341799     1.007825032070
           C          3.270591445260    -0.952003759386    -0.151442329836    12.000000000000
           H          3.427033609617    -0.675295187438    -1.194976290629     1.007825032070
           H          3.484583417445    -2.015816136217    -0.051243853735     1.007825032070
           H          3.998168159865    -0.404259976559     0.449066705475     1.007825032070
           C         -1.724381637407    -1.096365914878    -0.089138384135    12.000000000000
           H         -1.923320749868    -2.023184288003    -0.632282628783     1.007825032070
           H         -0.936831636999    -1.328092499820     0.630740845625     1.007825032070
           C          1.849170377013    -0.620249728615     0.286573655314    12.000000000000
           H          1.141210841482    -1.198891950147    -0.307421920733     1.007825032070
           H          1.703452592687    -0.925622033066     1.326599812223     1.007825032070
           C         -1.232163414999    -0.044950195251    -1.082822664364    12.000000000000
           H         -2.003740652641     0.100194313834    -1.845243220568     1.007825032070
           H         -0.353273915367    -0.422550665875    -1.611118094436     1.007825032070
           C         -0.911173940745     1.312659882772    -0.458473195938    12.000000000000
           H         -1.828701084903     1.745773944012    -0.052458399450     1.007825032070
           H         -0.582563287863     1.991639617190    -1.250819331416     1.007825032070
           C          0.156963502007     1.303987394648     0.636483242370    12.000000000000
           H          0.218021573660     2.317568962224     1.039401486775     1.007825032070
           H         -0.158894761887     0.668688480296     1.469586827423     1.007825032070
           C          1.552514100984     0.872347834254     0.167433524604    12.000000000000
           H          1.698491855515     1.188744848499    -0.871308980407     1.007825032070
           H          2.307571318309     1.404035959841     0.753603817719     1.007825032070

  Running in c1 symmetry.

  Rotational constants: A =      0.10177  B =      0.03264  C =      0.02879 [cm^-1]
  Rotational constants: A =   3050.85360  B =    978.59798  C =    863.05054 [MHz]
  Nuclear repulsion =  404.308553480080036

  Charge       = 0
  Multiplicity = 1
  Electrons    = 66
  Nalpha       = 33
  Nbeta        = 33

  ==> Algorithm <==

  SCF Algorithm Type is DF.
  DIIS enabled.
  MOM disabled.
  Fractional occupation disabled.
  Guess Type is SAD.
  Energy threshold   = 1.00e-10
  Density threshold  = 1.00e-10
  Integral threshold = 0.00e+00

  ==> Primary Basis <==

  Basis Set: AUG-CC-PVTZ
    Number of shells: 274
    Number of basis function: 782
    Number of Cartesian functions: 890
    Spherical Harmonics?: true
    Max angular momentum: 3

  ==> Pre-Iterations <==

   -------------------------------------------------------
    Irrep   Nso     Nmo     Nalpha   Nbeta   Ndocc  Nsocc
   -------------------------------------------------------
     A        782     782       0       0       0       0
   -------------------------------------------------------
    Total     782     782      33      33      33       0
   -------------------------------------------------------

  ==> Integral Setup <==

  ==> DFJK: Density-Fitted J/K Matrices <==

    J tasked:                  Yes
    K tasked:                  Yes
    wK tasked:                  No
    OpenMP threads:             12
    Integrals threads:          12
    Memory (MB):             42915
    Algorithm:                Core
    Integral Cache:           NONE
    Schwarz Cutoff:          1E-12
    Fitting Condition:       1E-12

   => Auxiliary Basis Set <=

  Basis Set: 
    Number of shells: 492
    Number of basis function: 1660
    Number of Cartesian functions: 2038
    Spherical Harmonics?: true
    Max angular momentum: 4

  Minimum eigenvalue in the overlap matrix is 1.5152569886E-06.
  Using Symmetric Orthogonalization.
  SCF Guess: Superposition of Atomic Densities via on-the-fly atomic UHF.

  ==> Iterations <==

                           Total Energy        Delta E     RMS |[F,P]|

   @DF-RHF iter   0:  -316.89778649174559   -3.16898e+02   6.98142e-03 
   @DF-RHF iter   1:  -313.28288211550614    3.61490e+00   7.24053e-04 
   @DF-RHF iter   2:  -313.50373375044705   -2.20852e-01   2.60867e-04 DIIS
   @DF-RHF iter   3:  -313.53110275118308   -2.73690e-02   1.03825e-04 DIIS
   @DF-RHF iter   4:  -313.53637155522733   -5.26880e-03   1.65343e-05 DIIS
   @DF-RHF iter   5:  -313.53654934260248   -1.77787e-04   4.40958e-06 DIIS
   @DF-RHF iter   6:  -313.53656050932727   -1.11667e-05   1.33634e-06 DIIS
   @DF-RHF iter   7:  -313.53656149655683   -9.87230e-07   2.69323e-07 DIIS
   @DF-RHF iter   8:  -313.53656154680141   -5.02446e-08   7.71191e-08 DIIS
   @DF-RHF iter   9:  -313.53656155055717   -3.75576e-09   2.44486e-08 DIIS
   @DF-RHF iter  10:  -313.53656155091369   -3.56522e-10   6.58139e-09 DIIS
   @DF-RHF iter  11:  -313.53656155094666   -3.29692e-11   1.53046e-09 DIIS
   @DF-RHF iter  12:  -313.53656155094950   -2.84217e-12   4.44699e-10 DIIS
   @DF-RHF iter  13:  -313.53656155094768    1.81899e-12   1.25173e-10 DIIS
   @DF-RHF iter  14:  -313.53656155094825   -5.68434e-13   3.10748e-11 DIIS

  ==> Post-Iterations <==

    Orbital Energies (a.u.)
    -----------------------

    Doubly Occupied:                                                      

       1A    -11.211834     2A    -11.211799     3A    -11.210999  
       4A    -11.210561     5A    -11.210296     6A    -11.209732  
       7A    -11.206975     8A    -11.206809     9A     -1.094751  
      10A     -1.057394    11A     -1.008178    12A     -0.946849  
      13A     -0.889981    14A     -0.829417    15A     -0.793037  
      16A     -0.746036    17A     -0.650422    18A     -0.635578  
      19A     -0.611477    20A     -0.581565    21A     -0.579582  
      22A     -0.563810    23A     -0.539107    24A     -0.531625  
      25A     -0.524030    26A     -0.498944    27A     -0.492730  
      28A     -0.472533    29A     -0.467486    30A     -0.460968  
      31A     -0.442366    32A     -0.438112    33A     -0.432975  

    Virtual:                                                              

      34A      0.029353    35A      0.032944    36A      0.034176  
      37A      0.034789    38A      0.047389    39A      0.047852  
      40A      0.050386    41A      0.053439    42A      0.055222  
      43A      0.066929    44A      0.069953    45A      0.072927  
      46A      0.074883    47A      0.076758    48A      0.078882  
      49A      0.091298    50A      0.098194    51A      0.103749  
      52A      0.113978    53A      0.115307    54A      0.120965  
      55A      0.122762    56A      0.129952    57A      0.130481  
      58A      0.135535    59A      0.137463    60A      0.141159  
      61A      0.141918    62A      0.145915    63A      0.151039  
      64A      0.155937    65A      0.158434    66A      0.162752  
      67A      0.166063    68A      0.166907    69A      0.170927  
      70A      0.176987    71A      0.180940    72A      0.183496  
      73A      0.188269    74A      0.190427    75A      0.193454  
      76A      0.197691    77A      0.208213    78A      0.215521  
      79A      0.220407    80A      0.238882    81A      0.244119  
      82A      0.250392    83A      0.254393    84A      0.260604  
      85A      0.265850    86A      0.273752    87A      0.275864  
      88A      0.282852    89A      0.286486    90A      0.293087  
      91A      0.301190    92A      0.305779    93A      0.307881  
      94A      0.316383    95A      0.318327    96A      0.327361  
      97A      0.328768    98A      0.332891    99A      0.335703  
     100A      0.342694   101A      0.343459   102A      0.345983  
     103A      0.349409   104A      0.356141   105A      0.357036  
     106A      0.360672   107A      0.362717   108A      0.367295  
     109A      0.370191   110A      0.373114   111A      0.374417  
     112A      0.376415   113A      0.384448   114A      0.385992  
     115A      0.396600   116A      0.397149   117A      0.400650  
     118A      0.402134   119A      0.409704   120A      0.416314  
     121A      0.417983   122A      0.424108   123A      0.429236  
     124A      0.431297   125A      0.434296   126A      0.437698  
     127A      0.442802   128A      0.446617   129A      0.451437  
     130A      0.452794   131A      0.455221   132A      0.461366  
     133A      0.467878   134A      0.471229   135A      0.475562  
     136A      0.478420   137A      0.482012   138A      0.488222  
     139A      0.489926   140A      0.493723   141A      0.494669  
     142A      0.499347   143A      0.501522   144A      0.504341  
     145A      0.513777   146A      0.516436   147A      0.521259  
     148A      0.523216   149A      0.529072   150A      0.529871  
     151A      0.535380   152A      0.539529   153A      0.546402  
     154A      0.548371   155A      0.555984   156A      0.561260  
     157A      0.562524   158A      0.567343   159A      0.573487  
     160A      0.574573   161A      0.580136   162A      0.585896  
     163A      0.591403   164A      0.594850   165A      0.603935  
     166A      0.608704   167A      0.611736   168A      0.613335  
     169A      0.615644   170A      0.620914   171A      0.627926  
     172A      0.630068   173A      0.632658   174A      0.638292  
     175A      0.640309   176A      0.653776   177A      0.658314  
     178A      0.665669   179A      0.671406   180A      0.673679  
     181A      0.677419   182A      0.683497   183A      0.688824  
     184A      0.692356   185A      0.695322   186A      0.699718  
     187A      0.709816   188A      0.715587   189A      0.717939  
     190A      0.727025   191A      0.733595   192A      0.735290  
     193A      0.739098   194A      0.745217   195A      0.760054  
     196A      0.765418   197A      0.767975   198A      0.777429  
     199A      0.786223   200A      0.789348   201A      0.790631  
     202A      0.805661   203A      0.816930   204A      0.819697  
     205A      0.827853   206A      0.845306   207A      0.847845  
     208A      0.855669   209A      0.857839   210A      0.865783  
     211A      0.871970   212A      0.872544   213A      0.880664  
     214A      0.887384   215A      0.896190   216A      0.898269  
     217A      0.904697   218A      0.910585   219A      0.914954  
     220A      0.921712   221A      0.924700   222A      0.930891  
     223A      0.931458   224A      0.936536   225A      0.942922  
     226A      0.949090   227A      0.952457   228A      0.955155  
     229A      0.959857   230A      0.965560   231A      0.968480  
     232A      0.973717   233A      0.975535   234A      0.980808  
     235A      0.983441   236A      0.993338   237A      0.994149  
     238A      1.006659   239A      1.011507   240A      1.020928  
     241A      1.026106   242A      1.026146   243A      1.035691  
     244A      1.038616   245A      1.039889   246A      1.048075  
     247A      1.049957   248A      1.055307   249A      1.063434  
     250A      1.066425   251A      1.071926   252A      1.078914  
     253A      1.081395   254A      1.089371   255A      1.098216  
     256A      1.104351   257A      1.109364   258A      1.112257  
     259A      1.120789   260A      1.127636   261A      1.131521  
     262A      1.136444   263A      1.137925   264A      1.147103  
     265A      1.152580   266A      1.155406   267A      1.161549  
     268A      1.169196   269A      1.171790   270A      1.179799  
     271A      1.186526   272A      1.188832   273A      1.196854  
     274A      1.197550   275A      1.203556   276A      1.206043  
     277A      1.213491   278A      1.222949   279A      1.224299  
     280A      1.230775   281A      1.236295   282A      1.242576  
     283A      1.243630   284A      1.251689   285A      1.259234  
     286A      1.271254   287A      1.273306   288A      1.281634  
     289A      1.291347   290A      1.296078   291A      1.299063  
     292A      1.303174   293A      1.307806   294A      1.311293  
     295A      1.315407   296A      1.325674   297A      1.331088  
     298A      1.336396   299A      1.340547   300A      1.347062  
     301A      1.350860   302A      1.358711   303A      1.360473  
     304A      1.368722   305A      1.381470   306A      1.386844  
     307A      1.393499   308A      1.395898   309A      1.398439  
     310A      1.415353   311A      1.418256   312A      1.422928  
     313A      1.429129   314A      1.430411   315A      1.447131  
     316A      1.454562   317A      1.459824   318A      1.471178  
     319A      1.485462   320A      1.486833   321A      1.497926  
     322A      1.501430   323A      1.512878   324A      1.520778  
     325A      1.522980   326A      1.526251   327A      1.532203  
     328A      1.535947   329A      1.541678   330A      1.561857  
     331A      1.563776   332A      1.573478   333A      1.578284  
     334A      1.591497   335A      1.598366   336A      1.602520  
     337A      1.611948   338A      1.614852   339A      1.627127  
     340A      1.630705   341A      1.638320   342A      1.643118  
     343A      1.648638   344A      1.658445   345A      1.663431  
     346A      1.671627   347A      1.682134   348A      1.687862  
     349A      1.691691   350A      1.695733   351A      1.700393  
     352A      1.712840   353A      1.716937   354A      1.722913  
     355A      1.726185   356A      1.734104   357A      1.738522  
     358A      1.744110   359A      1.748566   360A      1.756901  
     361A      1.760200   362A      1.765787   363A      1.777098  
     364A      1.784816   365A      1.791971   366A      1.795116  
     367A      1.803425   368A      1.810784   369A      1.815402  
     370A      1.818571   371A      1.833166   372A      1.836745  
     373A      1.842117   374A      1.847206   375A      1.853075  
     376A      1.856822   377A      1.858601   378A      1.862212  
     379A      1.868673   380A      1.874000   381A      1.887207  
     382A      1.888096   383A      1.894523   384A      1.905034  
     385A      1.909399   386A      1.917616   387A      1.921148  
     388A      1.929125   389A      1.940116   390A      1.947124  
     391A      1.952687   392A      1.959238   393A      1.966114  
     394A      1.971226   395A      1.987574   396A      1.990377  
     397A      1.998879   398A      2.002033   399A      2.009111  
     400A      2.012546   401A      2.020815   402A      2.028101  
     403A      2.029473   404A      2.043287   405A      2.054694  
     406A      2.058250   407A      2.067373   408A      2.074300  
     409A      2.081938   410A      2.086067   411A      2.091757  
     412A      2.093446   413A      2.100970   414A      2.108010  
     415A      2.112269   416A      2.117853   417A      2.124494  
     418A      2.132605   419A      2.144046   420A      2.157806  
     421A      2.162146   422A      2.177750   423A      2.183538  
     424A      2.190428   425A      2.196861   426A      2.218353  
     427A      2.226290   428A      2.229141   429A      2.240275  
     430A      2.250539   431A      2.260883   432A      2.262797  
     433A      2.276295   434A      2.283424   435A      2.290900  
     436A      2.299007   437A      2.304980   438A      2.309071  
     439A      2.323288   440A      2.328958   441A      2.330004  
     442A      2.347648   443A      2.356420   444A      2.372074  
     445A      2.380676   446A      2.385738   447A      2.391206  
     448A      2.393261   449A      2.398853   450A      2.419328  
     451A      2.426138   452A      2.435083   453A      2.440595  
     454A      2.458014   455A      2.462226   456A      2.474160  
     457A      2.475937   458A      2.491757   459A      2.499533  
     460A      2.517196   461A      2.529063   462A      2.543841  
     463A      2.547236   464A      2.559887   465A      2.570180  
     466A      2.594367   467A      2.597827   468A      2.609556  
     469A      2.613577   470A      2.628601   471A      2.643516  
     472A      2.668991   473A      2.672696   474A      2.683604  
     475A      2.693171   476A      2.700431   477A      2.711532  
     478A      2.731632   479A      2.742565   480A      2.755926  
     481A      2.762122   482A      2.802887   483A      2.821911  
     484A      2.890319   485A      2.954255   486A      2.970259  
     487A      2.999543   488A      3.061611   489A      3.085550  
     490A      3.150546   491A      3.179375   492A      3.263151  
     493A      3.311052   494A      3.329700   495A      3.344737  
     496A      3.403800   497A      3.441983   498A      3.468619  
     499A      3.474153   500A      3.488711   501A      3.493580  
     502A      3.508267   503A      3.516422   504A      3.540504  
     505A      3.542882   506A      3.557237   507A      3.570095  
     508A      3.586705   509A      3.591349   510A      3.617689  
     511A      3.621389   512A      3.627049   513A      3.634129  
     514A      3.657784   515A      3.662238   516A      3.670099  
     517A      3.688432   518A      3.698938   519A      3.703584  
     520A      3.711025   521A      3.719303   522A      3.724543  
     523A      3.747842   524A      3.753117   525A      3.761187  
     526A      3.765134   527A      3.775853   528A      3.784455  
     529A      3.787756   530A      3.806653   531A      3.807037  
     532A      3.817377   533A      3.828295   534A      3.832610  
     535A      3.840697   536A      3.852750   537A      3.853348  
     538A      3.858750   539A      3.876761   540A      3.880320  
     541A      3.885380   542A      3.897710   543A      3.908245  
     544A      3.913935   545A      3.919914   546A      3.930654  
     547A      3.942185   548A      3.950925   549A      3.957211  
     550A      3.966013   551A      3.973822   552A      3.985060  
     553A      3.994981   554A      4.000501   555A      4.003912  
     556A      4.012845   557A      4.019189   558A      4.029910  
     559A      4.037300   560A      4.041802   561A      4.051291  
     562A      4.060650   563A      4.067881   564A      4.071558  
     565A      4.075723   566A      4.086768   567A      4.094062  
     568A      4.099527   569A      4.102277   570A      4.109230  
     571A      4.120747   572A      4.132741   573A      4.137837  
     574A      4.147397   575A      4.156328   576A      4.162274  
     577A      4.171802   578A      4.176169   579A      4.189967  
     580A      4.196227   581A      4.200587   582A      4.212917  
     583A      4.230488   584A      4.234813   585A      4.243740  
     586A      4.249723   587A      4.255806   588A      4.275224  
     589A      4.286559   590A      4.291577   591A      4.296623  
     592A      4.302358   593A      4.306087   594A      4.311510  
     595A      4.330737   596A      4.337582   597A      4.344674  
     598A      4.358344   599A      4.366628   600A      4.373049  
     601A      4.397676   602A      4.401350   603A      4.408460  
     604A      4.416623   605A      4.438728   606A      4.448449  
     607A      4.465057   608A      4.469867   609A      4.481173  
     610A      4.489382   611A      4.497097   612A      4.519241  
     613A      4.536409   614A      4.543862   615A      4.561470  
     616A      4.577227   617A      4.591735   618A      4.613808  
     619A      4.623158   620A      4.636215   621A      4.652239  
     622A      4.659208   623A      4.668801   624A      4.677193  
     625A      4.691762   626A      4.699147   627A      4.705008  
     628A      4.714029   629A      4.730893   630A      4.735598  
     631A      4.746858   632A      4.767537   633A      4.787457  
     634A      4.794252   635A      4.798235   636A      4.806302  
     637A      4.815411   638A      4.829281   639A      4.838401  
     640A      4.852397   641A      4.854427   642A      4.865136  
     643A      4.878133   644A      4.885067   645A      4.894973  
     646A      4.904127   647A      4.909642   648A      4.920719  
     649A      4.928566   650A      4.936331   651A      4.961148  
     652A      4.973244   653A      4.986752   654A      5.004353  
     655A      5.013614   656A      5.020175   657A      5.028919  
     658A      5.050328   659A      5.054811   660A      5.065816  
     661A      5.082698   662A      5.110478   663A      5.117276  
     664A      5.137945   665A      5.153976   666A      5.162263  
     667A      5.168802   668A      5.186206   669A      5.205759  
     670A      5.208502   671A      5.212601   672A      5.236741  
     673A      5.249192   674A      5.254707   675A      5.255463  
     676A      5.275222   677A      5.284558   678A      5.304638  
     679A      5.310957   680A      5.316500   681A      5.324541  
     682A      5.328102   683A      5.344271   684A      5.356547  
     685A      5.365299   686A      5.388673   687A      5.390140  
     688A      5.400049   689A      5.405006   690A      5.416458  
     691A      5.424829   692A      5.426580   693A      5.451038  
     694A      5.457709   695A      5.458294   696A      5.471366  
     697A      5.477497   698A      5.503144   699A      5.514979  
     700A      5.525698   701A      5.528145   702A      5.541927  
     703A      5.554011   704A      5.561755   705A      5.583866  
     706A      5.590966   707A      5.619725   708A      5.621859  
     709A      5.637090   710A      5.651372   711A      5.656972  
     712A      5.671235   713A      5.688416   714A      5.692027  
     715A      5.710785   716A      5.718966   717A      5.736132  
     718A      5.747327   719A      5.749502   720A      5.763705  
     721A      5.776528   722A      5.780673   723A      5.791355  
     724A      5.814511   725A      5.830063   726A      5.848384  
     727A      5.867082   728A      5.880843   729A      5.906432  
     730A      5.917836   731A      5.944321   732A      5.956504  
     733A      5.975811   734A      5.990822   735A      6.037707  
     736A      6.058485   737A      6.064710   738A      6.077214  
     739A      6.106303   740A      6.114848   741A      6.151560  
     742A      6.164363   743A      6.188033   744A      6.208741  
     745A      6.225143   746A      6.233834   747A      6.245657  
     748A      6.279390   749A      6.296065   750A      6.316169  
     751A      6.331855   752A      6.350609   753A      6.360691  
     754A      6.388064   755A      6.395709   756A      6.403192  
     757A      6.436609   758A      6.462440   759A      6.599690  
     760A      6.642379   761A      6.697574   762A      6.732993  
     763A      6.740606   764A      6.787267   765A      6.819464  
     766A      6.872970   767A      6.885084   768A      6.924966  
     769A      6.946288   770A      7.029498   771A      7.059319  
     772A      7.115621   773A      7.133415   774A      7.171771  
     775A     18.126779   776A     18.228796   777A     18.404829  
     778A     18.439236   779A     18.673606   780A     19.335112  
     781A     19.525579   782A     19.882686  

    Final Occupation by Irrep:
              A 
    DOCC [    33 ]

  Energy converged.

  @DF-RHF Final Energy:  -313.53656155094825

   => Energetics <=

    Nuclear Repulsion Energy =            404.3085534800800360
    One-Electron Energy =               -1223.7543177809225199
    Two-Electron Energy =                 505.9092027498937796
    DFT Exchange-Correlation Energy =       0.0000000000000000
    Empirical Dispersion Energy =           0.0000000000000000
    PCM Polarization Energy =               0.0000000000000000
    EFP Energy =                            0.0000000000000000
    Total Energy =                       -313.5365615509487043


  Saving occupied orbitals to File 180.

*** tstop() called on wr23 at Tue Sep 20 22:41:29 2016
Module time:
	user time   =     936.17 seconds =      15.60 minutes
	system time =      10.47 seconds =       0.17 minutes
	total time  =         86 seconds =       1.43 minutes
Total time:
	user time   =     936.17 seconds =      15.60 minutes
	system time =      10.47 seconds =       0.17 minutes
	total time  =         86 seconds =       1.43 minutes


Properties will be evaluated at   0.000000,   0.000000,   0.000000 Bohr

Properties computed using the SCF density matrix

  Nuclear Dipole Moment: (a.u.)
     X:     0.2465      Y:    -1.1794      Z:     0.3740

  Electronic Dipole Moment: (a.u.)
     X:    -0.2565      Y:     1.1768      Z:    -0.3703

  Dipole Moment: (a.u.)
     X:    -0.0100      Y:    -0.0027      Z:     0.0037     Total:     0.0110

  Dipole Moment: (Debye)
     X:    -0.0254      Y:    -0.0068      Z:     0.0093     Total:     0.0279


  //>>>>>>>>>>>>>>>>>>>>>>>>>>>>>>>>>>>//
  //               DFMP2               //
  //<<<<<<<<<<<<<<<<<<<<<<<<<<<<<<<<<<<//


*** tstart() called on wr23
*** at Tue Sep 20 22:41:29 2016


*** tstop() called on wr23 at Tue Sep 20 22:41:29 2016
Module time:
	user time   =       3.12 seconds =       0.05 minutes
	system time =       0.07 seconds =       0.00 minutes
	total time  =          0 seconds =       0.00 minutes
Total time:
	user time   =     940.86 seconds =      15.68 minutes
	system time =      10.57 seconds =       0.18 minutes
	total time  =         86 seconds =       1.43 minutes
	 --------------------------------------------------------
	                          DF-MP2                         
	      2nd-Order Density-Fitted Moller-Plesset Theory     
	              RMP2 Wavefunction,  12 Threads             
	                                                         
	        Rob Parrish, Justin Turney, Andy Simmonett,      
	           Ed Hohenstein, and C. David Sherrill          
	 --------------------------------------------------------

   => Auxiliary Basis Set <=

  Basis Set: 
    Number of shells: 476
    Number of basis function: 1676
    Number of Cartesian functions: 2078
    Spherical Harmonics?: true
    Max angular momentum: 4

	 --------------------------------------------------------
	                 NBF =   782, NAUX =  1676
	 --------------------------------------------------------
	   CLASS    FOCC     OCC    AOCC    AVIR     VIR    FVIR
	   PAIRS       8      33      25     749     749       0
	 --------------------------------------------------------

DGAS Warning! /src/lib/libfock/apps.cc:80 is not currently checking restricted

         ------------------------------------------------------------
                                     CPHF                           
                                  Rob Parrish                       
         ------------------------------------------------------------

  ==> Geometry <==

    Molecular point group: c1
    Full point group: C1

    Geometry (in Angstrom), charge = 0, multiplicity = 1:

       Center              X                  Y                   Z               Mass       
    ------------   -----------------  -----------------  -----------------  -----------------
           C         -2.983600901020    -0.669762623983     0.657881276988    12.000000000000
           H         -3.773014209867    -0.389190649280    -0.041686494978     1.007825032070
           H         -2.793565240161     0.186179624704     1.305119184769     1.007825032070
           H         -3.361719468488    -1.478032288424     1.283377341799     1.007825032070
           C          3.270591445260    -0.952003759386    -0.151442329836    12.000000000000
           H          3.427033609617    -0.675295187438    -1.194976290629     1.007825032070
           H          3.484583417445    -2.015816136217    -0.051243853735     1.007825032070
           H          3.998168159865    -0.404259976559     0.449066705475     1.007825032070
           C         -1.724381637407    -1.096365914878    -0.089138384135    12.000000000000
           H         -1.923320749868    -2.023184288003    -0.632282628783     1.007825032070
           H         -0.936831636999    -1.328092499820     0.630740845625     1.007825032070
           C          1.849170377013    -0.620249728615     0.286573655314    12.000000000000
           H          1.141210841482    -1.198891950147    -0.307421920733     1.007825032070
           H          1.703452592687    -0.925622033066     1.326599812223     1.007825032070
           C         -1.232163414999    -0.044950195251    -1.082822664364    12.000000000000
           H         -2.003740652641     0.100194313834    -1.845243220568     1.007825032070
           H         -0.353273915367    -0.422550665875    -1.611118094436     1.007825032070
           C         -0.911173940745     1.312659882772    -0.458473195938    12.000000000000
           H         -1.828701084903     1.745773944012    -0.052458399450     1.007825032070
           H         -0.582563287863     1.991639617190    -1.250819331416     1.007825032070
           C          0.156963502007     1.303987394648     0.636483242370    12.000000000000
           H          0.218021573660     2.317568962224     1.039401486775     1.007825032070
           H         -0.158894761887     0.668688480296     1.469586827423     1.007825032070
           C          1.552514100984     0.872347834254     0.167433524604    12.000000000000
           H          1.698491855515     1.188744848499    -0.871308980407     1.007825032070
           H          2.307571318309     1.404035959841     0.753603817719     1.007825032070

  Nuclear repulsion =  404.308553480080036
  Reference energy  = -313.536561550948250

  ==> Basis Set <==

  Basis Set: AUG-CC-PVTZ
    Number of shells: 274
    Number of basis function: 782
    Number of Cartesian functions: 890
    Spherical Harmonics?: true
    Max angular momentum: 3

  ==> CGRSolver (by Rob Parrish) <==

   Number of roots    =         1
   Preconditioning    =    JACOBI
   Convergence cutoff =     1E-06
   Maximum iterations =       100

  ==> CPHFRHamiltonian (by Rob Parrish) <== 

  ==> DFJK: Density-Fitted J/K Matrices <==

    J tasked:                  Yes
    K tasked:                  Yes
    wK tasked:                  No
    OpenMP threads:             12
    Integrals threads:          12
    Memory (MB):             42915
    Algorithm:                Core
    Integral Cache:           NONE
    Schwarz Cutoff:          1E-12
    Fitting Condition:       1E-12

   => Auxiliary Basis Set <=

  Basis Set: 
    Number of shells: 492
    Number of basis function: 1660
    Number of Cartesian functions: 2038
    Spherical Harmonics?: true
    Max angular momentum: 4

  ==> CPHF Iterations <==

  => Iterations <=

             Iter  Converged  Remaining    Residual
  CGR           1          0          1   9.328E-02
  CGR           2          0          1   1.371E-02
  CGR           3          0          1   4.279E-03
  CGR           4          0          1   9.108E-04
  CGR           5          0          1   2.112E-04
  CGR           6          0          1   4.814E-05
  CGR           7          0          1   1.387E-05
  CGR           8          0          1   3.281E-06
  CGR           9          1          0   8.613E-07

    CGRSolver converged.

  ==> DFCorrGrad: Density-Fitted Correlated Gradients <==

    OpenMP threads:             12
    Integrals threads:          12
    Memory (MB):             42915
    Schwarz Cutoff:          0E+00
    Fitting Condition:       1E-12

   => Auxiliary Basis Set <=

  Basis Set: 
    Number of shells: 492
    Number of basis function: 1660
    Number of Cartesian functions: 2038
    Spherical Harmonics?: true
    Max angular momentum: 4

	-----------------------------------------------------------
	 ==================> DF-MP2 Energies <==================== 
	-----------------------------------------------------------
	 Reference Energy          =    -313.5365615509482495 [Eh]
	 Singles Energy            =      -0.0000000000000000 [Eh]
	 Same-Spin Energy          =      -0.3174664499539173 [Eh]
	 Opposite-Spin Energy      =      -1.1270289061004006 [Eh]
	 Correlation Energy        =      -1.4444953560543179 [Eh]
	 Total Energy              =    -314.9810569070025394 [Eh]
	-----------------------------------------------------------
	 ================> DF-SCS-MP2 Energies <================== 
	-----------------------------------------------------------
	 SCS Same-Spin Scale       =       0.3333333333333333 [-]
	 SCS Opposite-Spin Scale   =       1.2000000000000000 [-]
	 SCS Same-Spin Energy      =      -0.1058221499846391 [Eh]
	 SCS Opposite-Spin Energy  =      -1.3524346873204807 [Eh]
	 SCS Correlation Energy    =      -1.4582568373051197 [Eh]
	 SCS Total Energy          =    -314.9948183882533499 [Eh]
	-----------------------------------------------------------


  -Total Gradient:
     Atom            X                  Y                   Z
    ------   -----------------  -----------------  -----------------
       1        0.000000495078    -0.000000340571    -0.000000233582
       2       -0.000000465276     0.000000212199    -0.000000316765
       3       -0.000000020247     0.000000493014     0.000000362454
       4       -0.000000091625    -0.000000348177     0.000000246939
       5       -0.000000545250     0.000000162167     0.000000099228
       6        0.000000112633     0.000000046892    -0.000000256406
       7        0.000000159619    -0.000000314277    -0.000000000007
       8        0.000000241857     0.000000139426     0.000000106409
       9       -0.000000751773     0.000000760021    -0.000000088383
      10       -0.000000237260    -0.000000488171    -0.000000307488
      11        0.000000634905    -0.000000245880     0.000000582429
      12        0.000000146205     0.000000560876    -0.000000211756
      13       -0.000000152206    -0.000000358356    -0.000000107262
      14       -0.000000073035    -0.000000229486     0.000000447249
      15        0.000000026816     0.000000117091     0.000000600725
      16       -0.000000526626    -0.000000054019    -0.000000340374
      17        0.000000807629    -0.000000272706    -0.000000442315
      18        0.000000633964    -0.000000350012     0.000000005701
      19       -0.000000633434     0.000000372405     0.000000223580
      20        0.000000122424     0.000000165137    -0.000000244833
      21        0.000000185724     0.000000180578    -0.000000850236
      22        0.000000001989     0.000000316480     0.000000137138
      23       -0.000000147723    -0.000000287575     0.000000632176
      24       -0.000000327725    -0.000000452830     0.000000128460
      25        0.000000101918     0.000000169889    -0.000000336690
      26        0.000000301416     0.000000045885     0.000000163608


			-----------------------------------------
			 OPTKING 2.0: for geometry optimizations 
			  - R.A. King,  Bethel University        
			-----------------------------------------

	Internal coordinates to be generated automatically.
	Detected frag 1 with atoms:  1 2 3 4 5 6 7 8 9 10 11 12 13 14 15 16 17 18 19 20
	 21 22 23 24 25 26
	---Fragment 1 Bond Connectivity---
	 1 : 2 3 4 9
	 2 : 1
	 3 : 1
	 4 : 1
	 5 : 6 7 8 12
	 6 : 5
	 7 : 5
	 8 : 5
	 9 : 1 10 11 15
	 10 : 9
	 11 : 9
	 12 : 5 13 14 24
	 13 : 12
	 14 : 12
	 15 : 9 16 17 18
	 16 : 15
	 17 : 15
	 18 : 15 19 20 21
	 19 : 18
	 20 : 18
	 21 : 18 22 23 24
	 22 : 21
	 23 : 21
	 24 : 12 21 25 26
	 25 : 24
	 26 : 24

	---Fragment 1 Geometry and Gradient---
	 C          -5.6381885928       -1.2656679334        1.2432154415
	 H          -7.1299635521       -0.7354637406       -0.0787760589
	 H          -5.2790732383        0.3518285022        2.4663178300
	 H          -6.3527291310       -2.7930762407        2.4252317012
	 C           6.1805221241       -1.7990263827       -0.2861845283
	 H           6.4761549704       -1.2761229631       -2.2581779246
	 H           6.5849083462       -3.8093404317       -0.0968368496
	 H           7.5554428554       -0.7639406422        0.8486130887
	 C          -3.2586090433       -2.0718313206       -0.1684471339
	 H          -3.6345494829       -3.8232642207       -1.1948410070
	 H          -1.7703552266       -2.5097311038        1.1919274591
	 C           3.4944255856       -1.1721021211        0.5415457254
	 H           2.1565759503       -2.2655774487       -0.5809432374
	 H           3.2190588805       -1.7491721451        2.5069103330
	 C          -2.3284514053       -0.0849435586       -2.0462382861
	 H          -3.7865210748        0.1893398132       -3.4870043354
	 H          -0.6675909499       -0.7985050358       -3.0445719662
	 C          -1.7218692074        2.4805676841       -0.8663887796
	 H          -3.4557442294        3.2990346441       -0.0991320083
	 H          -1.1008850691        3.7636534319       -2.3637059781
	 C           0.2966180317        2.4641790566        1.2027790163
	 H           0.4120010653        4.3795706327        1.9641841521
	 H          -0.3002675839        1.2636380960        2.7771166323
	 C           2.9338264683        1.6484984994        0.3164035070
	 H           3.2096844459        2.2464022055       -1.6465353501
	 H           4.3606778237        2.6532434448        1.4241048282
	             0.0000004951       -0.0000003406       -0.0000002336
	            -0.0000004653        0.0000002122       -0.0000003168
	            -0.0000000202        0.0000004930        0.0000003625
	            -0.0000000916       -0.0000003482        0.0000002469
	            -0.0000005453        0.0000001622        0.0000000992
	             0.0000001126        0.0000000469       -0.0000002564
	             0.0000001596       -0.0000003143       -0.0000000000
	             0.0000002419        0.0000001394        0.0000001064
	            -0.0000007518        0.0000007600       -0.0000000884
	            -0.0000002373       -0.0000004882       -0.0000003075
	             0.0000006349       -0.0000002459        0.0000005824
	             0.0000001462        0.0000005609       -0.0000002118
	            -0.0000001522       -0.0000003584       -0.0000001073
	            -0.0000000730       -0.0000002295        0.0000004472
	             0.0000000268        0.0000001171        0.0000006007
	            -0.0000005266       -0.0000000540       -0.0000003404
	             0.0000008076       -0.0000002727       -0.0000004423
	             0.0000006340       -0.0000003500        0.0000000057
	            -0.0000006334        0.0000003724        0.0000002236
	             0.0000001224        0.0000001651       -0.0000002448
	             0.0000001857        0.0000001806       -0.0000008502
	             0.0000000020        0.0000003165        0.0000001371
	            -0.0000001477       -0.0000002876        0.0000006322
	            -0.0000003277       -0.0000004528        0.0000001285
	             0.0000001019        0.0000001699       -0.0000003367
	             0.0000003014        0.0000000459        0.0000001636

	Previous optimization step data not found.  Starting new optimization.

	---Fragment 1 Intrafragment Coordinates---
	 - Coordinate -           - BOHR/RAD -       - ANG/DEG -
	 R(1,2)           =         2.062564	       1.091462
	 R(1,3)           =         2.059427	       1.089802
	 R(1,4)           =         2.059298	       1.089733
	 R(1,9)           =         2.881855	       1.525012
	 R(5,6)           =         2.061452	       1.090873
	 R(5,7)           =         2.059307	       1.089738
	 R(5,8)           =         2.061450	       1.090872
	 R(5,12)          =         2.879807	       1.523928
	 R(9,10)          =         2.064542	       1.092508
	 R(9,11)          =         2.063316	       1.091860
	 R(9,15)          =         2.887735	       1.528124
	 R(12,13)         =         2.060464	       1.090351
	 R(12,14)         =         2.066759	       1.093682
	 R(12,24)         =         2.884571	       1.526449
	 R(15,16)         =         2.068092	       1.094387
	 R(15,17)         =         2.065018	       1.092760
	 R(15,18)         =         2.888223	       1.528382
	 R(18,19)         =         2.065162	       1.092837
	 R(18,20)         =         2.067339	       1.093989
	 R(18,21)         =         2.890677	       1.529680
	 R(21,22)         =         2.064407	       1.092437
	 R(21,23)         =         2.067876	       1.094273
	 R(21,24)         =         2.899287	       1.534237
	 R(24,25)         =         2.070438	       1.095629
	 R(24,26)         =         2.066983	       1.093800
	 B(1,9,10)        =         1.907612	     109.298141
	 B(1,9,11)        =         1.909204	     109.389351
	 B(1,9,15)        =         1.973627	     113.080481
	 B(2,1,3)         =         1.880611	     107.751062
	 B(2,1,4)         =         1.883468	     107.914790
	 B(2,1,9)         =         1.933872	     110.802710
	 B(3,1,4)         =         1.877754	     107.587396
	 B(3,1,9)         =         1.946197	     111.508894
	 B(4,1,9)         =         1.939266	     111.111770
	 B(5,12,13)       =         1.910819	     109.481836
	 B(5,12,14)       =         1.914328	     109.682902
	 B(5,12,24)       =         1.951643	     111.820909
	 B(6,5,7)         =         1.883276	     107.903745
	 B(6,5,8)         =         1.879245	     107.672815
	 B(6,5,12)        =         1.932102	     110.701272
	 B(7,5,8)         =         1.884498	     107.973769
	 B(7,5,12)        =         1.948999	     111.669416
	 B(8,5,12)        =         1.933252	     110.767208
	 B(9,15,16)       =         1.893544	     108.492081
	 B(9,15,17)       =         1.913127	     109.614123
	 B(9,15,18)       =         1.996739	     114.404695
	 B(10,9,11)       =         1.853632	     106.205262
	 B(10,9,15)       =         1.895541	     108.606525
	 B(11,9,15)       =         1.920288	     110.024395
	 B(12,24,21)      =         2.013090	     115.341585
	 B(12,24,25)      =         1.907610	     109.297992
	 B(12,24,26)      =         1.874785	     107.417258
	 B(13,12,14)      =         1.858094	     106.460916
	 B(13,12,24)      =         1.928600	     110.500657
	 B(14,12,24)      =         1.897952	     108.744623
	 B(15,18,19)      =         1.904430	     109.115819
	 B(15,18,20)      =         1.894960	     108.573215
	 B(15,18,21)      =         2.019752	     115.723262
	 B(16,15,17)      =         1.850500	     106.025867
	 B(16,15,18)      =         1.891098	     108.351907
	 B(17,15,18)      =         1.912947	     109.603814
	 B(18,21,22)      =         1.873158	     107.324024
	 B(18,21,23)      =         1.924850	     110.285783
	 B(18,21,24)      =         2.001942	     114.702834
	 B(19,18,20)      =         1.849700	     105.980026
	 B(19,18,21)      =         1.899237	     108.818254
	 B(20,18,21)      =         1.888317	     108.192570
	 B(21,24,25)      =         1.906884	     109.256391
	 B(21,24,26)      =         1.904255	     109.105769
	 B(22,21,23)      =         1.848341	     105.902137
	 B(22,21,24)      =         1.899640	     108.841364
	 B(23,21,24)      =         1.909192	     109.388662
	 B(25,24,26)      =         1.850145	     106.005486
	 D(1,9,15,16)     =        -1.091503	     -62.538529
	 D(1,9,15,17)     =        -3.104817	    -177.892898
	 D(1,9,15,18)     =         1.021831	      58.546589
	 D(2,1,9,10)      =        -1.163316	     -66.653076
	 D(2,1,9,11)      =         3.097135	     177.452783
	 D(2,1,9,15)      =         0.950463	      54.457500
	 D(3,1,9,10)      =         3.025153	     173.328522
	 D(3,1,9,11)      =         1.002419	      57.434381
	 D(3,1,9,15)      =        -1.144254	     -65.560901
	 D(4,1,9,10)      =         0.930406	      53.308358
	 D(4,1,9,11)      =        -1.092328	     -62.585784
	 D(4,1,9,15)      =         3.044185	     174.418934
	 D(5,12,24,21)    =        -3.104643	    -177.882920
	 D(5,12,24,25)    =         1.022430	      58.580905
	 D(5,12,24,26)    =        -0.977443	     -56.003333
	 D(6,5,12,13)     =         1.085594	      62.199971
	 D(6,5,12,14)     =         3.118422	     178.672418
	 D(6,5,12,24)     =        -1.057782	     -60.606449
	 D(7,5,12,13)     =        -1.013167	     -58.050193
	 D(7,5,12,14)     =         1.019661	      58.422255
	 D(7,5,12,24)     =         3.126642	     179.143387
	 D(8,5,12,13)     =        -3.114262	    -178.434094
	 D(8,5,12,14)     =        -1.081435	     -61.961646
	 D(8,5,12,24)     =         1.025547	      58.759486
	 D(9,15,18,19)    =        -1.120299	     -64.188408
	 D(9,15,18,20)    =        -3.128774	    -179.265539
	 D(9,15,18,21)    =         1.027986	      58.899233
	 D(10,9,15,16)    =         1.029091	      58.962578
	 D(10,9,15,17)    =        -0.984222	     -56.391791
	 D(10,9,15,18)    =        -3.140760	    -179.952304
	 D(11,9,15,16)    =         3.051165	     174.818891
	 D(11,9,15,17)    =         1.037852	      59.464522
	 D(11,9,15,18)    =        -1.118686	     -64.095991
	 D(12,24,21,18)   =        -1.593021	     -91.273370
	 D(12,24,21,22)   =         2.591957	     148.508188
	 D(12,24,21,23)   =         0.579983	      33.230550
	 D(13,12,24,21)   =         1.045315	      59.892114
	 D(13,12,24,25)   =        -1.110798	     -63.644062
	 D(13,12,24,26)   =        -3.110671	    -178.228299
	 D(14,12,24,21)   =        -0.988160	     -56.617422
	 D(14,12,24,25)   =         3.138912	     179.846402
	 D(14,12,24,26)   =         1.139040	      65.262165
	 D(15,18,21,22)   =        -3.062022	    -175.440910
	 D(15,18,21,23)   =        -1.056357	     -60.524772
	 D(15,18,21,24)   =         1.108356	      63.504101
	 D(16,15,18,19)   =         0.994385	      56.974036
	 D(16,15,18,20)   =        -1.014090	     -58.103094
	 D(16,15,18,21)   =        -3.140516	    -179.938323
	 D(17,15,18,19)   =         3.006252	     172.245544
	 D(17,15,18,20)   =         0.997777	      57.168413
	 D(17,15,18,21)   =        -1.128649	     -64.666815
	 D(18,21,24,25)   =         0.563475	      32.284749
	 D(18,21,24,26)   =         2.578881	     147.759026
	 D(19,18,21,22)   =        -0.911006	     -52.196782
	 D(19,18,21,23)   =         1.094659	      62.719355
	 D(19,18,21,24)   =        -3.023814	    -173.251771
	 D(20,18,21,22)   =         1.091196	      62.520924
	 D(20,18,21,23)   =         3.096861	     177.437062
	 D(20,18,21,24)   =        -1.021612	     -58.534064
	 D(22,21,24,25)   =        -1.534732	     -87.933693
	 D(22,21,24,26)   =         0.480674	      27.540583
	 D(23,21,24,25)   =         2.736479	     156.788669
	 D(23,21,24,26)   =        -1.531300	     -87.737054
	 R(1,21)          =         7.009659	       3.709352
	 R(9,12)          =         6.849604	       3.624654
	 R(12,15)         =         6.464088	       3.420648

	Current energy   :      -314.9810569070

	Generating empirical Hessian (Schlegel '84) for each fragment.
	Taking RFO optimization step.
	Going to follow RFO solution 1.
	Using RFO vector 1.
	Norm of target step-size    0.00007
	Projected energy change by RFO approximation:        -0.0000000000

	Back-transformation to cartesian coordinates...
	Successfully converged to displaced geometry.

	--- Internal Coordinate Step in ANG or DEG, aJ/ANG or AJ/DEG ---
	 ---------------------------------------------------------------------------
	   Coordinate                Previous        Force       Change         New 
	   ----------                --------       ------       ------       ------
	    1 R(1,2)          =      1.091462    -0.000005    -0.000001     1.091461
	    2 R(1,3)          =      1.089802    -0.000005    -0.000001     1.089801
	    3 R(1,4)          =      1.089733    -0.000004    -0.000001     1.089733
	    4 R(1,9)          =      1.525012     0.000000    -0.000000     1.525012
	    5 R(5,6)          =      1.090873    -0.000002    -0.000000     1.090873
	    6 R(5,7)          =      1.089738    -0.000003    -0.000000     1.089738
	    7 R(5,8)          =      1.090872    -0.000002    -0.000000     1.090872
	    8 R(5,12)         =      1.523928     0.000000     0.000000     1.523928
	    9 R(9,10)         =      1.092508    -0.000005    -0.000001     1.092508
	   10 R(9,11)         =      1.091860    -0.000007    -0.000001     1.091859
	   11 R(9,15)         =      1.528124    -0.000001    -0.000000     1.528123
	   12 R(12,13)        =      1.090351    -0.000003    -0.000001     1.090350
	   13 R(12,14)        =      1.093682    -0.000004    -0.000001     1.093681
	   14 R(12,24)        =      1.526449     0.000001     0.000000     1.526449
	   15 R(15,16)        =      1.094387    -0.000005    -0.000001     1.094386
	   16 R(15,17)        =      1.092760    -0.000008    -0.000001     1.092759
	   17 R(15,18)        =      1.528382    -0.000001    -0.000000     1.528382
	   18 R(18,19)        =      1.092837    -0.000006    -0.000001     1.092835
	   19 R(18,20)        =      1.093989    -0.000002    -0.000000     1.093988
	   20 R(18,21)        =      1.529680     0.000001    -0.000000     1.529680
	   21 R(21,22)        =      1.092437    -0.000003    -0.000001     1.092437
	   22 R(21,23)        =      1.094273    -0.000006    -0.000001     1.094272
	   23 R(21,24)        =      1.534237     0.000000    -0.000000     1.534236
	   24 R(24,25)        =      1.095629    -0.000003    -0.000001     1.095628
	   25 R(24,26)        =      1.093800    -0.000003    -0.000000     1.093800
	   26 B(1,9,10)       =    109.298141     0.000000     0.000110   109.298250
	   27 B(1,9,11)       =    109.389351     0.000000    -0.000030   109.389322
	   28 B(1,9,15)       =    113.080481    -0.000000    -0.000116   113.080365
	   29 B(2,1,3)        =    107.751062     0.000000     0.000027   107.751089
	   30 B(2,1,4)        =    107.914790    -0.000000     0.000004   107.914795
	   31 B(2,1,9)        =    110.802710    -0.000000    -0.000037   110.802673
	   32 B(3,1,4)        =    107.587396     0.000000     0.000007   107.587403
	   33 B(3,1,9)        =    111.508894    -0.000000    -0.000073   111.508821
	   34 B(4,1,9)        =    111.111770     0.000000     0.000074   111.111843
	   35 B(5,12,13)      =    109.481836    -0.000000     0.000039   109.481875
	   36 B(5,12,14)      =    109.682902    -0.000000    -0.000022   109.682880
	   37 B(5,12,24)      =    111.820909     0.000000     0.000131   111.821040
	   38 B(6,5,7)        =    107.903745     0.000000     0.000025   107.903770
	   39 B(6,5,8)        =    107.672815     0.000000     0.000052   107.672867
	   40 B(6,5,12)       =    110.701272    -0.000000    -0.000011   110.701261
	   41 B(7,5,8)        =    107.973769     0.000000     0.000016   107.973785
	   42 B(7,5,12)       =    111.669416    -0.000000    -0.000066   111.669350
	   43 B(8,5,12)       =    110.767208    -0.000000    -0.000010   110.767198
	   44 B(9,15,16)      =    108.492081     0.000000     0.000113   108.492194
	   45 B(9,15,17)      =    109.614123    -0.000000    -0.000036   109.614087
	   46 B(9,15,18)      =    114.404695     0.000000    -0.000067   114.404628
	   47 B(10,9,11)      =    106.205262    -0.000000     0.000012   106.205275
	   48 B(10,9,15)      =    108.606525     0.000000     0.000073   108.606597
	   49 B(11,9,15)      =    110.024395     0.000000    -0.000038   110.024357
	   50 B(12,24,21)     =    115.341585    -0.000000    -0.000128   115.341456
	   51 B(12,24,25)     =    109.297992     0.000000    -0.000017   109.297975
	   52 B(12,24,26)     =    107.417258     0.000000     0.000103   107.417361
	   53 B(13,12,14)     =    106.460916     0.000000     0.000027   106.460943
	   54 B(13,12,24)     =    110.500657    -0.000000    -0.000108   110.500549
	   55 B(14,12,24)     =    108.744623    -0.000000    -0.000073   108.744550
	   56 B(15,18,19)     =    109.115819    -0.000000    -0.000021   109.115798
	   57 B(15,18,20)     =    108.573215    -0.000000     0.000033   108.573248
	   58 B(15,18,21)     =    115.723262     0.000000    -0.000051   115.723211
	   59 B(16,15,17)     =    106.025867    -0.000000    -0.000020   106.025847
	   60 B(16,15,18)     =    108.351907    -0.000000    -0.000012   108.351895
	   61 B(17,15,18)     =    109.603814     0.000000     0.000027   109.603842
	   62 B(18,21,22)     =    107.324024    -0.000000     0.000029   107.324053
	   63 B(18,21,23)     =    110.285783    -0.000000    -0.000069   110.285714
	   64 B(18,21,24)     =    114.702834     0.000000    -0.000005   114.702828
	   65 B(19,18,20)     =    105.980026     0.000000     0.000025   105.980051
	   66 B(19,18,21)     =    108.818254    -0.000000    -0.000020   108.818234
	   67 B(20,18,21)     =    108.192570    -0.000000     0.000041   108.192611
	   68 B(21,24,25)     =    109.256391     0.000000     0.000020   109.256410
	   69 B(21,24,26)     =    109.105769    -0.000000    -0.000006   109.105763
	   70 B(22,21,23)     =    105.902137     0.000000     0.000061   105.902198
	   71 B(22,21,24)     =    108.841364    -0.000000     0.000023   108.841387
	   72 B(23,21,24)     =    109.388662    -0.000000    -0.000030   109.388633
	   73 B(25,24,26)     =    106.005486    -0.000000     0.000043   106.005530
	   74 D(1,9,15,16)    =    -62.538529     0.000000     0.000304   -62.538225
	   75 D(1,9,15,17)    =   -177.892898     0.000000     0.000285  -177.892613
	   76 D(1,9,15,18)    =     58.546589     0.000000     0.000326    58.546915
	   77 D(2,1,9,10)     =    -66.653076    -0.000000     0.000031   -66.653045
	   78 D(2,1,9,11)     =    177.452783    -0.000000    -0.000029   177.452754
	   79 D(2,1,9,15)     =     54.457500     0.000000     0.000124    54.457624
	   80 D(3,1,9,10)     =    173.328522     0.000000     0.000071   173.328593
	   81 D(3,1,9,11)     =     57.434381    -0.000000     0.000011    57.434392
	   82 D(3,1,9,15)     =    -65.560901     0.000000     0.000164   -65.560738
	   83 D(4,1,9,10)     =     53.308358     0.000000     0.000060    53.308418
	   84 D(4,1,9,11)     =    -62.585784    -0.000000     0.000001   -62.585783
	   85 D(4,1,9,15)     =    174.418934     0.000000     0.000153   174.419088
	   86 D(5,12,24,21)   =   -177.882920     0.000000     0.000687  -177.882233
	   87 D(5,12,24,25)   =     58.580905     0.000000     0.000768    58.581673
	   88 D(5,12,24,26)   =    -56.003333    -0.000000     0.000671   -56.002661
	   89 D(6,5,12,13)    =     62.199971    -0.000000    -0.000059    62.199912
	   90 D(6,5,12,14)    =    178.672418    -0.000000    -0.000017   178.672402
	   91 D(6,5,12,24)    =    -60.606449    -0.000000    -0.000038   -60.606487
	   92 D(7,5,12,13)    =    -58.050193    -0.000000    -0.000039   -58.050232
	   93 D(7,5,12,14)    =     58.422255     0.000000     0.000003    58.422258
	   94 D(7,5,12,24)    =    179.143387     0.000000    -0.000018   179.143369
	   95 D(8,5,12,13)    =   -178.434094    -0.000000    -0.000008  -178.434102
	   96 D(8,5,12,14)    =    -61.961646     0.000000     0.000034   -61.961612
	   97 D(8,5,12,24)    =     58.759486     0.000000     0.000013    58.759499
	   98 D(9,15,18,19)   =    -64.188408    -0.000000     0.000035   -64.188373
	   99 D(9,15,18,20)   =   -179.265539     0.000000    -0.000001  -179.265540
	  100 D(9,15,18,21)   =     58.899233     0.000000    -0.000045    58.899188
	  101 D(10,9,15,16)   =     58.962578     0.000000     0.000419    58.962996
	  102 D(10,9,15,17)   =    -56.391791     0.000000     0.000400   -56.391391
	  103 D(10,9,15,18)   =   -179.952304     0.000000     0.000441  -179.951863
	  104 D(11,9,15,16)   =    174.818891     0.000000     0.000453   174.819344
	  105 D(11,9,15,17)   =     59.464522     0.000000     0.000434    59.464956
	  106 D(11,9,15,18)   =    -64.095991     0.000000     0.000475   -64.095515
	  107 D(12,24,21,18)  =    -91.273370     0.000000    -0.000912   -91.274282
	  108 D(12,24,21,22)  =    148.508188     0.000000    -0.000962   148.507226
	  109 D(12,24,21,23)  =     33.230550    -0.000000    -0.001032    33.229519
	  110 D(13,12,24,21)  =     59.892114    -0.000000     0.000623    59.892736
	  111 D(13,12,24,25)  =    -63.644062    -0.000000     0.000704   -63.643358
	  112 D(13,12,24,26)  =   -178.228299    -0.000000     0.000607  -178.227692
	  113 D(14,12,24,21)  =    -56.617422     0.000000     0.000694   -56.616729
	  114 D(14,12,24,25)  =    179.846402     0.000000     0.000775   179.847177
	  115 D(14,12,24,26)  =     65.262165     0.000000     0.000678    65.262843
	  116 D(15,18,21,22)  =   -175.440910     0.000000    -0.000360  -175.441270
	  117 D(15,18,21,23)  =    -60.524772     0.000000    -0.000308   -60.525080
	  118 D(15,18,21,24)  =     63.504101     0.000000    -0.000407    63.503694
	  119 D(16,15,18,19)  =     56.974036     0.000000     0.000127    56.974162
	  120 D(16,15,18,20)  =    -58.103094     0.000000     0.000090   -58.103004
	  121 D(16,15,18,21)  =   -179.938323     0.000000     0.000046  -179.938276
	  122 D(17,15,18,19)  =    172.245544     0.000000     0.000110   172.245654
	  123 D(17,15,18,20)  =     57.168413     0.000000     0.000074    57.168487
	  124 D(17,15,18,21)  =    -64.666815     0.000000     0.000030   -64.666785
	  125 D(18,21,24,25)  =     32.284749    -0.000000    -0.001013    32.283737
	  126 D(18,21,24,26)  =    147.759026    -0.000000    -0.000953   147.758072
	  127 D(19,18,21,22)  =    -52.196782    -0.000000    -0.000440   -52.197223
	  128 D(19,18,21,23)  =     62.719355     0.000000    -0.000388    62.718967
	  129 D(19,18,21,24)  =   -173.251771     0.000000    -0.000487  -173.252258
	  130 D(20,18,21,22)  =     62.520924    -0.000000    -0.000400    62.520524
	  131 D(20,18,21,23)  =    177.437062     0.000000    -0.000348   177.436715
	  132 D(20,18,21,24)  =    -58.534064     0.000000    -0.000447   -58.534511
	  133 D(22,21,24,25)  =    -87.933693    -0.000000    -0.001063   -87.934756
	  134 D(22,21,24,26)  =     27.540583    -0.000000    -0.001004    27.539580
	  135 D(23,21,24,25)  =    156.788669    -0.000000    -0.001132   156.787537
	  136 D(23,21,24,26)  =    -87.737054    -0.000000    -0.001073   -87.738127
	  137 R(1,21)         =      3.709352    -0.000001     0.000000     3.709352
	  138 R(9,12)         =      3.624654    -0.000001    -0.000006     3.624648
	  139 R(12,15)        =      3.420648     0.000001     0.000008     3.420656
	 ---------------------------------------------------------------------------

  ==> Convergence Check <==

  Measures of convergence in internal coordinates in au.
  Criteria marked as inactive (o), active & met (*), and active & unmet ( ).
  --------------------------------------------------------------------------------------------- ~
   Step     Total Energy     Delta E     MAX Force     RMS Force      MAX Disp      RMS Disp    ~
  --------------------------------------------------------------------------------------------- ~
    Convergence Criteria             o    2.00e-06 *    1.00e-06 *    6.00e-06 *    4.00e-06 *  ~
  --------------------------------------------------------------------------------------------- ~
      1    -314.98105691   -3.15e+02 o    9.56e-07 *    2.19e-07 *    1.98e-05      6.30e-06    ~
  ---------------------------------------------------------------------------------------------

	Writing optimization data to binary file.
	Structure for next step:
	Cartesian Geometry (in Angstrom)
	    C    -2.9835954252  -0.6697692027   0.6578793597
	    H    -3.7730114523  -0.3892015860  -0.0416856814
	    H    -2.7935624855   0.1861729816   1.3051166814
	    H    -3.3617074955  -1.4780408585   1.2833756071
	    C     3.2705908687  -0.9520105348  -0.1514324190
	    H     3.4270346281  -0.6753138964  -1.1949688464
	    H     3.4845803655  -2.0158217472  -0.0512215704
	    H     3.9981667188  -0.4042614633   0.4490720151
	    C    -1.7243755736  -1.0963630618  -0.0891445167
	    H    -1.9233082212  -2.0231807324  -0.6322904074
	    H    -0.9368232123  -1.3280848037   0.6307316236
	    C     1.8491694007  -0.6202503109   0.2865776392
	    H     1.1412100102  -1.1988972248  -0.3074125734
	    H     1.7034501529  -0.9256109775   1.3266062132
	    C    -1.2321677824  -0.0449397287  -1.0828251996
	    H    -2.0037487381   0.1002082572  -1.8452399979
	    H    -0.3532815435  -0.4225338030  -1.6111275920
	    C    -0.9111788448   1.3126663311  -0.4584678626
	    H    -1.8287038473   1.7457731822  -0.0524437350
	    H    -0.5825757836   1.9916532833  -1.2508103165
	    C     0.1569651957   1.3039877123   0.6364819551
	    H     0.2180281829   2.3175670590   1.0394036135
	    H    -0.1588896951   0.6686860863   1.4695833132
	    C     1.5525116770   0.8723458672   0.1674223016
	    H     1.6984772349   1.1887294157  -0.8713254127
	    H     2.3075735566   1.4040427210   0.7535777401
			--------------------------
			 OPTKING Finished Execution 
			--------------------------

    Structure for next step:
    Molecular point group: c1
    Full point group: C1

    Geometry (in Angstrom), charge = 0, multiplicity = 1:

    C           -2.983595423717    -0.669769605450     0.657879732165
    H           -3.773011450864    -0.389201988727    -0.041685308940
    H           -2.793562484052     0.186172578827     1.305117053843
    H           -3.361707494010    -1.478041261264     1.283375979513
    C            3.270590870173    -0.952010937532    -0.151432046602
    H            3.427034629515    -0.675314299168    -1.194968473999
    H            3.484580366992    -2.015822149963    -0.051221197914
    H            3.998166720198    -0.404261866002     0.449072387504
    C           -1.724375572183    -1.096363464589    -0.089144144269
    H           -1.923308219717    -2.023181135126    -0.632290034922
    H           -0.936823210843    -1.328085206457     0.630731996037
    C            1.849169402165    -0.620250713671     0.286578011644
    H            1.141210011632    -1.198897627519    -0.307412200969
    H            1.703450154296    -0.925611380209     1.326606585635
    C           -1.232167780993    -0.044940131471    -1.082824827200
    H           -2.003748736682     0.100207854480    -1.845239625417
    H           -0.353281542007    -0.422534205763    -1.611127219561
    C           -0.911178843397     1.312665928392    -0.458467490186
    H           -1.828703845887     1.745772779465    -0.052443362510
    H           -0.582575782205     1.991652880518    -1.250809944074
    C            0.156965197190     1.303987309523     0.636482327564
    H            0.218028184336     2.317566656244     1.039403985975
    H           -0.158889693626     0.668685683578     1.469583685630
    C            1.552511678412     0.872345464450     0.167422674042
    H            1.698477236386     1.188729012953    -0.871325040267
    H            2.307573558059     1.404042318275     0.753578112498

gradient() will perform analytic gradient computation.

*** tstart() called on wr23
*** at Tue Sep 20 22:47:17 2016


         ---------------------------------------------------------
                                   SCF
            by Justin Turney, Rob Parrish, and Andy Simmonett
                              RHF Reference
                       12 Threads,  60000 MiB Core
         ---------------------------------------------------------

  ==> Geometry <==

    Molecular point group: c1
    Full point group: C1

    Geometry (in Angstrom), charge = 0, multiplicity = 1:

       Center              X                  Y                   Z               Mass       
    ------------   -----------------  -----------------  -----------------  -----------------
           C         -2.983595423717    -0.669769605450     0.657879732165    12.000000000000
           H         -3.773011450864    -0.389201988727    -0.041685308940     1.007825032070
           H         -2.793562484052     0.186172578827     1.305117053843     1.007825032070
           H         -3.361707494010    -1.478041261264     1.283375979513     1.007825032070
           C          3.270590870173    -0.952010937532    -0.151432046602    12.000000000000
           H          3.427034629515    -0.675314299168    -1.194968473999     1.007825032070
           H          3.484580366992    -2.015822149963    -0.051221197914     1.007825032070
           H          3.998166720198    -0.404261866002     0.449072387504     1.007825032070
           C         -1.724375572183    -1.096363464589    -0.089144144269    12.000000000000
           H         -1.923308219717    -2.023181135126    -0.632290034922     1.007825032070
           H         -0.936823210843    -1.328085206457     0.630731996037     1.007825032070
           C          1.849169402165    -0.620250713671     0.286578011644    12.000000000000
           H          1.141210011632    -1.198897627519    -0.307412200969     1.007825032070
           H          1.703450154296    -0.925611380209     1.326606585635     1.007825032070
           C         -1.232167780993    -0.044940131471    -1.082824827200    12.000000000000
           H         -2.003748736682     0.100207854480    -1.845239625417     1.007825032070
           H         -0.353281542007    -0.422534205763    -1.611127219561     1.007825032070
           C         -0.911178843397     1.312665928392    -0.458467490186    12.000000000000
           H         -1.828703845887     1.745772779465    -0.052443362510     1.007825032070
           H         -0.582575782205     1.991652880518    -1.250809944074     1.007825032070
           C          0.156965197190     1.303987309523     0.636482327564    12.000000000000
           H          0.218028184336     2.317566656244     1.039403985975     1.007825032070
           H         -0.158889693626     0.668685683578     1.469583685630     1.007825032070
           C          1.552511678412     0.872345464450     0.167422674042    12.000000000000
           H          1.698477236386     1.188729012953    -0.871325040267     1.007825032070
           H          2.307573558059     1.404042318275     0.753578112498     1.007825032070

  Running in c1 symmetry.

  Rotational constants: A =      0.10177  B =      0.03264  C =      0.02879 [cm^-1]
  Rotational constants: A =   3050.84860  B =    978.59966  C =    863.05109 [MHz]
  Nuclear repulsion =  404.308705386149995

  Charge       = 0
  Multiplicity = 1
  Electrons    = 66
  Nalpha       = 33
  Nbeta        = 33

  ==> Algorithm <==

  SCF Algorithm Type is DF.
  DIIS enabled.
  MOM disabled.
  Fractional occupation disabled.
  Guess Type is READ.
  Energy threshold   = 1.00e-10
  Density threshold  = 1.00e-10
  Integral threshold = 0.00e+00

  ==> Primary Basis <==

  Basis Set: AUG-CC-PVTZ
    Number of shells: 274
    Number of basis function: 782
    Number of Cartesian functions: 890
    Spherical Harmonics?: true
    Max angular momentum: 3

  ==> Pre-Iterations <==

   -------------------------------------------------------
    Irrep   Nso     Nmo     Nalpha   Nbeta   Ndocc  Nsocc
   -------------------------------------------------------
     A        782     782       0       0       0       0
   -------------------------------------------------------
    Total     782     782      33      33      33       0
   -------------------------------------------------------

  ==> Integral Setup <==

  ==> DFJK: Density-Fitted J/K Matrices <==

    J tasked:                  Yes
    K tasked:                  Yes
    wK tasked:                  No
    OpenMP threads:             12
    Integrals threads:          12
    Memory (MB):             42915
    Algorithm:                Core
    Integral Cache:           NONE
    Schwarz Cutoff:          1E-12
    Fitting Condition:       1E-12

   => Auxiliary Basis Set <=

  Basis Set: 
    Number of shells: 492
    Number of basis function: 1660
    Number of Cartesian functions: 2038
    Spherical Harmonics?: true
    Max angular momentum: 4

  Minimum eigenvalue in the overlap matrix is 1.5152525726E-06.
  Using Symmetric Orthogonalization.
  SCF Guess: Reading in previously saved MOs, projecting if necessary.

  Using orbitals from previous SCF, no projection.
  Recomputing DOCC and SOCC from number of alpha and beta electrons from previous calculation.
              A 
    DOCC [    33 ]

  ==> Iterations <==

                           Total Energy        Delta E     RMS |[F,P]|

   @DF-RHF iter   0:  -313.53657606319609   -3.13537e+02   4.20061e-08 
   @DF-RHF iter   1:  -313.53656163460744    1.44286e-05   1.00699e-08 
   @DF-RHF iter   2:  -313.53656163465359   -4.61569e-11   4.74405e-09 DIIS
   @DF-RHF iter   3:  -313.53656163466462   -1.10276e-11   1.51991e-09 DIIS
   @DF-RHF iter   4:  -313.53656163466371    9.09495e-13   2.03899e-10 DIIS
   @DF-RHF iter   5:  -313.53656163466371    0.00000e+00   7.05947e-11 DIIS

  ==> Post-Iterations <==

    Orbital Energies (a.u.)
    -----------------------

    Doubly Occupied:                                                      

       1A    -11.211833     2A    -11.211799     3A    -11.210999  
       4A    -11.210561     5A    -11.210296     6A    -11.209731  
       7A    -11.206975     8A    -11.206808     9A     -1.094752  
      10A     -1.057394    11A     -1.008178    12A     -0.946849  
      13A     -0.889982    14A     -0.829417    15A     -0.793037  
      16A     -0.746036    17A     -0.650422    18A     -0.635578  
      19A     -0.611477    20A     -0.581565    21A     -0.579582  
      22A     -0.563810    23A     -0.539107    24A     -0.531625  
      25A     -0.524030    26A     -0.498944    27A     -0.492730  
      28A     -0.472533    29A     -0.467486    30A     -0.460968  
      31A     -0.442366    32A     -0.438112    33A     -0.432975  

    Virtual:                                                              

      34A      0.029353    35A      0.032944    36A      0.034176  
      37A      0.034789    38A      0.047389    39A      0.047852  
      40A      0.050386    41A      0.053439    42A      0.055222  
      43A      0.066929    44A      0.069953    45A      0.072927  
      46A      0.074883    47A      0.076758    48A      0.078882  
      49A      0.091298    50A      0.098194    51A      0.103749  
      52A      0.113978    53A      0.115307    54A      0.120965  
      55A      0.122762    56A      0.129952    57A      0.130481  
      58A      0.135535    59A      0.137463    60A      0.141160  
      61A      0.141918    62A      0.145915    63A      0.151039  
      64A      0.155937    65A      0.158434    66A      0.162752  
      67A      0.166063    68A      0.166907    69A      0.170927  
      70A      0.176987    71A      0.180941    72A      0.183496  
      73A      0.188269    74A      0.190427    75A      0.193454  
      76A      0.197691    77A      0.208212    78A      0.215521  
      79A      0.220407    80A      0.238882    81A      0.244118  
      82A      0.250391    83A      0.254394    84A      0.260604  
      85A      0.265850    86A      0.273752    87A      0.275864  
      88A      0.282852    89A      0.286487    90A      0.293087  
      91A      0.301190    92A      0.305779    93A      0.307881  
      94A      0.316383    95A      0.318327    96A      0.327361  
      97A      0.328769    98A      0.332892    99A      0.335703  
     100A      0.342694   101A      0.343459   102A      0.345984  
     103A      0.349409   104A      0.356141   105A      0.357036  
     106A      0.360672   107A      0.362717   108A      0.367295  
     109A      0.370191   110A      0.373114   111A      0.374417  
     112A      0.376415   113A      0.384448   114A      0.385992  
     115A      0.396599   116A      0.397149   117A      0.400650  
     118A      0.402135   119A      0.409704   120A      0.416314  
     121A      0.417983   122A      0.424108   123A      0.429235  
     124A      0.431297   125A      0.434296   126A      0.437698  
     127A      0.442803   128A      0.446618   129A      0.451437  
     130A      0.452793   131A      0.455221   132A      0.461366  
     133A      0.467878   134A      0.471229   135A      0.475562  
     136A      0.478421   137A      0.482013   138A      0.488222  
     139A      0.489927   140A      0.493723   141A      0.494670  
     142A      0.499347   143A      0.501523   144A      0.504341  
     145A      0.513778   146A      0.516437   147A      0.521259  
     148A      0.523216   149A      0.529072   150A      0.529871  
     151A      0.535380   152A      0.539530   153A      0.546402  
     154A      0.548371   155A      0.555985   156A      0.561260  
     157A      0.562524   158A      0.567344   159A      0.573487  
     160A      0.574573   161A      0.580136   162A      0.585896  
     163A      0.591403   164A      0.594850   165A      0.603935  
     166A      0.608704   167A      0.611736   168A      0.613335  
     169A      0.615644   170A      0.620915   171A      0.627926  
     172A      0.630068   173A      0.632658   174A      0.638292  
     175A      0.640309   176A      0.653777   177A      0.658315  
     178A      0.665670   179A      0.671406   180A      0.673679  
     181A      0.677419   182A      0.683498   183A      0.688824  
     184A      0.692355   185A      0.695323   186A      0.699718  
     187A      0.709816   188A      0.715586   189A      0.717938  
     190A      0.727024   191A      0.733595   192A      0.735290  
     193A      0.739097   194A      0.745218   195A      0.760054  
     196A      0.765417   197A      0.767974   198A      0.777429  
     199A      0.786223   200A      0.789348   201A      0.790631  
     202A      0.805661   203A      0.816931   204A      0.819697  
     205A      0.827852   206A      0.845306   207A      0.847845  
     208A      0.855670   209A      0.857839   210A      0.865784  
     211A      0.871970   212A      0.872545   213A      0.880664  
     214A      0.887384   215A      0.896190   216A      0.898270  
     217A      0.904698   218A      0.910585   219A      0.914953  
     220A      0.921712   221A      0.924700   222A      0.930891  
     223A      0.931459   224A      0.936536   225A      0.942923  
     226A      0.949090   227A      0.952456   228A      0.955156  
     229A      0.959857   230A      0.965560   231A      0.968480  
     232A      0.973716   233A      0.975535   234A      0.980808  
     235A      0.983441   236A      0.993339   237A      0.994149  
     238A      1.006659   239A      1.011508   240A      1.020928  
     241A      1.026106   242A      1.026145   243A      1.035691  
     244A      1.038617   245A      1.039889   246A      1.048075  
     247A      1.049958   248A      1.055309   249A      1.063434  
     250A      1.066426   251A      1.071927   252A      1.078914  
     253A      1.081396   254A      1.089371   255A      1.098215  
     256A      1.104351   257A      1.109365   258A      1.112257  
     259A      1.120789   260A      1.127636   261A      1.131519  
     262A      1.136444   263A      1.137925   264A      1.147103  
     265A      1.152579   266A      1.155406   267A      1.161550  
     268A      1.169196   269A      1.171790   270A      1.179799  
     271A      1.186527   272A      1.188831   273A      1.196853  
     274A      1.197550   275A      1.203556   276A      1.206043  
     277A      1.213491   278A      1.222950   279A      1.224299  
     280A      1.230777   281A      1.236295   282A      1.242576  
     283A      1.243630   284A      1.251689   285A      1.259234  
[...]
		Actual       :        -0.0000000027

	Performing BFGS update.
	Previous computed or guess Hessian on step 1.
	Denominators (dg)(dq) or (dq)(dq) are very small.
	 Skipping Hessian update for step 15.
	Denominators (dg)(dq) or (dq)(dq) are very small.
	 Skipping Hessian update for step 14.
	Denominators (dg)(dq) or (dq)(dq) are very small.
	 Skipping Hessian update for step 13.
	Denominators (dg)(dq) or (dq)(dq) are very small.
	 Skipping Hessian update for step 12.
	Denominators (dg)(dq) or (dq)(dq) are very small.
	 Skipping Hessian update for step 11.
	Denominators (dg)(dq) or (dq)(dq) are very small.
	 Skipping Hessian update for step 10.
	Denominators (dg)(dq) or (dq)(dq) are very small.
	 Skipping Hessian update for step 9.
	Denominators (dg)(dq) or (dq)(dq) are very small.
	 Skipping Hessian update for step 8.
	Denominators (dg)(dq) or (dq)(dq) are very small.
	 Skipping Hessian update for step 7.
	Denominators (dg)(dq) or (dq)(dq) are very small.
	 Skipping Hessian update for step 6.
	Denominators (dg)(dq) or (dq)(dq) are very small.
	 Skipping Hessian update for step 5.
	Denominators (dg)(dq) or (dq)(dq) are very small.
	 Skipping Hessian update for step 4.
	Denominators (dg)(dq) or (dq)(dq) are very small.
	 Skipping Hessian update for step 3.
	Denominators (dg)(dq) or (dq)(dq) are very small.
	 Skipping Hessian update for step 2.
	Steps to be used in Hessian update: 1
	Taking RFO optimization step.
	Going to follow RFO solution 1.
	Using RFO vector 1.
	Norm of target step-size    0.00003
	Projected energy change by RFO approximation:        -0.0000000000

	Back-transformation to cartesian coordinates...
	Successfully converged to displaced geometry.

	--- Internal Coordinate Step in ANG or DEG, aJ/ANG or AJ/DEG ---
	 ---------------------------------------------------------------------------
	   Coordinate                Previous        Force       Change         New 
	   ----------                --------       ------       ------       ------
	    1 R(1,2)          =      1.091462     0.000003     0.000000     1.091462
	    2 R(1,3)          =      1.089801     0.000003     0.000000     1.089802
	    3 R(1,4)          =      1.089733     0.000003     0.000000     1.089733
	    4 R(1,9)          =      1.525012     0.000002     0.000000     1.525012
	    5 R(5,6)          =      1.090874    -0.000000    -0.000000     1.090874
	    6 R(5,7)          =      1.089738     0.000002     0.000000     1.089738
	    7 R(5,8)          =      1.090873    -0.000000    -0.000000     1.090873
	    8 R(5,12)         =      1.523928    -0.000000    -0.000000     1.523928
	    9 R(9,10)         =      1.092508     0.000005     0.000000     1.092508
	   10 R(9,11)         =      1.091860     0.000006     0.000000     1.091860
	   11 R(9,15)         =      1.528123     0.000006     0.000001     1.528124
	   12 R(12,13)        =      1.090351    -0.000001    -0.000000     1.090351
	   13 R(12,14)        =      1.093682     0.000001    -0.000000     1.093682
	   14 R(12,24)        =      1.526450     0.000002    -0.000000     1.526450
	   15 R(15,16)        =      1.094387     0.000001     0.000000     1.094387
	   16 R(15,17)        =      1.092760     0.000001    -0.000000     1.092760
	   17 R(15,18)        =      1.528382    -0.000003    -0.000000     1.528382
	   18 R(18,19)        =      1.092836    -0.000002    -0.000000     1.092836
	   19 R(18,20)        =      1.093989    -0.000004    -0.000000     1.093989
	   20 R(18,21)        =      1.529680    -0.000000    -0.000000     1.529680
	   21 R(21,22)        =      1.092437    -0.000000     0.000000     1.092437
	   22 R(21,23)        =      1.094272    -0.000003    -0.000000     1.094272
	   23 R(21,24)        =      1.534237    -0.000001    -0.000000     1.534237
	   24 R(24,25)        =      1.095629    -0.000003    -0.000000     1.095629
	   25 R(24,26)        =      1.093801    -0.000002    -0.000000     1.093800
	   26 B(1,9,10)       =    109.298207    -0.000000    -0.000036   109.298171
	   27 B(1,9,11)       =    109.389388    -0.000000    -0.000004   109.389384
	   28 B(1,9,15)       =    113.080327     0.000000     0.000064   113.080391
	   29 B(2,1,3)        =    107.751110    -0.000000    -0.000018   107.751092
	   30 B(2,1,4)        =    107.914804     0.000000    -0.000004   107.914800
	   31 B(2,1,9)        =    110.802665     0.000000     0.000020   110.802686
	   32 B(3,1,4)        =    107.587415    -0.000000    -0.000008   107.587407
	   33 B(3,1,9)        =    111.508797     0.000000     0.000028   111.508825
	   34 B(4,1,9)        =    111.111835    -0.000000    -0.000020   111.111816
	   35 B(5,12,13)      =    109.481906     0.000000    -0.000009   109.481897
	   36 B(5,12,14)      =    109.682817     0.000000     0.000043   109.682860
	   37 B(5,12,24)      =    111.820942    -0.000000    -0.000043   111.820899
	   38 B(6,5,7)        =    107.903782    -0.000000    -0.000014   107.903768
	   39 B(6,5,8)        =    107.672867    -0.000000    -0.000017   107.672851
	   40 B(6,5,12)       =    110.701294     0.000000    -0.000002   110.701292
	   41 B(7,5,8)        =    107.973799    -0.000000    -0.000011   107.973788
	   42 B(7,5,12)       =    111.669309     0.000000     0.000035   111.669344
	   43 B(8,5,12)       =    110.767181     0.000000     0.000007   110.767188
	   44 B(9,15,16)      =    108.492210    -0.000000    -0.000046   108.492164
	   45 B(9,15,17)      =    109.614060     0.000000     0.000043   109.614103
	   46 B(9,15,18)      =    114.404671    -0.000000    -0.000010   114.404661
	   47 B(10,9,11)      =    106.205318     0.000000    -0.000010   106.205307
	   48 B(10,9,15)      =    108.606555    -0.000000    -0.000001   108.606553
	   49 B(11,9,15)      =    110.024375    -0.000000    -0.000017   110.024358
	   50 B(12,24,21)     =    115.341531     0.000000     0.000021   115.341552
	   51 B(12,24,25)     =    109.297991    -0.000000    -0.000006   109.297985
	   52 B(12,24,26)     =    107.417365    -0.000000    -0.000026   107.417339
	   53 B(13,12,14)     =    106.460937    -0.000000     0.000011   106.460948
	   54 B(13,12,24)     =    110.500668     0.000000    -0.000027   110.500641
	   55 B(14,12,24)     =    108.744571     0.000000     0.000028   108.744599
	   56 B(15,18,19)     =    109.115863     0.000000    -0.000009   109.115854
	   57 B(15,18,20)     =    108.573187     0.000000     0.000005   108.573192
	   58 B(15,18,21)     =    115.723284    -0.000000    -0.000012   115.723272
	   59 B(16,15,17)     =    106.025902    -0.000000    -0.000008   106.025894
	   60 B(16,15,18)     =    108.351852     0.000000     0.000032   108.351884
	   61 B(17,15,18)     =    109.603800    -0.000000    -0.000013   109.603788
	   62 B(18,21,22)     =    107.323915     0.000000     0.000035   107.323950
	   63 B(18,21,23)     =    110.285797     0.000000     0.000013   110.285810
	   64 B(18,21,24)     =    114.702877    -0.000000    -0.000027   114.702850
	   65 B(19,18,20)     =    105.980068    -0.000000    -0.000017   105.980051
	   66 B(19,18,21)     =    108.818185     0.000000     0.000037   108.818221
	   67 B(20,18,21)     =    108.192561     0.000000    -0.000004   108.192557
	   68 B(21,24,25)     =    109.256383    -0.000000    -0.000006   109.256377
	   69 B(21,24,26)     =    109.105698     0.000000     0.000030   109.105727
	   70 B(22,21,23)     =    105.902158    -0.000000    -0.000008   105.902150
	   71 B(22,21,24)     =    108.841299    -0.000000     0.000018   108.841317
	   72 B(23,21,24)     =    109.388751    -0.000000    -0.000029   109.388722
	   73 B(25,24,26)     =    106.005522     0.000000    -0.000016   106.005505
	   74 D(1,9,15,16)    =    -62.538136    -0.000000    -0.000009   -62.538144
	   75 D(1,9,15,17)    =   -177.892583    -0.000000     0.000003  -177.892580
	   76 D(1,9,15,18)    =     58.546990     0.000000    -0.000007    58.546983
	   77 D(2,1,9,10)     =    -66.653213    -0.000000     0.000244   -66.652969
	   78 D(2,1,9,11)     =    177.452522     0.000000     0.000279   177.452801
	   79 D(2,1,9,15)     =     54.457347     0.000000     0.000259    54.457606
	   80 D(3,1,9,10)     =    173.328420    -0.000000     0.000235   173.328655
	   81 D(3,1,9,11)     =     57.434155     0.000000     0.000270    57.434424
	   82 D(3,1,9,15)     =    -65.561021     0.000000     0.000250   -65.560770
	   83 D(4,1,9,10)     =     53.308252    -0.000000     0.000239    53.308491
	   84 D(4,1,9,11)     =    -62.586013     0.000000     0.000274   -62.585739
	   85 D(4,1,9,15)     =    174.418811     0.000000     0.000255   174.419066
	   86 D(5,12,24,21)   =   -177.882740    -0.000000    -0.000061  -177.882801
	   87 D(5,12,24,25)   =     58.581134    -0.000000    -0.000064    58.581070
	   88 D(5,12,24,26)   =    -56.003200     0.000000    -0.000028   -56.003228
	   89 D(6,5,12,13)    =     62.200091    -0.000000    -0.000114    62.199976
	   90 D(6,5,12,14)    =    178.672555     0.000000    -0.000082   178.672473
	   91 D(6,5,12,24)    =    -60.606415     0.000000    -0.000045   -60.606460
	   92 D(7,5,12,13)    =    -58.050063    -0.000000    -0.000118   -58.050181
	   93 D(7,5,12,14)    =     58.422401     0.000000    -0.000085    58.422316
	   94 D(7,5,12,24)    =    179.143432     0.000000    -0.000049   179.143383
	   95 D(8,5,12,13)    =   -178.433912    -0.000000    -0.000132  -178.434043
	   96 D(8,5,12,14)    =    -61.961447     0.000000    -0.000099   -61.961546
	   97 D(8,5,12,24)    =     58.759583     0.000000    -0.000063    58.759521
	   98 D(9,15,18,19)   =    -64.188204    -0.000000    -0.000231   -64.188435
	   99 D(9,15,18,20)   =   -179.265392     0.000000    -0.000209  -179.265601
	  100 D(9,15,18,21)   =     58.899397    -0.000000    -0.000198    58.899199
	  101 D(10,9,15,16)   =     58.962976    -0.000000    -0.000013    58.962963
	  102 D(10,9,15,17)   =    -56.391471    -0.000000    -0.000002   -56.391473
	  103 D(10,9,15,18)   =   -179.951898     0.000000    -0.000012  -179.951910
	  104 D(11,9,15,16)   =    174.819361    -0.000000    -0.000036   174.819325
	  105 D(11,9,15,17)   =     59.464914    -0.000000    -0.000024    59.464890
	  106 D(11,9,15,18)   =    -64.095513     0.000000    -0.000035   -64.095548
	  107 D(12,24,21,18)  =    -91.273282    -0.000000    -0.000038   -91.273320
	  108 D(12,24,21,22)  =    148.508435    -0.000000    -0.000078   148.508356
	  109 D(12,24,21,23)  =     33.230760    -0.000000    -0.000063    33.230697
	  110 D(13,12,24,21)  =     59.892174     0.000000    -0.000001    59.892173
	  111 D(13,12,24,25)  =    -63.643951     0.000000    -0.000004   -63.643956
	  112 D(13,12,24,26)  =   -178.228286     0.000000     0.000031  -178.228254
	  113 D(14,12,24,21)  =    -56.617364    -0.000000    -0.000016   -56.617379
	  114 D(14,12,24,25)  =    179.846511    -0.000000    -0.000019   179.846492
	  115 D(14,12,24,26)  =     65.262176     0.000000     0.000017    65.262193
	  116 D(15,18,21,22)  =   -175.441380     0.000000     0.000265  -175.441115
	  117 D(15,18,21,23)  =    -60.525271     0.000000     0.000282   -60.524989
	  118 D(15,18,21,24)  =     63.503765     0.000000     0.000234    63.503999
	  119 D(16,15,18,19)  =     56.974349    -0.000000    -0.000273    56.974076
	  120 D(16,15,18,20)  =    -58.102839    -0.000000    -0.000251   -58.103090
	  121 D(16,15,18,21)  =   -179.938050    -0.000000    -0.000240  -179.938290
	  122 D(17,15,18,19)  =    172.245860    -0.000000    -0.000272   172.245589
	  123 D(17,15,18,20)  =     57.168672    -0.000000    -0.000249    57.168423
	  124 D(17,15,18,21)  =    -64.666539    -0.000000    -0.000239   -64.666777
	  125 D(18,21,24,25)  =     32.284790    -0.000000    -0.000035    32.284755
	  126 D(18,21,24,26)  =    147.759065    -0.000000    -0.000041   147.759024
	  127 D(19,18,21,22)  =    -52.197234    -0.000000     0.000274   -52.196960
	  128 D(19,18,21,23)  =     62.718875    -0.000000     0.000291    62.719166
	  129 D(19,18,21,24)  =   -173.252088     0.000000     0.000243  -173.251846
	  130 D(20,18,21,22)  =     62.520482     0.000000     0.000270    62.520752
	  131 D(20,18,21,23)  =    177.436591     0.000000     0.000287   177.436878
	  132 D(20,18,21,24)  =    -58.534373     0.000000     0.000239   -58.534134
	  133 D(22,21,24,25)  =    -87.933493    -0.000000    -0.000075   -87.933568
	  134 D(22,21,24,26)  =     27.540782    -0.000000    -0.000081    27.540701
	  135 D(23,21,24,25)  =    156.788833     0.000000    -0.000061   156.788772
	  136 D(23,21,24,26)  =    -87.736892     0.000000    -0.000066   -87.736959
	  137 R(1,21)         =      3.709359     0.000001    -0.000003     3.709356
	  138 R(9,12)         =      3.624649    -0.000000     0.000001     3.624650
	  139 R(12,15)        =      3.420645    -0.000000     0.000002     3.420647
	 ---------------------------------------------------------------------------

  ==> Convergence Check <==

  Measures of convergence in internal coordinates in au.
  Criteria marked as inactive (o), active & met (*), and active & unmet ( ).
  ---------------------------------------------------------------------------------------------
   Step     Total Energy     Delta E     MAX Force     RMS Force      MAX Disp      RMS Disp   
  ---------------------------------------------------------------------------------------------
    Convergence Criteria             o    2.00e-06 *    1.00e-06 *    6.00e-06 *    4.00e-06 *
  ---------------------------------------------------------------------------------------------
     16    -314.98105691   -2.67e-09 o    7.54e-07 *    1.63e-07 *    5.07e-06 *    2.12e-06 *  ~
  ---------------------------------------------------------------------------------------------


  **** Optimization is complete! (in 16 steps) ****

  ==> Optimization Summary <==

  Measures of convergence in internal coordinates in au.
  --------------------------------------------------------------------------------------------------------------- ~
   Step         Total Energy             Delta E       MAX Force       RMS Force        MAX Disp        RMS Disp  ~
  --------------------------------------------------------------------------------------------------------------- ~
      1    -314.981056907003   -314.981056907003      0.00000096      0.00000022      0.00001976      0.00000630  ~
      2    -314.981056906857      0.000000000145      0.00000076      0.00000016      0.00003963      0.00001082  ~
      3    -314.981056905823      0.000000001035      0.00000350      0.00000072      0.00004951      0.00001309  ~
      4    -314.981056903960      0.000000001862      0.00000454      0.00000105      0.00001003      0.00000367  ~
      5    -314.981056906355     -0.000000002395      0.00000085      0.00000017      0.00002285      0.00000708  ~
      6    -314.981056910680     -0.000000004324      0.00000099      0.00000026      0.00002014      0.00000582  ~
      7    -314.981056902874      0.000000007806      0.00000104      0.00000024      0.00000746      0.00000328  ~
      8    -314.981056904348     -0.000000001474      0.00000066      0.00000015      0.00001110      0.00000206  ~
      9    -314.981056904685     -0.000000000337      0.00000052      0.00000011      0.00001091      0.00000426  ~
     10    -314.981056911045     -0.000000006361      0.00000295      0.00000059      0.00001620      0.00000481  ~
     11    -314.981056909150      0.000000001895      0.00000052      0.00000009      0.00000737      0.00000267  ~
     12    -314.981056903504      0.000000005647      0.00000162      0.00000035      0.00000651      0.00000218  ~
     13    -314.981056904727     -0.000000001223      0.00000041      0.00000009      0.00001046      0.00000244  ~
     14    -314.981056903026      0.000000001700      0.00000221      0.00000047      0.00000886      0.00000227  ~
     15    -314.981056905310     -0.000000002284      0.00000182      0.00000045      0.00000762      0.00000220  ~
     16    -314.981056907977     -0.000000002667      0.00000075      0.00000016      0.00000507      0.00000212  ~
  --------------------------------------------------------------------------------------------------------------- ~

	Writing optimization data to binary file.
	Final energy is   -314.9810569079772
	Final (previous) structure:
	Cartesian Geometry (in Angstrom)
	    C    -2.9836024438  -0.6697663517   0.6578765770
	    H    -3.7730123018  -0.3891975744  -0.0416958762
	    H    -2.7935714184   0.1861769356   1.3051138608
	    H    -3.3617221533  -1.4780359315   1.2833717480
	    C     3.2705896376  -0.9520072905  -0.1514428629
	    H     3.4270336479  -0.6752995209  -1.1949772517
	    H     3.4845771594  -2.0158207308  -0.0512432447
	    H     3.9981671177  -0.4042653997   0.4490676704
	    C    -1.7243777347  -1.0963658692  -0.0891364193
	    H    -1.9233089579  -2.0231860965  -0.6322795311
	    H    -0.9368292075  -1.3280850955   0.6307460384
	    C     1.8491687828  -0.6202497111   0.2865720749
	    H     1.1412068768  -1.1988919670  -0.3074220904
	    H     1.7034517842  -0.9256197167   1.3265995079
	    C    -1.2321633567  -0.0449486927  -1.0828197089
	    H    -2.0037402885   0.1001966380  -1.8452399183
	    H    -0.3532729182  -0.4225473069  -1.6111152005
	    C    -0.9111758265   1.3126612200  -0.4584686081
	    H    -1.8287021246   1.7457717677  -0.0524484853
	    H    -0.5825700706   1.9916434929  -1.2508152637
	    C     0.1569658149   1.3039904731   0.6364836894
	    H     0.2180263517   2.3175737512   1.0393962804
	    H    -0.1588906561   0.6686961546   1.4695911748
	    C     1.5525148589   0.8723489547   0.1674305844
	    H     1.6984897525   1.1887442258  -0.8713135042
	    H     2.3075733698   1.4040383177   0.7535984943
	Saving final (previous) structure.
			--------------------------
			 OPTKING Finished Execution 
			--------------------------

    Final optimized geometry and variables:
    Molecular point group: c1
    Full point group: C1

    Geometry (in Angstrom), charge = 0, multiplicity = 1:

    C           -2.983602443818    -0.669766351678     0.657876576968
    H           -3.773012301827    -0.389197574420    -0.041695876181
    H           -2.793571418431     0.186176935607     1.305113860761
    H           -3.361722153330    -1.478035931458     1.283371747961
    C            3.270589637578    -0.952007290458    -0.151442862950
    H            3.427033647857    -0.675299520933    -1.194977251738
    H            3.484577159428    -2.015820730771    -0.051243244654
    H            3.998167117735    -0.404265399656     0.449067670355
    C           -1.724377734655    -1.096365869248    -0.089136419341
    H           -1.923308957882    -2.023186096487    -0.632279531117
    H           -0.936829207543    -1.328085095536     0.630746038443
    C            1.849168782759    -0.620249711071     0.286572074926
    H            1.141206876811    -1.198891966987    -0.307422090375
    H            1.703451784163    -0.925619716665     1.326599507850
    C           -1.232163356667    -0.044948692724    -1.082819708900
    H           -2.003740288524     0.100196638029    -1.845239918332
    H           -0.353272918193    -0.422547306888    -1.611115200483
    C           -0.911175826540     1.312661219982    -0.458468608095
    H           -1.828702124618     1.745771767699    -0.052448485287
    H           -0.582570070554     1.991643492923    -1.250815263703
    C            0.156965814935     1.303990473128     0.636483689368
    H            0.218026351681     2.317573751166     1.039396280372
    H           -0.158890656145     0.668696154598     1.469591174838
    C            1.552514858865     0.872348954749     0.167430584420
    H            1.698489752533     1.188744225848    -0.871313504246
    H            2.307573369760     1.404038317675     0.753598494253

	Cleaning optimization helper files.

*** Psi4 exiting successfully. Buy a developer a beer!
