    -----------------------------------------------------------------------
          Psi4: An Open-Source Ab Initio Electronic Structure Package
                              Psi4 1.0.0 Driver

                          Git: Rev {master} 6a9a71b dirty

    J. M. Turney, A. C. Simmonett, R. M. Parrish, E. G. Hohenstein,
    F. A. Evangelista, J. T. Fermann, B. J. Mintz, L. A. Burns, J. J. Wilke,
    M. L. Abrams, N. J. Russ, M. L. Leininger, C. L. Janssen, E. T. Seidl,
    W. D. Allen, H. F. Schaefer, R. A. King, E. F. Valeev, C. D. Sherrill,
    and T. D. Crawford, WIREs Comput. Mol. Sci. 2, 556-565 (2012)
    (doi: 10.1002/wcms.93)

                         Additional Contributions by
    A. E. DePrince, U. Bozkaya, A. Yu. Sokolov, D. G. A. Smith, R. Di Remigio,
    R. M. Richard, J. F. Gonthier, H. R. McAlexander, M. Saitow, and
    B. P. Pritchard
    -----------------------------------------------------------------------


    Psi4 started on: Tue Sep 20 22:40:02 2016

    Process ID:   7349
    PSI4DATADIR: /usr/local/hpc5/psi4conda/share/psi4
    Memory level set to 256.000 MB

  ==> Input File <==

--------------------------------------------------------------------------
memory 60 Gb

molecule molecule_16_psi {
0 1
C            3.099006547908     1.422393834094     0.246400114423
H            4.031805928141     0.858300984396     0.282370616511
H            2.829090507052     1.681671974169     1.271101320842
H            3.287165311606     2.349156561516    -0.295121792071
C           -2.805559860584     1.314203845023    -0.443966146317
H           -2.165290617701     2.115889839682    -0.071241295924
H           -3.821135154974     1.703095028143    -0.514230437168
H           -2.476928443771     1.066556523468    -1.452556774108
C            1.995108829652     0.601002359409    -0.408584886827
H            2.271910268900     0.361398329374    -1.439494147086
H            1.082931422237     1.199774217399    -0.464177201530
C           -2.740673814090     0.103015014157     0.480655035475
H           -3.174875450009     0.366617736042     1.447628572226
H           -3.355630828850    -0.704121617518     0.073064106647
C            1.718796197777    -0.692332130037     0.348923641627
H            1.390085575394    -0.449540499637     1.363304080814
H            2.657251052050    -1.243764663604     0.458320948495
C            0.691441259124    -1.597054589825    -0.330553411114
H            0.541245419336    -2.490017315723     0.283090137512
H            1.100299774319    -1.940165199748    -1.285365483491
C           -0.662826508471    -0.932920434066    -0.577926844245
H           -0.543989054150    -0.120385884030    -1.297391672833
H           -1.333797680880    -1.660174338391    -1.045610871654
C           -1.318467392481    -0.409777038341     0.695685548881
H           -1.329988193916    -1.212379855329     1.439744817410
H           -0.714212161931     0.397878423048     1.119959148021
}

set globals {
  reference rhf
  g_convergence gau_verytight
  basis aug-cc-pvtz
  freeze_core true
  scf_type df
  mp_type df
}
optimize('mp2')
--------------------------------------------------------------------------
/usr/local/hpc5/psi4conda/lib/python2.7/site-packages/v2rdm_casscf/v2rdm_casscf.so loaded.

  Memory set to  60.000 GiB by Python script.
gradient() will perform analytic gradient computation.

*** tstart() called on wr36
*** at Tue Sep 20 22:40:02 2016


         ---------------------------------------------------------
                                   SCF
            by Justin Turney, Rob Parrish, and Andy Simmonett
                              RHF Reference
                       12 Threads,  60000 MiB Core
         ---------------------------------------------------------

  ==> Geometry <==

    Molecular point group: c1
    Full point group: C1

    Geometry (in Angstrom), charge = 0, multiplicity = 1:

       Center              X                  Y                   Z               Mass       
    ------------   -----------------  -----------------  -----------------  -----------------
           C          3.099006547908     1.422393834094     0.246400114423    12.000000000000
           H          4.031805928141     0.858300984396     0.282370616511     1.007825032070
           H          2.829090507052     1.681671974169     1.271101320842     1.007825032070
           H          3.287165311606     2.349156561516    -0.295121792071     1.007825032070
           C         -2.805559860584     1.314203845023    -0.443966146317    12.000000000000
           H         -2.165290617701     2.115889839682    -0.071241295924     1.007825032070
           H         -3.821135154974     1.703095028143    -0.514230437168     1.007825032070
           H         -2.476928443771     1.066556523468    -1.452556774108     1.007825032070
           C          1.995108829652     0.601002359409    -0.408584886827    12.000000000000
           H          2.271910268900     0.361398329374    -1.439494147086     1.007825032070
           H          1.082931422237     1.199774217399    -0.464177201530     1.007825032070
           C         -2.740673814090     0.103015014157     0.480655035475    12.000000000000
           H         -3.174875450009     0.366617736042     1.447628572226     1.007825032070
           H         -3.355630828850    -0.704121617518     0.073064106647     1.007825032070
           C          1.718796197777    -0.692332130037     0.348923641627    12.000000000000
           H          1.390085575394    -0.449540499637     1.363304080814     1.007825032070
           H          2.657251052050    -1.243764663604     0.458320948495     1.007825032070
           C          0.691441259124    -1.597054589825    -0.330553411114    12.000000000000
           H          0.541245419336    -2.490017315723     0.283090137512     1.007825032070
           H          1.100299774319    -1.940165199748    -1.285365483491     1.007825032070
           C         -0.662826508471    -0.932920434066    -0.577926844245    12.000000000000
           H         -0.543989054150    -0.120385884030    -1.297391672833     1.007825032070
           H         -1.333797680880    -1.660174338391    -1.045610871654     1.007825032070
           C         -1.318467392481    -0.409777038341     0.695685548881    12.000000000000
           H         -1.329988193916    -1.212379855329     1.439744817410     1.007825032070
           H         -0.714212161931     0.397878423048     1.119959148021     1.007825032070

  Running in c1 symmetry.

  Rotational constants: A =      0.09723  B =      0.03021  C =      0.02581 [cm^-1]
  Rotational constants: A =   2914.99053  B =    905.78795  C =    773.65734 [MHz]
  Nuclear repulsion =  397.884547087414262

  Charge       = 0
  Multiplicity = 1
  Electrons    = 66
  Nalpha       = 33
  Nbeta        = 33

  ==> Algorithm <==

  SCF Algorithm Type is DF.
  DIIS enabled.
  MOM disabled.
  Fractional occupation disabled.
  Guess Type is SAD.
  Energy threshold   = 1.00e-10
  Density threshold  = 1.00e-10
  Integral threshold = 0.00e+00

  ==> Primary Basis <==

  Basis Set: AUG-CC-PVTZ
    Number of shells: 274
    Number of basis function: 782
    Number of Cartesian functions: 890
    Spherical Harmonics?: true
    Max angular momentum: 3

  ==> Pre-Iterations <==

   -------------------------------------------------------
    Irrep   Nso     Nmo     Nalpha   Nbeta   Ndocc  Nsocc
   -------------------------------------------------------
     A        782     782       0       0       0       0
   -------------------------------------------------------
    Total     782     782      33      33      33       0
   -------------------------------------------------------

  ==> Integral Setup <==

  ==> DFJK: Density-Fitted J/K Matrices <==

    J tasked:                  Yes
    K tasked:                  Yes
    wK tasked:                  No
    OpenMP threads:             12
    Integrals threads:          12
    Memory (MB):             42915
    Algorithm:                Core
    Integral Cache:           NONE
    Schwarz Cutoff:          1E-12
    Fitting Condition:       1E-12

   => Auxiliary Basis Set <=

  Basis Set: 
    Number of shells: 492
    Number of basis function: 1660
    Number of Cartesian functions: 2038
    Spherical Harmonics?: true
    Max angular momentum: 4

  Minimum eigenvalue in the overlap matrix is 2.0086721830E-06.
  Using Symmetric Orthogonalization.
  SCF Guess: Superposition of Atomic Densities via on-the-fly atomic UHF.

  ==> Iterations <==

                           Total Energy        Delta E     RMS |[F,P]|

   @DF-RHF iter   0:  -316.95174270330085   -3.16952e+02   7.00322e-03 
   @DF-RHF iter   1:  -313.30413022205369    3.64761e+00   7.02221e-04 
   @DF-RHF iter   2:  -313.51281793444821   -2.08688e-01   2.40409e-04 DIIS
   @DF-RHF iter   3:  -313.53697710447739   -2.41592e-02   9.62480e-05 DIIS
   @DF-RHF iter   4:  -313.54147189660205   -4.49479e-03   1.73188e-05 DIIS
   @DF-RHF iter   5:  -313.54165868411030   -1.86788e-04   5.41568e-06 DIIS
   @DF-RHF iter   6:  -313.54167389769009   -1.52136e-05   1.36381e-06 DIIS
   @DF-RHF iter   7:  -313.54167514732239   -1.24963e-06   2.36594e-07 DIIS
   @DF-RHF iter   8:  -313.54167519009502   -4.27726e-08   6.83343e-08 DIIS
   @DF-RHF iter   9:  -313.54167519263331   -2.53829e-09   1.94702e-08 DIIS
   @DF-RHF iter  10:  -313.54167519287466   -2.41357e-10   5.26421e-09 DIIS
   @DF-RHF iter  11:  -313.54167519289160   -1.69393e-11   1.23325e-09 DIIS
   @DF-RHF iter  12:  -313.54167519289297   -1.36424e-12   2.81628e-10 DIIS
   @DF-RHF iter  13:  -313.54167519289251    4.54747e-13   7.85000e-11 DIIS

  ==> Post-Iterations <==

    Orbital Energies (a.u.)
    -----------------------

    Doubly Occupied:                                                      

       1A    -11.212971     2A    -11.212148     3A    -11.210658  
       4A    -11.210197     5A    -11.209319     6A    -11.208781  
       7A    -11.207174     8A    -11.206964     9A     -1.095637  
      10A     -1.059514    11A     -1.008965    12A     -0.944629  
      13A     -0.886957    14A     -0.831333    15A     -0.791241  
      16A     -0.750697    17A     -0.642696    18A     -0.636444  
      19A     -0.607655    20A     -0.591935    21A     -0.581496  
      22A     -0.564984    23A     -0.543258    24A     -0.531515  
      25A     -0.508102    26A     -0.500873    27A     -0.495955  
      28A     -0.472700    29A     -0.467186    30A     -0.461435  
      31A     -0.441862    32A     -0.439325    33A     -0.436871  

    Virtual:                                                              

      34A      0.029531    35A      0.033504    36A      0.033835  
      37A      0.034157    38A      0.046642    39A      0.048471  
      40A      0.050546    41A      0.053517    42A      0.055602  
      43A      0.066782    44A      0.067535    45A      0.071695  
      46A      0.073899    47A      0.078275    48A      0.080192  
      49A      0.093582    50A      0.095990    51A      0.097633  
      52A      0.113979    53A      0.116953    54A      0.120416  
      55A      0.121928    56A      0.129578    57A      0.134570  
      58A      0.136233    59A      0.139566    60A      0.141609  
      61A      0.145077    62A      0.147528    63A      0.151308  
      64A      0.153139    65A      0.154904    66A      0.161436  
      67A      0.163367    68A      0.165767    69A      0.170917  
      70A      0.174503    71A      0.176468    72A      0.179601  
      73A      0.188034    74A      0.192162    75A      0.196596  
      76A      0.197807    77A      0.212595    78A      0.221218  
      79A      0.229880    80A      0.237992    81A      0.239316  
      82A      0.242417    83A      0.248579    84A      0.261104  
      85A      0.264625    86A      0.269861    87A      0.278454  
      88A      0.283136    89A      0.290359    90A      0.297046  
      91A      0.298711    92A      0.303592    93A      0.305454  
      94A      0.310678    95A      0.312301    96A      0.313996  
      97A      0.320889    98A      0.326927    99A      0.332501  
     100A      0.336615   101A      0.339646   102A      0.343758  
     103A      0.345105   104A      0.351728   105A      0.355534  
     106A      0.358305   107A      0.365805   108A      0.366398  
     109A      0.368936   110A      0.375694   111A      0.376515  
     112A      0.380368   113A      0.383071   114A      0.384509  
     115A      0.390080   116A      0.391686   117A      0.397258  
     118A      0.399403   119A      0.402674   120A      0.413824  
     121A      0.415912   122A      0.423410   123A      0.426770  
     124A      0.427915   125A      0.431722   126A      0.438562  
     127A      0.443900   128A      0.445354   129A      0.447116  
     130A      0.449887   131A      0.456734   132A      0.459372  
     133A      0.462774   134A      0.468182   135A      0.470950  
     136A      0.471640   137A      0.478358   138A      0.483728  
     139A      0.486604   140A      0.489956   141A      0.492192  
     142A      0.493940   143A      0.497828   144A      0.501952  
     145A      0.506046   146A      0.512725   147A      0.518171  
     148A      0.520437   149A      0.522180   150A      0.523839  
     151A      0.531894   152A      0.535352   153A      0.537572  
     154A      0.542654   155A      0.546871   156A      0.551084  
     157A      0.556560   158A      0.562747   159A      0.565172  
     160A      0.570030   161A      0.572186   162A      0.578605  
     163A      0.581059   164A      0.585651   165A      0.587344  
     166A      0.596723   167A      0.605209   168A      0.608497  
     169A      0.609956   170A      0.620136   171A      0.622609  
     172A      0.629376   173A      0.632159   174A      0.633813  
     175A      0.640620   176A      0.641780   177A      0.643771  
     178A      0.650496   179A      0.664299   180A      0.668775  
     181A      0.671466   182A      0.675648   183A      0.680581  
     184A      0.681642   185A      0.697602   186A      0.697988  
     187A      0.703894   188A      0.712865   189A      0.719414  
     190A      0.726004   191A      0.727450   192A      0.731524  
     193A      0.740230   194A      0.746364   195A      0.747743  
     196A      0.754918   197A      0.763579   198A      0.768884  
     199A      0.776967   200A      0.786535   201A      0.801577  
     202A      0.803150   203A      0.817047   204A      0.822738  
     205A      0.830819   206A      0.834260   207A      0.842035  
     208A      0.849458   209A      0.855441   210A      0.857259  
     211A      0.860747   212A      0.868825   213A      0.879770  
     214A      0.885294   215A      0.891105   216A      0.894604  
     217A      0.896979   218A      0.906884   219A      0.911004  
     220A      0.912404   221A      0.914524   222A      0.920992  
     223A      0.924482   224A      0.928255   225A      0.934289  
     226A      0.939784   227A      0.946867   228A      0.951035  
     229A      0.953500   230A      0.968146   231A      0.970238  
     232A      0.973877   233A      0.978020   234A      0.984687  
     235A      0.990051   236A      0.994600   237A      1.001978  
     238A      1.004235   239A      1.007303   240A      1.012426  
     241A      1.015997   242A      1.019300   243A      1.020951  
     244A      1.025320   245A      1.029557   246A      1.042515  
     247A      1.047683   248A      1.049915   249A      1.058235  
     250A      1.062021   251A      1.073841   252A      1.076445  
     253A      1.081845   254A      1.086686   255A      1.088393  
     256A      1.097155   257A      1.103577   258A      1.108376  
     259A      1.109788   260A      1.114216   261A      1.122913  
     262A      1.124533   263A      1.128586   264A      1.134854  
     265A      1.141230   266A      1.147642   267A      1.151475  
     268A      1.159645   269A      1.163565   270A      1.165233  
     271A      1.172159   272A      1.178941   273A      1.184433  
     274A      1.189236   275A      1.197204   276A      1.199284  
     277A      1.201387   278A      1.210302   279A      1.216899  
     280A      1.221031   281A      1.225780   282A      1.235651  
     283A      1.240466   284A      1.242679   285A      1.247207  
     286A      1.249999   287A      1.254320   288A      1.261007  
     289A      1.268221   290A      1.276584   291A      1.280001  
     292A      1.284953   293A      1.293596   294A      1.297697  
     295A      1.301381   296A      1.311178   297A      1.316984  
     298A      1.321677   299A      1.329346   300A      1.333665  
     301A      1.339365   302A      1.349362   303A      1.350813  
     304A      1.355318   305A      1.367726   306A      1.369183  
     307A      1.371398   308A      1.382879   309A      1.394112  
     310A      1.396818   311A      1.409911   312A      1.411571  
     313A      1.421861   314A      1.428887   315A      1.437927  
     316A      1.447185   317A      1.452210   318A      1.458015  
     319A      1.459555   320A      1.477584   321A      1.480092  
     322A      1.481245   323A      1.505125   324A      1.508434  
     325A      1.514423   326A      1.524108   327A      1.531378  
     328A      1.536309   329A      1.540897   330A      1.546642  
     331A      1.559470   332A      1.568433   333A      1.576419  
     334A      1.581842   335A      1.586006   336A      1.593916  
     337A      1.598689   338A      1.604741   339A      1.619018  
     340A      1.621719   341A      1.627690   342A      1.632649  
     343A      1.640436   344A      1.642322   345A      1.652394  
     346A      1.660471   347A      1.667603   348A      1.674329  
     349A      1.681278   350A      1.685214   351A      1.688939  
     352A      1.695121   353A      1.702799   354A      1.712044  
     355A      1.715369   356A      1.722971   357A      1.726571  
     358A      1.730057   359A      1.733920   360A      1.737334  
     361A      1.747694   362A      1.755935   363A      1.760017  
     364A      1.767330   365A      1.775115   366A      1.785226  
     367A      1.790085   368A      1.790593   369A      1.800849  
     370A      1.803314   371A      1.807343   372A      1.817725  
     373A      1.825305   374A      1.833343   375A      1.837218  
     376A      1.845791   377A      1.851586   378A      1.858792  
     379A      1.866763   380A      1.873376   381A      1.875155  
     382A      1.884398   383A      1.889895   384A      1.896004  
     385A      1.898691   386A      1.904962   387A      1.917196  
     388A      1.921754   389A      1.923976   390A      1.928389  
     391A      1.939716   392A      1.940614   393A      1.952447  
     394A      1.958638   395A      1.966521   396A      1.975088  
     397A      1.979485   398A      1.990938   399A      1.999134  
     400A      2.004274   401A      2.009761   402A      2.019257  
     403A      2.022008   404A      2.024125   405A      2.037067  
     406A      2.045437   407A      2.050571   408A      2.055823  
     409A      2.061349   410A      2.068333   411A      2.074545  
     412A      2.077187   413A      2.086512   414A      2.097849  
     415A      2.100958   416A      2.113407   417A      2.114754  
     418A      2.130759   419A      2.135073   420A      2.142154  
     421A      2.149491   422A      2.155368   423A      2.161123  
     424A      2.174827   425A      2.180501   426A      2.189497  
     427A      2.195914   428A      2.208765   429A      2.218485  
     430A      2.232189   431A      2.236509   432A      2.245556  
     433A      2.252282   434A      2.265371   435A      2.275256  
     436A      2.285773   437A      2.296944   438A      2.308871  
     439A      2.311322   440A      2.316493   441A      2.322821  
     442A      2.335809   443A      2.346338   444A      2.355206  
     445A      2.363300   446A      2.368885   447A      2.373665  
     448A      2.378418   449A      2.386877   450A      2.404366  
     451A      2.413097   452A      2.422310   453A      2.432844  
     454A      2.434906   455A      2.448402   456A      2.463520  
     457A      2.468691   458A      2.478307   459A      2.490778  
     460A      2.496101   461A      2.507385   462A      2.514048  
     463A      2.521856   464A      2.539045   465A      2.550034  
     466A      2.560968   467A      2.582196   468A      2.594876  
     469A      2.611788   470A      2.620011   471A      2.627446  
     472A      2.647067   473A      2.665506   474A      2.673213  
     475A      2.692110   476A      2.698183   477A      2.707263  
     478A      2.737794   479A      2.748432   480A      2.760455  
     481A      2.761219   482A      2.765362   483A      2.798397  
     484A      2.893888   485A      2.924449   486A      2.940748  
     487A      2.992299   488A      3.001587   489A      3.060727  
     490A      3.105103   491A      3.169140   492A      3.225738  
     493A      3.267062   494A      3.320565   495A      3.378596  
     496A      3.418531   497A      3.441921   498A      3.457843  
     499A      3.461532   500A      3.481413   501A      3.487202  
     502A      3.495509   503A      3.512672   504A      3.526133  
     505A      3.536780   506A      3.563414   507A      3.572726  
     508A      3.579616   509A      3.587893   510A      3.594122  
     511A      3.606369   512A      3.612596   513A      3.623078  
     514A      3.630013   515A      3.643351   516A      3.658223  
     517A      3.669311   518A      3.681066   519A      3.687425  
     520A      3.695283   521A      3.700728   522A      3.712108  
     523A      3.718582   524A      3.722383   525A      3.739902  
     526A      3.754828   527A      3.759848   528A      3.769495  
     529A      3.770878   530A      3.790287   531A      3.796899  
     532A      3.807356   533A      3.812735   534A      3.825367  
     535A      3.827377   536A      3.840467   537A      3.849357  
     538A      3.854904   539A      3.868428   540A      3.873499  
     541A      3.894776   542A      3.895956   543A      3.900036  
     544A      3.908165   545A      3.919338   546A      3.926705  
     547A      3.931567   548A      3.938079   549A      3.941434  
     550A      3.949644   551A      3.957668   552A      3.972149  
     553A      3.983704   554A      3.984741   555A      3.997996  
     556A      3.999547   557A      4.004262   558A      4.011740  
     559A      4.021066   560A      4.028052   561A      4.030744  
     562A      4.032793   563A      4.036076   564A      4.044022  
     565A      4.058891   566A      4.062404   567A      4.069432  
     568A      4.089270   569A      4.093117   570A      4.096224  
     571A      4.098763   572A      4.107723   573A      4.114812  
     574A      4.122305   575A      4.141569   576A      4.148757  
     577A      4.163522   578A      4.167301   579A      4.180353  
     580A      4.186919   581A      4.197100   582A      4.205608  
     583A      4.207974   584A      4.215111   585A      4.225221  
     586A      4.244379   587A      4.253255   588A      4.258025  
     589A      4.269767   590A      4.274416   591A      4.277000  
     592A      4.290737   593A      4.299683   594A      4.316175  
     595A      4.320920   596A      4.329604   597A      4.346668  
     598A      4.353087   599A      4.358411   600A      4.372840  
     601A      4.377041   602A      4.384003   603A      4.391892  
     604A      4.401929   605A      4.434474   606A      4.434673  
     607A      4.453226   608A      4.460193   609A      4.468499  
     610A      4.482384   611A      4.497098   612A      4.518061  
     613A      4.531622   614A      4.544473   615A      4.563215  
     616A      4.575743   617A      4.588206   618A      4.601110  
     619A      4.611483   620A      4.635618   621A      4.648663  
     622A      4.654987   623A      4.671473   624A      4.683742  
     625A      4.686357   626A      4.704254   627A      4.708123  
     628A      4.724144   629A      4.729114   630A      4.745951  
     631A      4.751560   632A      4.761227   633A      4.773755  
     634A      4.781306   635A      4.791761   636A      4.796543  
     637A      4.804711   638A      4.812443   639A      4.827328  
     640A      4.839010   641A      4.843185   642A      4.853510  
     643A      4.861790   644A      4.867888   645A      4.874656  
     646A      4.890414   647A      4.901418   648A      4.904841  
     649A      4.914819   650A      4.930134   651A      4.946154  
     652A      4.960185   653A      4.961101   654A      4.969013  
     655A      4.984790   656A      5.015195   657A      5.032220  
     658A      5.046101   659A      5.059835   660A      5.072662  
     661A      5.081218   662A      5.090086   663A      5.094924  
     664A      5.113894   665A      5.120600   666A      5.140360  
     667A      5.151092   668A      5.169701   669A      5.180127  
     670A      5.191019   671A      5.206852   672A      5.225703  
     673A      5.227437   674A      5.243542   675A      5.252406  
     676A      5.263128   677A      5.268758   678A      5.284319  
     679A      5.291107   680A      5.300654   681A      5.310034  
     682A      5.318960   683A      5.337030   684A      5.346910  
     685A      5.361643   686A      5.376914   687A      5.381288  
     688A      5.403641   689A      5.405369   690A      5.421508  
     691A      5.428943   692A      5.434641   693A      5.442746  
     694A      5.445766   695A      5.452452   696A      5.467490  
     697A      5.480584   698A      5.487748   699A      5.493857  
     700A      5.502268   701A      5.515655   702A      5.540770  
     703A      5.552587   704A      5.561934   705A      5.584864  
     706A      5.597498   707A      5.614221   708A      5.626042  
     709A      5.634197   710A      5.649876   711A      5.657962  
     712A      5.661185   713A      5.664311   714A      5.672083  
     715A      5.698585   716A      5.715030   717A      5.725996  
     718A      5.731028   719A      5.737393   720A      5.759473  
     721A      5.770620   722A      5.780187   723A      5.790893  
     724A      5.808985   725A      5.814276   726A      5.839735  
     727A      5.856960   728A      5.865930   729A      5.894777  
     730A      5.918412   731A      5.924337   732A      5.954826  
     733A      5.986187   734A      6.007179   735A      6.010637  
     736A      6.023643   737A      6.040430   738A      6.077799  
     739A      6.091194   740A      6.116113   741A      6.150659  
     742A      6.163760   743A      6.171845   744A      6.189080  
     745A      6.224578   746A      6.229009   747A      6.250016  
     748A      6.255879   749A      6.278528   750A      6.303274  
     751A      6.313667   752A      6.319217   753A      6.354266  
     754A      6.358877   755A      6.377840   756A      6.402132  
     757A      6.414692   758A      6.433735   759A      6.585831  
     760A      6.646675   761A      6.674177   762A      6.693189  
     763A      6.739552   764A      6.759003   765A      6.803973  
     766A      6.821985   767A      6.875068   768A      6.921699  
     769A      6.946599   770A      6.956936   771A      7.023795  
     772A      7.059304   773A      7.107915   774A      7.144104  
     775A     17.969081   776A     18.188204   777A     18.312006  
     778A     18.464354   779A     18.621898   780A     18.790762  
     781A     19.441026   782A     19.798190  

    Final Occupation by Irrep:
              A 
    DOCC [    33 ]

  Energy converged.

  @DF-RHF Final Energy:  -313.54167519289251

   => Energetics <=

    Nuclear Repulsion Energy =            397.8845470874142620
    One-Electron Energy =               -1210.9094955355924412
    Two-Electron Energy =                 499.4832732552856100
    DFT Exchange-Correlation Energy =       0.0000000000000000
    Empirical Dispersion Energy =           0.0000000000000000
    PCM Polarization Energy =               0.0000000000000000
    EFP Energy =                            0.0000000000000000
    Total Energy =                       -313.5416751928925692


  Saving occupied orbitals to File 180.

*** tstop() called on wr36 at Tue Sep 20 22:41:28 2016
Module time:
	user time   =     918.32 seconds =      15.31 minutes
	system time =      11.32 seconds =       0.19 minutes
	total time  =         86 seconds =       1.43 minutes
Total time:
	user time   =     918.32 seconds =      15.31 minutes
	system time =      11.32 seconds =       0.19 minutes
	total time  =         86 seconds =       1.43 minutes


Properties will be evaluated at   0.000000,   0.000000,   0.000000 Bohr

Properties computed using the SCF density matrix

  Nuclear Dipole Moment: (a.u.)
     X:     0.2587      Y:     2.1372      Z:    -0.1187

  Electronic Dipole Moment: (a.u.)
     X:    -0.2827      Y:    -2.1647      Z:     0.1152

  Dipole Moment: (a.u.)
     X:    -0.0240      Y:    -0.0275      Z:    -0.0035     Total:     0.0367

  Dipole Moment: (Debye)
     X:    -0.0609      Y:    -0.0699      Z:    -0.0089     Total:     0.0932


  //>>>>>>>>>>>>>>>>>>>>>>>>>>>>>>>>>>>//
  //               DFMP2               //
  //<<<<<<<<<<<<<<<<<<<<<<<<<<<<<<<<<<<//


*** tstart() called on wr36
*** at Tue Sep 20 22:41:28 2016


*** tstop() called on wr36 at Tue Sep 20 22:41:29 2016
Module time:
	user time   =       3.15 seconds =       0.05 minutes
	system time =       0.10 seconds =       0.00 minutes
	total time  =          1 seconds =       0.02 minutes
Total time:
	user time   =     922.79 seconds =      15.38 minutes
	system time =      11.49 seconds =       0.19 minutes
	total time  =         87 seconds =       1.45 minutes
	 --------------------------------------------------------
	                          DF-MP2                         
	      2nd-Order Density-Fitted Moller-Plesset Theory     
	              RMP2 Wavefunction,  12 Threads             
	                                                         
	        Rob Parrish, Justin Turney, Andy Simmonett,      
	           Ed Hohenstein, and C. David Sherrill          
	 --------------------------------------------------------

   => Auxiliary Basis Set <=

  Basis Set: 
    Number of shells: 476
    Number of basis function: 1676
    Number of Cartesian functions: 2078
    Spherical Harmonics?: true
    Max angular momentum: 4

	 --------------------------------------------------------
	                 NBF =   782, NAUX =  1676
	 --------------------------------------------------------
	   CLASS    FOCC     OCC    AOCC    AVIR     VIR    FVIR
	   PAIRS       8      33      25     749     749       0
	 --------------------------------------------------------

DGAS Warning! /src/lib/libfock/apps.cc:80 is not currently checking restricted

         ------------------------------------------------------------
                                     CPHF                           
                                  Rob Parrish                       
         ------------------------------------------------------------

  ==> Geometry <==

    Molecular point group: c1
    Full point group: C1

    Geometry (in Angstrom), charge = 0, multiplicity = 1:

       Center              X                  Y                   Z               Mass       
    ------------   -----------------  -----------------  -----------------  -----------------
           C          3.099006547908     1.422393834094     0.246400114423    12.000000000000
           H          4.031805928141     0.858300984396     0.282370616511     1.007825032070
           H          2.829090507052     1.681671974169     1.271101320842     1.007825032070
           H          3.287165311606     2.349156561516    -0.295121792071     1.007825032070
           C         -2.805559860584     1.314203845023    -0.443966146317    12.000000000000
           H         -2.165290617701     2.115889839682    -0.071241295924     1.007825032070
           H         -3.821135154974     1.703095028143    -0.514230437168     1.007825032070
           H         -2.476928443771     1.066556523468    -1.452556774108     1.007825032070
           C          1.995108829652     0.601002359409    -0.408584886827    12.000000000000
           H          2.271910268900     0.361398329374    -1.439494147086     1.007825032070
           H          1.082931422237     1.199774217399    -0.464177201530     1.007825032070
           C         -2.740673814090     0.103015014157     0.480655035475    12.000000000000
           H         -3.174875450009     0.366617736042     1.447628572226     1.007825032070
           H         -3.355630828850    -0.704121617518     0.073064106647     1.007825032070
           C          1.718796197777    -0.692332130037     0.348923641627    12.000000000000
           H          1.390085575394    -0.449540499637     1.363304080814     1.007825032070
           H          2.657251052050    -1.243764663604     0.458320948495     1.007825032070
           C          0.691441259124    -1.597054589825    -0.330553411114    12.000000000000
           H          0.541245419336    -2.490017315723     0.283090137512     1.007825032070
           H          1.100299774319    -1.940165199748    -1.285365483491     1.007825032070
           C         -0.662826508471    -0.932920434066    -0.577926844245    12.000000000000
           H         -0.543989054150    -0.120385884030    -1.297391672833     1.007825032070
           H         -1.333797680880    -1.660174338391    -1.045610871654     1.007825032070
           C         -1.318467392481    -0.409777038341     0.695685548881    12.000000000000
           H         -1.329988193916    -1.212379855329     1.439744817410     1.007825032070
           H         -0.714212161931     0.397878423048     1.119959148021     1.007825032070

  Nuclear repulsion =  397.884547087414262
  Reference energy  = -313.541675192892512

  ==> Basis Set <==

  Basis Set: AUG-CC-PVTZ
    Number of shells: 274
    Number of basis function: 782
    Number of Cartesian functions: 890
    Spherical Harmonics?: true
    Max angular momentum: 3

  ==> CGRSolver (by Rob Parrish) <==

   Number of roots    =         1
   Preconditioning    =    JACOBI
   Convergence cutoff =     1E-06
   Maximum iterations =       100

  ==> CPHFRHamiltonian (by Rob Parrish) <== 

  ==> DFJK: Density-Fitted J/K Matrices <==

    J tasked:                  Yes
    K tasked:                  Yes
    wK tasked:                  No
    OpenMP threads:             12
    Integrals threads:          12
    Memory (MB):             42915
    Algorithm:                Core
    Integral Cache:           NONE
    Schwarz Cutoff:          1E-12
    Fitting Condition:       1E-12

   => Auxiliary Basis Set <=

  Basis Set: 
    Number of shells: 492
    Number of basis function: 1660
    Number of Cartesian functions: 2038
    Spherical Harmonics?: true
    Max angular momentum: 4

  ==> CPHF Iterations <==

  => Iterations <=

             Iter  Converged  Remaining    Residual
  CGR           1          0          1   9.154E-02
  CGR           2          0          1   1.324E-02
  CGR           3          0          1   3.941E-03
  CGR           4          0          1   8.615E-04
  CGR           5          0          1   1.945E-04
  CGR           6          0          1   4.717E-05
  CGR           7          0          1   1.321E-05
  CGR           8          0          1   3.470E-06
  CGR           9          1          0   9.145E-07

    CGRSolver converged.

  ==> DFCorrGrad: Density-Fitted Correlated Gradients <==

    OpenMP threads:             12
    Integrals threads:          12
    Memory (MB):             42915
    Schwarz Cutoff:          0E+00
    Fitting Condition:       1E-12

   => Auxiliary Basis Set <=

  Basis Set: 
    Number of shells: 492
    Number of basis function: 1660
    Number of Cartesian functions: 2038
    Spherical Harmonics?: true
    Max angular momentum: 4

	-----------------------------------------------------------
	 ==================> DF-MP2 Energies <==================== 
	-----------------------------------------------------------
	 Reference Energy          =    -313.5416751928925123 [Eh]
	 Singles Energy            =      -0.0000000000000002 [Eh]
	 Same-Spin Energy          =      -0.3165859258512380 [Eh]
	 Opposite-Spin Energy      =      -1.1256803360608185 [Eh]
	 Correlation Energy        =      -1.4422662619120568 [Eh]
	 Total Energy              =    -314.9839414548045511 [Eh]
	-----------------------------------------------------------
	 ================> DF-SCS-MP2 Energies <================== 
	-----------------------------------------------------------
	 SCS Same-Spin Scale       =       0.3333333333333333 [-]
	 SCS Opposite-Spin Scale   =       1.2000000000000000 [-]
	 SCS Same-Spin Energy      =      -0.1055286419504126 [Eh]
	 SCS Opposite-Spin Energy  =      -1.3508164032729821 [Eh]
	 SCS Correlation Energy    =      -1.4563450452233950 [Eh]
	 SCS Total Energy          =    -314.9980202381158847 [Eh]
	-----------------------------------------------------------


  -Total Gradient:
     Atom            X                  Y                   Z
    ------   -----------------  -----------------  -----------------
       1       -0.000000397269    -0.000000334026    -0.000000308038
       2        0.000000420996    -0.000000191665     0.000000103883
       3       -0.000000082156     0.000000125582     0.000000459104
       4        0.000000067867     0.000000297342    -0.000000176008
       5        0.000000066074    -0.000000215944    -0.000000016572
       6       -0.000000075549    -0.000000106081    -0.000000046660
       7        0.000000081215    -0.000000001681    -0.000000070985
       8        0.000000018098     0.000000076528     0.000000040168
       9        0.000000568328    -0.000000150462     0.000000901775
      10        0.000000151477    -0.000000077281    -0.000000527715
      11       -0.000000534645     0.000000348842    -0.000000229319
      12       -0.000000037328    -0.000000274432     0.000000256750
      13        0.000000106524    -0.000000175833    -0.000000298339
      14        0.000000222574     0.000000338410     0.000000167045
      15       -0.000000107577    -0.000000035532    -0.000000801808
      16       -0.000000106843     0.000000028532     0.000000549370
      17        0.000000386559    -0.000000099850     0.000000051327
      18       -0.000000161732     0.000000108787     0.000000499025
      19        0.000000072574    -0.000000180596     0.000000191222
      20        0.000000093681    -0.000000174334    -0.000000276701
      21       -0.000000283897     0.000000282485     0.000000116058
      22       -0.000000285793     0.000000183157    -0.000000175371
      23        0.000000032252     0.000000114660     0.000000020822
      24        0.000000432158     0.000000244548    -0.000000073311
      25       -0.000000012503     0.000000161353    -0.000000074598
      26       -0.000000635086    -0.000000292509    -0.000000281124


			-----------------------------------------
			 OPTKING 2.0: for geometry optimizations 
			  - R.A. King,  Bethel University        
			-----------------------------------------

	Internal coordinates to be generated automatically.
	Detected frag 1 with atoms:  1 2 3 4 5 6 7 8 9 10 11 12 13 14 15 16 17 18 19 20
	 21 22 23 24 25 26
	---Fragment 1 Bond Connectivity---
	 1 : 2 3 4 9
	 2 : 1
	 3 : 1
	 4 : 1
	 5 : 6 7 8 12
	 6 : 5
	 7 : 5
	 8 : 5
	 9 : 1 10 11 15
	 10 : 9
	 11 : 9
	 12 : 5 13 14 24
	 13 : 12
	 14 : 12
	 15 : 9 16 17 18
	 16 : 15
	 17 : 15
	 18 : 15 19 20 21
	 19 : 18
	 20 : 18
	 21 : 18 22 23 24
	 22 : 21
	 23 : 21
	 24 : 12 21 25 26
	 25 : 24
	 26 : 24

	---Fragment 1 Geometry and Gradient---
	 C           5.8562736596        2.6879347995        0.4656287354
	 H           7.6190090251        1.6219538001        0.5336031332
	 H           5.3462062635        3.1778994765        2.4020333835
	 H           6.2118421925        4.4392625445       -0.5576993629
	 C          -5.3017397859        2.4834853499       -0.8389744288
	 H          -4.0918062656        3.9984523244       -0.1346265386
	 H          -7.2208989596        3.2183831815       -0.9717546954
	 H          -4.6807164095        2.0154997346       -2.7449344955
	 C           3.7702092933        1.1357298645       -0.7721135381
	 H           4.2932882067        0.6829438674       -2.7202497079
	 H           2.0464438087        2.2672446922       -0.8771677880
	 C          -5.1791229282        0.1946701643        0.9083063814
	 H          -5.9996451065        0.6928071166        2.7356215436
	 H          -6.3412232696       -1.3305970214        0.1380711517
	 C           3.2480540920       -1.3083181188        0.6593701240
	 H           2.6268810388       -0.8495084300        2.5762713486
	 H           5.0214767547       -2.3503745880        0.8661010736
	 C           1.3066346167       -3.0179957940       -0.6246554193
	 H           1.0228056132       -4.7054507929        0.5349628308
	 H           2.0792652375       -3.6663808801       -2.4289887445
	 C          -1.2525605746       -1.7629641242       -1.0921234605
	 H          -1.0279903316       -0.2274963511       -2.4517149487
	 H          -2.5205123335       -3.1372748324       -1.9759181890
	 C          -2.4915422869       -0.7743663780        1.3146551620
	 H          -2.5133134465       -2.2910658956        2.7207234061
	 H          -1.3496653868        0.7518812537        2.1164160698
	            -0.0000003973       -0.0000003340       -0.0000003080
	             0.0000004210       -0.0000001917        0.0000001039
	            -0.0000000822        0.0000001256        0.0000004591
	             0.0000000679        0.0000002973       -0.0000001760
	             0.0000000661       -0.0000002159       -0.0000000166
	            -0.0000000755       -0.0000001061       -0.0000000467
	             0.0000000812       -0.0000000017       -0.0000000710
	             0.0000000181        0.0000000765        0.0000000402
	             0.0000005683       -0.0000001505        0.0000009018
	             0.0000001515       -0.0000000773       -0.0000005277
	            -0.0000005346        0.0000003488       -0.0000002293
	            -0.0000000373       -0.0000002744        0.0000002567
	             0.0000001065       -0.0000001758       -0.0000002983
	             0.0000002226        0.0000003384        0.0000001670
	            -0.0000001076       -0.0000000355       -0.0000008018
	            -0.0000001068        0.0000000285        0.0000005494
	             0.0000003866       -0.0000000999        0.0000000513
	            -0.0000001617        0.0000001088        0.0000004990
	             0.0000000726       -0.0000001806        0.0000001912
	             0.0000000937       -0.0000001743       -0.0000002767
	            -0.0000002839        0.0000002825        0.0000001161
	            -0.0000002858        0.0000001832       -0.0000001754
	             0.0000000323        0.0000001147        0.0000000208
	             0.0000004322        0.0000002445       -0.0000000733
	            -0.0000000125        0.0000001614       -0.0000000746
	            -0.0000006351       -0.0000002925       -0.0000002811

	Previous optimization step data not found.  Starting new optimization.

	---Fragment 1 Intrafragment Coordinates---
	 - Coordinate -           - BOHR/RAD -       - ANG/DEG -
	 R(1,2)           =         2.061109	       1.090692
	 R(1,3)           =         2.061528	       1.090914
	 R(1,4)           =         2.059315	       1.089743
	 R(1,9)           =         2.879759	       1.523903
	 R(5,6)           =         2.062806	       1.091590
	 R(5,7)           =         2.059339	       1.089755
	 R(5,8)           =         2.058486	       1.089304
	 R(5,12)          =         2.882135	       1.525160
	 R(9,10)          =         2.067332	       1.093985
	 R(9,11)          =         2.064638	       1.092559
	 R(9,15)          =         2.880132	       1.524100
	 R(12,13)         =         2.064092	       1.092271
	 R(12,14)         =         2.066441	       1.093514
	 R(12,24)         =         2.885696	       1.527045
	 R(15,16)         =         2.066609	       1.093602
	 R(15,17)         =         2.067280	       1.093958
	 R(15,18)         =         2.888049	       1.528290
	 R(18,19)         =         2.067070	       1.093846
	 R(18,20)         =         2.067119	       1.093872
	 R(18,21)         =         2.888444	       1.528499
	 R(21,22)         =         2.063149	       1.091771
	 R(21,23)         =         2.068218	       1.094454
	 R(21,24)         =         2.881837	       1.525002
	 R(24,25)         =         2.068303	       1.094499
	 R(24,26)         =         2.067882	       1.094276
	 B(1,9,10)        =         1.917493	     109.864277
	 B(1,9,11)        =         1.908437	     109.345412
	 B(1,9,15)        =         1.955300	     112.030442
	 B(2,1,3)         =         1.879209	     107.670759
	 B(2,1,4)         =         1.884474	     107.972389
	 B(2,1,9)         =         1.933637	     110.789226
	 B(3,1,4)         =         1.883215	     107.900292
	 B(3,1,9)         =         1.931141	     110.646225
	 B(4,1,9)         =         1.949682	     111.708543
	 B(5,12,13)       =         1.905126	     109.155686
	 B(5,12,14)       =         1.913750	     109.649788
	 B(5,12,24)       =         1.973241	     113.058364
	 B(6,5,7)         =         1.882363	     107.851479
	 B(6,5,8)         =         1.881956	     107.828113
	 B(6,5,12)        =         1.929728	     110.565293
	 B(7,5,8)         =         1.878199	     107.612876
	 B(7,5,12)        =         1.941353	     111.231308
	 B(8,5,12)        =         1.947596	     111.589045
	 B(9,15,16)       =         1.904043	     109.093609
	 B(9,15,17)       =         1.898560	     108.779499
	 B(9,15,18)       =         1.985859	     113.781328
	 B(10,9,11)       =         1.858062	     106.459111
	 B(10,9,15)       =         1.905382	     109.170335
	 B(11,9,15)       =         1.916641	     109.815417
	 B(12,24,21)      =         1.980138	     113.453577
	 B(12,24,25)      =         1.909404	     109.400790
	 B(12,24,26)      =         1.897616	     108.725387
	 B(13,12,14)      =         1.859340	     106.532328
	 B(13,12,24)      =         1.903512	     109.063184
	 B(14,12,24)      =         1.905387	     109.170612
	 B(15,18,19)      =         1.903025	     109.035320
	 B(15,18,20)      =         1.899172	     108.814521
	 B(15,18,21)      =         1.993619	     114.225960
	 B(16,15,17)      =         1.851469	     106.081365
	 B(16,15,18)      =         1.919590	     109.984400
	 B(17,15,18)      =         1.899408	     108.828053
	 B(18,21,22)      =         1.910896	     109.486285
	 B(18,21,23)      =         1.900348	     108.881933
	 B(18,21,24)      =         1.976660	     113.254250
	 B(19,18,20)      =         1.859740	     106.555235
	 B(19,18,21)      =         1.900581	     108.895268
	 B(20,18,21)      =         1.903064	     109.037552
	 B(21,24,25)      =         1.897287	     108.706548
	 B(21,24,26)      =         1.917281	     109.852134
	 B(22,21,23)      =         1.854245	     106.240385
	 B(22,21,24)      =         1.919680	     109.989534
	 B(23,21,24)      =         1.897852	     108.738882
	 B(25,24,26)      =         1.858203	     106.467209
	 D(1,9,15,16)     =         1.066457	      61.103470
	 D(1,9,15,17)     =        -0.945859	     -54.193735
	 D(1,9,15,18)     =        -3.066252	    -175.683277
	 D(2,1,9,10)      =        -1.073840	     -61.526493
	 D(2,1,9,11)      =        -3.107069	    -178.021914
	 D(2,1,9,15)      =         1.047145	      59.996963
	 D(3,1,9,10)      =         3.126435	     179.131555
	 D(3,1,9,11)      =         1.093207	      62.636134
	 D(3,1,9,15)      =        -1.035765	     -59.344989
	 D(4,1,9,10)      =         1.027948	      58.897056
	 D(4,1,9,11)      =        -1.005281	     -57.598365
	 D(4,1,9,15)      =        -3.134253	    -179.579488
	 D(5,12,24,21)    =        -1.115092	     -63.890087
	 D(5,12,24,25)    =         3.046413	     174.546627
	 D(5,12,24,26)    =         1.023684	      58.652770
	 D(6,5,12,13)     =         1.149573	      65.865669
	 D(6,5,12,14)     =        -3.102875	    -177.781626
	 D(6,5,12,24)     =        -0.972347	     -55.711381
	 D(7,5,12,13)     =        -0.941382	     -53.937207
	 D(7,5,12,14)     =         1.089356	      62.415498
	 D(7,5,12,24)     =        -3.063302	    -175.514256
	 D(8,5,12,13)     =        -3.039061	    -174.125381
	 D(8,5,12,14)     =        -1.008323	     -57.772676
	 D(8,5,12,24)     =         1.122204	      64.297569
	 D(9,15,18,19)    =        -3.126031	    -179.108389
	 D(9,15,18,20)    =         1.135222	      65.043439
	 D(9,15,18,21)    =        -0.995574	     -57.042172
	 D(10,9,15,16)    =        -3.088799	    -176.975154
	 D(10,9,15,17)    =         1.182070	      67.727641
	 D(10,9,15,18)    =        -0.938322	     -53.761901
	 D(11,9,15,16)    =        -1.057818	     -60.608506
	 D(11,9,15,17)    =        -3.070134	    -175.905711
	 D(11,9,15,18)    =         1.092659	      62.604748
	 D(12,24,21,18)   =        -3.021083	    -173.095294
	 D(12,24,21,22)   =         1.117694	      64.039143
	 D(12,24,21,23)   =        -0.906093	     -51.915325
	 D(13,12,24,21)   =         3.045264	     174.480775
	 D(13,12,24,25)   =         0.923584	      52.917489
	 D(13,12,24,26)   =        -1.099145	     -62.976368
	 D(14,12,24,21)   =         1.020114	      58.448229
	 D(14,12,24,25)   =        -1.101566	     -63.115057
	 D(14,12,24,26)   =        -3.124295	    -179.008914
	 D(15,18,21,22)   =         1.141748	      65.417343
	 D(15,18,21,23)   =        -3.121094	    -178.825537
	 D(15,18,21,24)   =        -1.007513	     -57.726218
	 D(16,15,18,19)   =        -0.984060	     -56.382503
	 D(16,15,18,20)   =        -3.005992	    -172.230676
	 D(16,15,18,21)   =         1.146397	      65.683714
	 D(17,15,18,19)   =         1.037233	      59.429073
	 D(17,15,18,20)   =        -0.984699	     -56.419099
	 D(17,15,18,21)   =        -3.115495	    -178.504710
	 D(18,21,24,25)   =        -0.892642	     -51.144639
	 D(18,21,24,26)   =         1.134243	      64.987325
	 D(19,18,21,22)   =        -3.009641	    -172.439730
	 D(19,18,21,23)   =        -0.989298	     -56.682610
	 D(19,18,21,24)   =         1.124284	      64.416709
	 D(20,18,21,22)   =        -0.986914	     -56.546000
	 D(20,18,21,23)   =         1.033429	      59.211120
	 D(20,18,21,24)   =        -3.136174	    -179.689561
	 D(22,21,24,25)   =        -3.037051	    -174.010203
	 D(22,21,24,26)   =        -1.010166	     -57.878239
	 D(23,21,24,25)   =         1.222347	      70.035330
	 D(23,21,24,26)   =        -3.033953	    -173.832706
	 R(9,24)          =         6.871143	       3.636052

	Current energy   :      -314.9839414548

	Generating empirical Hessian (Schlegel '84) for each fragment.
	Taking RFO optimization step.
	Going to follow RFO solution 1.
	Using RFO vector 1.
	Norm of target step-size    0.00021
	Projected energy change by RFO approximation:        -0.0000000001

	Back-transformation to cartesian coordinates...
	Successfully converged to displaced geometry.

	--- Internal Coordinate Step in ANG or DEG, aJ/ANG or AJ/DEG ---
	 ---------------------------------------------------------------------------
	   Coordinate                Previous        Force       Change         New 
	   ----------                --------       ------       ------       ------
	    1 R(1,2)          =      1.090692    -0.000004    -0.000001     1.090691
	    2 R(1,3)          =      1.090914    -0.000004    -0.000001     1.090913
	    3 R(1,4)          =      1.089743    -0.000003    -0.000001     1.089742
	    4 R(1,9)          =      1.523903     0.000000     0.000000     1.523903
	    5 R(5,6)          =      1.091590     0.000001     0.000000     1.091590
	    6 R(5,7)          =      1.089755     0.000001     0.000000     1.089755
	    7 R(5,8)          =      1.089304     0.000001     0.000000     1.089304
	    8 R(5,12)         =      1.525160     0.000001     0.000000     1.525160
	    9 R(9,10)         =      1.093985    -0.000005    -0.000001     1.093984
	   10 R(9,11)         =      1.092559    -0.000005    -0.000001     1.092558
	   11 R(9,15)         =      1.524100     0.000002     0.000000     1.524100
	   12 R(12,13)        =      1.092271     0.000003     0.000001     1.092271
	   13 R(12,14)        =      1.093514     0.000004     0.000001     1.093514
	   14 R(12,24)        =      1.527045     0.000004     0.000001     1.527045
	   15 R(15,16)        =      1.093602    -0.000004    -0.000001     1.093602
	   16 R(15,17)        =      1.093958    -0.000003    -0.000001     1.093957
	   17 R(15,18)        =      1.528290     0.000000    -0.000000     1.528290
	   18 R(18,19)        =      1.093846    -0.000002    -0.000000     1.093846
	   19 R(18,20)        =      1.093872    -0.000003    -0.000001     1.093872
	   20 R(18,21)        =      1.528499    -0.000003    -0.000001     1.528498
	   21 R(21,22)        =      1.091771    -0.000002    -0.000000     1.091771
	   22 R(21,23)        =      1.094454     0.000001     0.000000     1.094454
	   23 R(21,24)        =      1.525002     0.000005     0.000001     1.525003
	   24 R(24,25)        =      1.094499     0.000001     0.000000     1.094499
	   25 R(24,26)        =      1.094276     0.000006     0.000001     1.094277
	   26 B(1,9,10)       =    109.864277    -0.000000     0.000024   109.864301
	   27 B(1,9,11)       =    109.345412    -0.000000    -0.000050   109.345362
	   28 B(1,9,15)       =    112.030442     0.000000     0.000034   112.030476
	   29 B(2,1,3)        =    107.670759     0.000000     0.000029   107.670788
	   30 B(2,1,4)        =    107.972389     0.000000     0.000007   107.972396
	   31 B(2,1,9)        =    110.789226    -0.000000    -0.000039   110.789187
	   32 B(3,1,4)        =    107.900292     0.000000     0.000007   107.900299
	   33 B(3,1,9)        =    110.646225    -0.000000    -0.000012   110.646214
	   34 B(4,1,9)        =    111.708543     0.000000     0.000010   111.708553
	   35 B(5,12,13)      =    109.155686    -0.000000    -0.000087   109.155599
	   36 B(5,12,14)      =    109.649788    -0.000000     0.000025   109.649813
	   37 B(5,12,24)      =    113.058364     0.000000     0.000062   113.058426
	   38 B(6,5,7)        =    107.851479     0.000000     0.000007   107.851486
	   39 B(6,5,8)        =    107.828113     0.000000     0.000023   107.828136
	   40 B(6,5,12)       =    110.565293     0.000000     0.000029   110.565322
	   41 B(7,5,8)        =    107.612876     0.000000     0.000006   107.612882
	   42 B(7,5,12)       =    111.231308    -0.000000    -0.000034   111.231274
	   43 B(8,5,12)       =    111.589045    -0.000000    -0.000028   111.589016
	   44 B(9,15,16)      =    109.093609     0.000000    -0.000019   109.093590
	   45 B(9,15,17)      =    108.779499     0.000000     0.000097   108.779596
	   46 B(9,15,18)      =    113.781328    -0.000000    -0.000156   113.781172
	   47 B(10,9,11)      =    106.459111     0.000000     0.000060   106.459171
	   48 B(10,9,15)      =    109.170335    -0.000000     0.000013   109.170348
	   49 B(11,9,15)      =    109.815417    -0.000000    -0.000079   109.815338
	   50 B(12,24,21)     =    113.453577     0.000000     0.000078   113.453656
	   51 B(12,24,25)     =    109.400790     0.000000     0.000070   109.400860
	   52 B(12,24,26)     =    108.725387     0.000000     0.000046   108.725432
	   53 B(13,12,14)     =    106.532328     0.000000     0.000020   106.532349
	   54 B(13,12,24)     =    109.063184    -0.000000    -0.000039   109.063145
	   55 B(14,12,24)     =    109.170612    -0.000000     0.000016   109.170627
	   56 B(15,18,19)     =    109.035320     0.000000     0.000134   109.035454
	   57 B(15,18,20)     =    108.814521    -0.000000    -0.000022   108.814500
	   58 B(15,18,21)     =    114.225960    -0.000000    -0.000203   114.225756
	   59 B(16,15,17)     =    106.081365    -0.000000     0.000063   106.081428
	   60 B(16,15,18)     =    109.984400     0.000000     0.000045   109.984445
	   61 B(17,15,18)     =    108.828053    -0.000000    -0.000014   108.828039
	   62 B(18,21,22)     =    109.486285    -0.000000    -0.000312   109.485974
	   63 B(18,21,23)     =    108.881933     0.000000     0.000166   108.882099
	   64 B(18,21,24)     =    113.254250     0.000000    -0.000016   113.254234
	   65 B(19,18,20)     =    106.555235    -0.000000     0.000057   106.555292
	   66 B(19,18,21)     =    108.895268    -0.000000     0.000034   108.895302
	   67 B(20,18,21)     =    109.037552     0.000000     0.000017   109.037569
	   68 B(21,24,25)     =    108.706548    -0.000000    -0.000031   108.706518
	   69 B(21,24,26)     =    109.852134    -0.000000    -0.000121   109.852014
	   70 B(22,21,23)     =    106.240385     0.000000     0.000080   106.240464
	   71 B(22,21,24)     =    109.989534     0.000000    -0.000035   109.989499
	   72 B(23,21,24)     =    108.738882    -0.000000     0.000130   108.739012
	   73 B(25,24,26)     =    106.467209     0.000000    -0.000050   106.467158
	   74 D(1,9,15,16)    =     61.103470     0.000000     0.001022    61.104492
	   75 D(1,9,15,17)    =    -54.193735    -0.000000     0.000905   -54.192830
	   76 D(1,9,15,18)    =   -175.683277     0.000000     0.000957  -175.682320
	   77 D(2,1,9,10)     =    -61.526493     0.000000     0.000270   -61.526223
	   78 D(2,1,9,11)     =   -178.021914    -0.000000     0.000213  -178.021701
	   79 D(2,1,9,15)     =     59.996963     0.000000     0.000325    59.997288
	   80 D(3,1,9,10)     =    179.131555     0.000000     0.000266   179.131822
	   81 D(3,1,9,11)     =     62.636134    -0.000000     0.000209    62.636343
	   82 D(3,1,9,15)     =    -59.344989     0.000000     0.000322   -59.344667
	   83 D(4,1,9,10)     =     58.897056     0.000000     0.000258    58.897315
	   84 D(4,1,9,11)     =    -57.598365    -0.000000     0.000202   -57.598163
	   85 D(4,1,9,15)     =   -179.579488     0.000000     0.000314  -179.579174
	   86 D(5,12,24,21)   =    -63.890087    -0.000000    -0.000340   -63.890427
	   87 D(5,12,24,25)   =    174.546627    -0.000000    -0.000405   174.546223
	   88 D(5,12,24,26)   =     58.652770    -0.000000    -0.000408    58.652361
	   89 D(6,5,12,13)    =     65.865669     0.000000     0.000487    65.866156
	   90 D(6,5,12,14)    =   -177.781626    -0.000000     0.000477  -177.781150
	   91 D(6,5,12,24)    =    -55.711381     0.000000     0.000558   -55.710823
	   92 D(7,5,12,13)    =    -53.937207     0.000000     0.000482   -53.936724
	   93 D(7,5,12,14)    =     62.415498    -0.000000     0.000472    62.415970
	   94 D(7,5,12,24)    =   -175.514256     0.000000     0.000553  -175.513704
	   95 D(8,5,12,13)    =   -174.125381     0.000000     0.000517  -174.124864
	   96 D(8,5,12,14)    =    -57.772676     0.000000     0.000507   -57.772170
	   97 D(8,5,12,24)    =     64.297569     0.000000     0.000588    64.298157
	   98 D(9,15,18,19)   =   -179.108389     0.000000     0.000263  -179.108125
	   99 D(9,15,18,20)   =     65.043439    -0.000000     0.000134    65.043573
	  100 D(9,15,18,21)   =    -57.042172    -0.000000     0.000268   -57.041904
	  101 D(10,9,15,16)   =   -176.975154     0.000000     0.001083  -176.974071
	  102 D(10,9,15,17)   =     67.727641    -0.000000     0.000966    67.728608
	  103 D(10,9,15,18)   =    -53.761901     0.000000     0.001018   -53.760882
	  104 D(11,9,15,16)   =    -60.608506     0.000000     0.001117   -60.607389
	  105 D(11,9,15,17)   =   -175.905711    -0.000000     0.001001  -175.904710
	  106 D(11,9,15,18)   =     62.604748     0.000000     0.001053    62.605800
	  107 D(12,24,21,18)  =   -173.095294    -0.000000    -0.004104  -173.099398
	  108 D(12,24,21,22)  =     64.039143     0.000000    -0.003661    64.035481
	  109 D(12,24,21,23)  =    -51.915325    -0.000000    -0.003812   -51.919136
	  110 D(13,12,24,21)  =    174.480775     0.000000    -0.000242   174.480533
	  111 D(13,12,24,25)  =     52.917489     0.000000    -0.000307    52.917182
	  112 D(13,12,24,26)  =    -62.976368    -0.000000    -0.000311   -62.976679
	  113 D(14,12,24,21)  =     58.448229     0.000000    -0.000254    58.447975
	  114 D(14,12,24,25)  =    -63.115057     0.000000    -0.000318   -63.115376
	  115 D(14,12,24,26)  =   -179.008914    -0.000000    -0.000322  -179.009237
	  116 D(15,18,21,22)  =     65.417343    -0.000000    -0.000693    65.416650
	  117 D(15,18,21,23)  =   -178.825537    -0.000000    -0.000677  -178.826214
	  118 D(15,18,21,24)  =    -57.726218    -0.000000    -0.000405   -57.726623
	  119 D(16,15,18,19)  =    -56.382503    -0.000000     0.000162   -56.382342
	  120 D(16,15,18,20)  =   -172.230676    -0.000000     0.000032  -172.230643
	  121 D(16,15,18,21)  =     65.683714    -0.000000     0.000166    65.683880
	  122 D(17,15,18,19)  =     59.429073     0.000000     0.000254    59.429328
	  123 D(17,15,18,20)  =    -56.419099    -0.000000     0.000125   -56.418974
	  124 D(17,15,18,21)  =   -178.504710    -0.000000     0.000258  -178.504451
	  125 D(18,21,24,25)  =    -51.144639    -0.000000    -0.003984   -51.148623
	  126 D(18,21,24,26)  =     64.987325    -0.000000    -0.004129    64.983196
	  127 D(19,18,21,22)  =   -172.439730    -0.000000    -0.000634  -172.440363
	  128 D(19,18,21,23)  =    -56.682610    -0.000000    -0.000618   -56.683228
	  129 D(19,18,21,24)  =     64.416709    -0.000000    -0.000345    64.416363
	  130 D(20,18,21,22)  =    -56.546000     0.000000    -0.000538   -56.546538
	  131 D(20,18,21,23)  =     59.211120    -0.000000    -0.000522    59.210598
	  132 D(20,18,21,24)  =   -179.689561     0.000000    -0.000250  -179.689811
	  133 D(22,21,24,25)  =   -174.010203     0.000000    -0.003541  -174.013744
	  134 D(22,21,24,26)  =    -57.878239    -0.000000    -0.003686   -57.881925
	  135 D(23,21,24,25)  =     70.035330    -0.000000    -0.003692    70.031639
	  136 D(23,21,24,26)  =   -173.832706    -0.000000    -0.003836  -173.836542
	  137 R(9,24)         =      3.636052    -0.000003    -0.000005     3.636047
	 ---------------------------------------------------------------------------

  ==> Convergence Check <==

  Measures of convergence in internal coordinates in au.
  Criteria marked as inactive (o), active & met (*), and active & unmet ( ).
  --------------------------------------------------------------------------------------------- ~
   Step     Total Energy     Delta E     MAX Force     RMS Force      MAX Disp      RMS Disp    ~
  --------------------------------------------------------------------------------------------- ~
    Convergence Criteria             o    2.00e-06 *    1.00e-06 *    6.00e-06 *    4.00e-06 *  ~
  --------------------------------------------------------------------------------------------- ~
      1    -314.98394145   -3.15e+02 o    6.73e-07 *    1.91e-07 *    7.21e-05      1.82e-05    ~
  ---------------------------------------------------------------------------------------------

	Writing optimization data to binary file.
	Structure for next step:
	Cartesian Geometry (in Angstrom)
	    C     3.0989597716   1.4224246637   0.2463709388
	    H     4.0317696630   0.8583495361   0.2823252969
	    H     2.8290584366   1.6817013150   1.2710756344
	    H     3.2870906275   2.3491884195  -0.2951578135
	    C    -2.8054757879   1.3142458725  -0.4439487113
	    H    -2.1651781269   2.1158913149  -0.0711848726
	    H    -3.8210323437   1.7031847759  -0.5142213644
	    H    -2.4768348204   1.0666156600  -1.4525405376
	    C     1.9950650911   0.6010096128  -0.4085897580
	    H     2.2718528126   0.3614028446  -1.4395011491
	    H     1.0828775447   1.1997653431  -0.4641697853
	    C    -2.7406638621   0.1030239469   0.4806348391
	    H    -3.1748822292   0.3666140865   1.4476048761
	    H    -3.3556423371  -0.7040754334   0.0730006943
	    C     1.7187855509  -0.6923238127   0.3489329142
	    H     1.3900698509  -0.4495294097   1.3633101538
	    H     2.6572525901  -1.2437335819   0.4583344597
	    C     0.6914514298  -1.5970758160  -0.3305358701
	    H     0.5412714673  -2.4900351800   0.2831157982
	    H     1.1003185838  -1.9401866161  -1.2853435798
	    C    -0.6628272250  -0.9329689775  -0.5779177745
	    H    -0.5439955559  -0.1204333517  -1.2973818301
	    H    -1.3337833780  -1.6602341877  -1.0456061451
	    C    -1.3184835251  -0.4098325463   0.6956904430
	    H    -1.3300560913  -1.2124546105   1.4397285185
	    H    -0.7142052058   0.3977872359   1.1200017489
			--------------------------
			 OPTKING Finished Execution 
			--------------------------

    Structure for next step:
    Molecular point group: c1
    Full point group: C1

    Geometry (in Angstrom), charge = 0, multiplicity = 1:

    C            3.098961102110     1.422427352256     0.246370556529
    H            4.031770993521     0.858352224629     0.282324914626
    H            2.829059767109     1.681704003543     1.271075252173
    H            3.287091958033     2.349191107971    -0.295158195717
    C           -2.805474457397     1.314248561048    -0.443949093559
    H           -2.165176796446     2.115894003413    -0.071185254874
    H           -3.821031013216     1.703187464404    -0.514221746657
    H           -2.476833489880     1.066618348490    -1.452540919881
    C            1.995066421624     0.601012301287    -0.408590140290
    H            2.271854143100     0.361405533106    -1.439501531331
    H            1.082878875203     1.199768031587    -0.464170167600
    C           -2.740662531600     0.103026635380     0.480634456854
    H           -3.174880898741     0.366616775012     1.447604493865
    H           -3.355641006624    -0.704072744906     0.073000312082
    C            1.718786881343    -0.692321124227     0.348932531903
    H            1.390071181428    -0.449526721133     1.363309771592
    H            2.657253920631    -1.243730893336     0.458334077434
    C            0.691452760248    -1.597073127513    -0.330536252319
    H            0.541272797740    -2.490032491445     0.283115415955
    H            1.100319914298    -1.940183927561    -1.285343962096
    C           -0.662825894499    -0.932966288959    -0.577918156713
    H           -0.543994225457    -0.120430663202    -1.297382212396
    H           -1.333782047488    -1.660231499210    -1.045606527316
    C           -1.318482194645    -0.409829857823     0.695690060725
    H           -1.330054760781    -1.212451922030     1.439728136294
    H           -0.714203875274     0.397789924386     1.120001366634

gradient() will perform analytic gradient computation.

*** tstart() called on wr36
*** at Tue Sep 20 22:47:46 2016


         ---------------------------------------------------------
                                   SCF
            by Justin Turney, Rob Parrish, and Andy Simmonett
                              RHF Reference
                       12 Threads,  60000 MiB Core
         ---------------------------------------------------------

  ==> Geometry <==

    Molecular point group: c1
    Full point group: C1

    Geometry (in Angstrom), charge = 0, multiplicity = 1:

       Center              X                  Y                   Z               Mass       
    ------------   -----------------  -----------------  -----------------  -----------------
           C          3.098961102110     1.422427352256     0.246370556529    12.000000000000
           H          4.031770993521     0.858352224629     0.282324914626     1.007825032070
           H          2.829059767109     1.681704003543     1.271075252173     1.007825032070
           H          3.287091958033     2.349191107971    -0.295158195717     1.007825032070
           C         -2.805474457397     1.314248561048    -0.443949093559    12.000000000000
           H         -2.165176796446     2.115894003413    -0.071185254874     1.007825032070
           H         -3.821031013216     1.703187464404    -0.514221746657     1.007825032070
           H         -2.476833489880     1.066618348490    -1.452540919881     1.007825032070
           C          1.995066421624     0.601012301287    -0.408590140290    12.000000000000
           H          2.271854143100     0.361405533106    -1.439501531331     1.007825032070
           H          1.082878875203     1.199768031587    -0.464170167600     1.007825032070
           C         -2.740662531600     0.103026635380     0.480634456854    12.000000000000
           H         -3.174880898741     0.366616775012     1.447604493865     1.007825032070
           H         -3.355641006624    -0.704072744906     0.073000312082     1.007825032070
           C          1.718786881343    -0.692321124227     0.348932531903    12.000000000000
           H          1.390071181428    -0.449526721133     1.363309771592     1.007825032070
           H          2.657253920631    -1.243730893336     0.458334077434     1.007825032070
           C          0.691452760248    -1.597073127513    -0.330536252319    12.000000000000
           H          0.541272797740    -2.490032491445     0.283115415955     1.007825032070
           H          1.100319914298    -1.940183927561    -1.285343962096     1.007825032070
           C         -0.662825894499    -0.932966288959    -0.577918156713    12.000000000000
           H         -0.543994225457    -0.120430663202    -1.297382212396     1.007825032070
           H         -1.333782047488    -1.660231499210    -1.045606527316     1.007825032070
           C         -1.318482194645    -0.409829857823     0.695690060725    12.000000000000
           H         -1.330054760781    -1.212451922030     1.439728136294     1.007825032070
           H         -0.714203875274     0.397789924386     1.120001366634     1.007825032070

  Running in c1 symmetry.

  Rotational constants: A =      0.09723  B =      0.03021  C =      0.02581 [cm^-1]
  Rotational constants: A =   2914.90666  B =    905.81264  C =    773.66747 [MHz]
  Nuclear repulsion =  397.885229800813818

  Charge       = 0
  Multiplicity = 1
  Electrons    = 66
  Nalpha       = 33
  Nbeta        = 33

  ==> Algorithm <==

  SCF Algorithm Type is DF.
  DIIS enabled.
  MOM disabled.
  Fractional occupation disabled.
  Guess Type is READ.
  Energy threshold   = 1.00e-10
  Density threshold  = 1.00e-10
  Integral threshold = 0.00e+00

  ==> Primary Basis <==

  Basis Set: AUG-CC-PVTZ
    Number of shells: 274
    Number of basis function: 782
    Number of Cartesian functions: 890
    Spherical Harmonics?: true
    Max angular momentum: 3

  ==> Pre-Iterations <==

   -------------------------------------------------------
    Irrep   Nso     Nmo     Nalpha   Nbeta   Ndocc  Nsocc
   -------------------------------------------------------
     A        782     782       0       0       0       0
   -------------------------------------------------------
    Total     782     782      33      33      33       0
   -------------------------------------------------------

  ==> Integral Setup <==

  ==> DFJK: Density-Fitted J/K Matrices <==

    J tasked:                  Yes
    K tasked:                  Yes
    wK tasked:                  No
    OpenMP threads:             12
    Integrals threads:          12
    Memory (MB):             42915
    Algorithm:                Core
    Integral Cache:           NONE
    Schwarz Cutoff:          1E-12
    Fitting Condition:       1E-12

   => Auxiliary Basis Set <=

  Basis Set: 
    Number of shells: 492
    Number of basis function: 1660
    Number of Cartesian functions: 2038
    Spherical Harmonics?: true
    Max angular momentum: 4

  Minimum eigenvalue in the overlap matrix is 2.0086016215E-06.
  Using Symmetric Orthogonalization.
  SCF Guess: Reading in previously saved MOs, projecting if necessary.

  Using orbitals from previous SCF, no projection.
  Recomputing DOCC and SOCC from number of alpha and beta electrons from previous calculation.
              A 
    DOCC [    33 ]

  ==> Iterations <==

                           Total Energy        Delta E     RMS |[F,P]|

   @DF-RHF iter   0:  -313.54163857299977   -3.13542e+02   1.59904e-07 
   @DF-RHF iter   1:  -313.54167502210589   -3.64491e-05   3.77151e-08 
   @DF-RHF iter   2:  -313.54167502274538   -6.39488e-10   1.69717e-08 DIIS
   @DF-RHF iter   3:  -313.54167502285043   -1.05047e-10   5.18248e-09 DIIS
   @DF-RHF iter   4:  -313.54167502286839   -1.79625e-11   6.43268e-10 DIIS
   @DF-RHF iter   5:  -313.54167502286884   -4.54747e-13   2.16480e-10 DIIS
   @DF-RHF iter   6:  -313.54167502286884    0.00000e+00   5.46047e-11 DIIS

  ==> Post-Iterations <==

    Orbital Energies (a.u.)
    -----------------------

    Doubly Occupied:                                                      

       1A    -11.212971     2A    -11.212147     3A    -11.210657  
       4A    -11.210197     5A    -11.209319     6A    -11.208781  
       7A    -11.207174     8A    -11.206964     9A     -1.095637  
      10A     -1.059514    11A     -1.008965    12A     -0.944629  
      13A     -0.886957    14A     -0.831333    15A     -0.791241  
      16A     -0.750697    17A     -0.642696    18A     -0.636444  
      19A     -0.607656    20A     -0.591935    21A     -0.581496  
      22A     -0.564985    23A     -0.543257    24A     -0.531515  
      25A     -0.508102    26A     -0.500873    27A     -0.495955  
      28A     -0.472700    29A     -0.467186    30A     -0.461434  
      31A     -0.441862    32A     -0.439325    33A     -0.436871  

    Virtual:                                                              

      34A      0.029531    35A      0.033504    36A      0.033835  
      37A      0.034157    38A      0.046642    39A      0.048471  
      40A      0.050546    41A      0.053517    42A      0.055603  
      43A      0.066782    44A      0.067536    45A      0.071695  
      46A      0.073899    47A      0.078275    48A      0.080192  
      49A      0.093582    50A      0.095990    51A      0.097633  
      52A      0.113979    53A      0.116953    54A      0.120417  
      55A      0.121928    56A      0.129578    57A      0.134570  
      58A      0.136234    59A      0.139567    60A      0.141609  
      61A      0.145076    62A      0.147528    63A      0.151308  
      64A      0.153139    65A      0.154905    66A      0.161436  
      67A      0.163368    68A      0.165767    69A      0.170916  
      70A      0.174504    71A      0.176466    72A      0.179601  
      73A      0.188034    74A      0.192162    75A      0.196596  
      76A      0.197807    77A      0.212597    78A      0.221217  
      79A      0.229880    80A      0.237990    81A      0.239316  
      82A      0.242417    83A      0.248578    84A      0.261103  
      85A      0.264626    86A      0.269860    87A      0.278454  
      88A      0.283137    89A      0.290358    90A      0.297047  
      91A      0.298711    92A      0.303594    93A      0.305455  
      94A      0.310679    95A      0.312301    96A      0.313996  
      97A      0.320890    98A      0.326926    99A      0.332501  
     100A      0.336616   101A      0.339645   102A      0.343757  
     103A      0.345104   104A      0.351728   105A      0.355533  
     106A      0.358307   107A      0.365805   108A      0.366397  
     109A      0.368936   110A      0.375696   111A      0.376515  
     112A      0.380368   113A      0.383071   114A      0.384510  
     115A      0.390081   116A      0.391685   117A      0.397258  
     118A      0.399403   119A      0.402675   120A      0.413822  
     121A      0.415912   122A      0.423411   123A      0.426769  
     124A      0.427915   125A      0.431726   126A      0.438561  
     127A      0.443901   128A      0.445354   129A      0.447117  
     130A      0.449888   131A      0.456733   132A      0.459373  
     133A      0.462776   134A      0.468183   135A      0.470949  
     136A      0.471639   137A      0.478360   138A      0.483727  
     139A      0.486605   140A      0.489954   141A      0.492193  
     142A      0.493941   143A      0.497830   144A      0.501953  
     145A      0.506046   146A      0.512728   147A      0.518172  
     148A      0.520436   149A      0.522180   150A      0.523840  
     151A      0.531894   152A      0.535353   153A      0.537573  
     154A      0.542653   155A      0.546871   156A      0.551082  
     157A      0.556560   158A      0.562749   159A      0.565171  
     160A      0.570030   161A      0.572185   162A      0.578605  
     163A      0.581061   164A      0.585654   165A      0.587345  
     166A      0.596723   167A      0.605207   168A      0.608498  
     169A      0.609956   170A      0.620138   171A      0.622610  
     172A      0.629377   173A      0.632160   174A      0.633814  
     175A      0.640624   176A      0.641781   177A      0.643773  
     178A      0.650496   179A      0.664298   180A      0.668776  
     181A      0.671467   182A      0.675647   183A      0.680583  
     184A      0.681642   185A      0.697606   186A      0.697990  
     187A      0.703896   188A      0.712863   189A      0.719415  
     190A      0.726006   191A      0.727452   192A      0.731524  
     193A      0.740230   194A      0.746365   195A      0.747745  
     196A      0.754920   197A      0.763578   198A      0.768882  
     199A      0.776967   200A      0.786536   201A      0.801577  
     202A      0.803146   203A      0.817050   204A      0.822738  
     205A      0.830817   206A      0.834260   207A      0.842035  
     208A      0.849459   209A      0.855442   210A      0.857261  
     211A      0.860745   212A      0.868825   213A      0.879770  
     214A      0.885298   215A      0.891105   216A      0.894604  
     217A      0.896981   218A      0.906885   219A      0.911005  
     220A      0.912403   221A      0.914528   222A      0.920990  
     223A      0.924480   224A      0.928256   225A      0.934287  
     226A      0.939787   227A      0.946866   228A      0.951036  
     229A      0.953506   230A      0.968147   231A      0.970238  
     232A      0.973878   233A      0.978023   234A      0.984686  
     235A      0.990054   236A      0.994600   237A      1.001983  
     238A      1.004235   239A      1.007303   240A      1.012424  
     241A      1.015996   242A      1.019302   243A      1.020957  
     244A      1.025322   245A      1.029558   246A      1.042514  
     247A      1.047685   248A      1.049918   249A      1.058239  
     250A      1.062023   251A      1.073842   252A      1.076448  
     253A      1.081850   254A      1.086685   255A      1.088392  
     256A      1.097157   257A      1.103576   258A      1.108377  
     259A      1.109790   260A      1.114218   261A      1.122911  
     262A      1.124533   263A      1.128584   264A      1.134855  
     265A      1.141235   266A      1.147641   267A      1.151477  
     268A      1.159642   269A      1.163568   270A      1.165238  
     271A      1.172160   272A      1.178942   273A      1.184428  
     274A      1.189236   275A      1.197209   276A      1.199286  
     277A      1.201387   278A      1.210304   279A      1.216904  
     280A      1.221033   281A      1.225781   282A      1.235651  
     283A      1.240469   284A      1.242679   285A      1.247206  
     286A      1.250002   287A      1.254321   288A      1.261012  
     289A      1.268222   290A      1.276583   291A      1.280003  
     292A      1.284953   293A      1.293599   294A      1.297700  
     295A      1.301387   296A      1.311179   297A      1.316984  
[...]
	 D(20,18,21,23)   =         1.033440	      59.211730
	 D(20,18,21,24)   =        -3.136162	    -179.688846
	 D(22,21,24,25)   =        -3.037057	    -174.010537
	 D(22,21,24,26)   =        -1.010172	     -57.878598
	 D(23,21,24,25)   =         1.222339	      70.034891
	 D(23,21,24,26)   =        -3.033961	    -173.833170
	 R(9,24)          =         6.871119	       3.636039

	Current energy   :      -314.9839414517

	Energy change for the previous step:
		Projected    :        -0.0000000001
		Actual       :         0.0000000010

	Performing BFGS update.
	Previous computed or guess Hessian on step 1.
	Denominators (dg)(dq) or (dq)(dq) are very small.
	 Skipping Hessian update for step 13.
	Denominators (dg)(dq) or (dq)(dq) are very small.
	 Skipping Hessian update for step 12.
	Denominators (dg)(dq) or (dq)(dq) are very small.
	 Skipping Hessian update for step 11.
	Denominators (dg)(dq) or (dq)(dq) are very small.
	 Skipping Hessian update for step 10.
	Denominators (dg)(dq) or (dq)(dq) are very small.
	 Skipping Hessian update for step 9.
	Denominators (dg)(dq) or (dq)(dq) are very small.
	 Skipping Hessian update for step 8.
	Denominators (dg)(dq) or (dq)(dq) are very small.
	 Skipping Hessian update for step 7.
	Denominators (dg)(dq) or (dq)(dq) are very small.
	 Skipping Hessian update for step 6.
	Denominators (dg)(dq) or (dq)(dq) are very small.
	 Skipping Hessian update for step 5.
	Denominators (dg)(dq) or (dq)(dq) are very small.
	 Skipping Hessian update for step 4.
	Denominators (dg)(dq) or (dq)(dq) are very small.
	 Skipping Hessian update for step 3.
	Denominators (dg)(dq) or (dq)(dq) are very small.
	 Skipping Hessian update for step 2.
	Steps to be used in Hessian update: 1
	Taking RFO optimization step.
	Going to follow RFO solution 1.
	Rejecting RFO root 1 because normalization gives large value.
	Using RFO vector 2.
	Norm of target step-size    0.00002
	Projected energy change by RFO approximation:        -0.0000000000

	Back-transformation to cartesian coordinates...
	Successfully converged to displaced geometry.

	--- Internal Coordinate Step in ANG or DEG, aJ/ANG or AJ/DEG ---
	 ---------------------------------------------------------------------------
	   Coordinate                Previous        Force       Change         New 
	   ----------                --------       ------       ------       ------
	    1 R(1,2)          =      1.090692    -0.000001     0.000000     1.090692
	    2 R(1,3)          =      1.090913    -0.000001    -0.000000     1.090913
	    3 R(1,4)          =      1.089742    -0.000000     0.000000     1.089742
	    4 R(1,9)          =      1.523903    -0.000000     0.000000     1.523903
	    5 R(5,6)          =      1.091590    -0.000000     0.000000     1.091590
	    6 R(5,7)          =      1.089755    -0.000000     0.000000     1.089755
	    7 R(5,8)          =      1.089304     0.000000     0.000000     1.089304
	    8 R(5,12)         =      1.525160     0.000000     0.000000     1.525160
	    9 R(9,10)         =      1.093984     0.000000     0.000000     1.093984
	   10 R(9,11)         =      1.092559    -0.000000     0.000000     1.092559
	   11 R(9,15)         =      1.524101    -0.000001    -0.000000     1.524101
	   12 R(12,13)        =      1.092271    -0.000002    -0.000000     1.092271
	   13 R(12,14)        =      1.093514    -0.000001    -0.000000     1.093514
	   14 R(12,24)        =      1.527045     0.000001     0.000000     1.527045
	   15 R(15,16)        =      1.093602    -0.000001     0.000000     1.093602
	   16 R(15,17)        =      1.093957    -0.000000     0.000000     1.093957
	   17 R(15,18)        =      1.528290    -0.000001    -0.000000     1.528290
	   18 R(18,19)        =      1.093846     0.000000     0.000000     1.093846
	   19 R(18,20)        =      1.093872     0.000000     0.000000     1.093872
	   20 R(18,21)        =      1.528498     0.000001     0.000000     1.528498
	   21 R(21,22)        =      1.091770     0.000001     0.000000     1.091771
	   22 R(21,23)        =      1.094453     0.000001     0.000000     1.094454
	   23 R(21,24)        =      1.525003    -0.000001    -0.000000     1.525003
	   24 R(24,25)        =      1.094499    -0.000001    -0.000000     1.094499
	   25 R(24,26)        =      1.094276    -0.000001    -0.000000     1.094276
	   26 B(1,9,10)       =    109.864301     0.000000     0.000003   109.864304
	   27 B(1,9,11)       =    109.345391     0.000000    -0.000009   109.345382
	   28 B(1,9,15)       =    112.030457    -0.000000    -0.000009   112.030448
	   29 B(2,1,3)        =    107.670786    -0.000000    -0.000003   107.670783
	   30 B(2,1,4)        =    107.972398     0.000000    -0.000002   107.972395
	   31 B(2,1,9)        =    110.789191     0.000000     0.000002   110.789193
	   32 B(3,1,4)        =    107.900297     0.000000     0.000002   107.900299
	   33 B(3,1,9)        =    110.646204     0.000000     0.000007   110.646211
	   34 B(4,1,9)        =    111.708561    -0.000000    -0.000007   111.708555
	   35 B(5,12,13)      =    109.155623     0.000000     0.000022   109.155645
	   36 B(5,12,14)      =    109.649816     0.000000    -0.000002   109.649814
	   37 B(5,12,24)      =    113.058411    -0.000000    -0.000015   113.058396
	   38 B(6,5,7)        =    107.851495    -0.000000    -0.000003   107.851492
	   39 B(6,5,8)        =    107.828154    -0.000000    -0.000010   107.828145
	   40 B(6,5,12)       =    110.565291    -0.000000     0.000001   110.565291
	   41 B(7,5,8)        =    107.612897    -0.000000    -0.000007   107.612890
	   42 B(7,5,12)       =    111.231279     0.000000     0.000016   111.231295
	   43 B(8,5,12)       =    111.589002     0.000000     0.000002   111.589005
	   44 B(9,15,16)      =    109.093595     0.000000     0.000019   109.093614
	   45 B(9,15,17)      =    108.779578     0.000000    -0.000015   108.779563
	   46 B(9,15,18)      =    113.781196    -0.000000    -0.000007   113.781189
	   47 B(10,9,11)      =    106.459179     0.000000     0.000006   106.459185
	   48 B(10,9,15)      =    109.170330     0.000000     0.000012   109.170342
	   49 B(11,9,15)      =    109.815340     0.000000    -0.000003   109.815337
	   50 B(12,24,21)     =    113.453605     0.000000     0.000037   113.453642
	   51 B(12,24,25)     =    109.400811    -0.000000    -0.000024   109.400787
	   52 B(12,24,26)     =    108.725433    -0.000000    -0.000014   108.725419
	   53 B(13,12,14)     =    106.532344    -0.000000    -0.000004   106.532341
	   54 B(13,12,24)     =    109.063171    -0.000000    -0.000002   109.063169
	   55 B(14,12,24)     =    109.170594     0.000000     0.000002   109.170596
	   56 B(15,18,19)     =    109.035393    -0.000000     0.000003   109.035396
	   57 B(15,18,20)     =    108.814515    -0.000000     0.000010   108.814525
	   58 B(15,18,21)     =    114.225820     0.000000     0.000002   114.225822
	   59 B(16,15,17)     =    106.081439    -0.000000    -0.000013   106.081426
	   60 B(16,15,18)     =    109.984420     0.000000     0.000016   109.984436
	   61 B(17,15,18)     =    108.828043     0.000000    -0.000002   108.828041
	   62 B(18,21,22)     =    109.486186    -0.000000    -0.000004   109.486183
	   63 B(18,21,23)     =    108.881998    -0.000000    -0.000013   108.881984
	   64 B(18,21,24)     =    113.254154     0.000000     0.000010   113.254164
	   65 B(19,18,20)     =    106.555270     0.000000    -0.000002   106.555268
	   66 B(19,18,21)     =    108.895232     0.000000     0.000000   108.895233
	   67 B(20,18,21)     =    109.037638    -0.000000    -0.000015   109.037623
	   68 B(21,24,25)     =    108.706510    -0.000000    -0.000009   108.706501
	   69 B(21,24,26)     =    109.852035     0.000000     0.000046   109.852082
	   70 B(22,21,23)     =    106.240422     0.000000     0.000017   106.240439
	   71 B(22,21,24)     =    109.989542    -0.000000    -0.000005   109.989538
	   72 B(23,21,24)     =    108.738980    -0.000000    -0.000006   108.738974
	   73 B(25,24,26)     =    106.467252    -0.000000    -0.000041   106.467211
	   74 D(1,9,15,16)    =     61.103710    -0.000000     0.000164    61.103874
	   75 D(1,9,15,17)    =    -54.193617     0.000000     0.000177   -54.193440
	   76 D(1,9,15,18)    =   -175.683114     0.000000     0.000194  -175.682920
	   77 D(2,1,9,10)     =    -61.526305     0.000000     0.000015   -61.526290
	   78 D(2,1,9,11)     =   -178.021809    -0.000000     0.000011  -178.021798
	   79 D(2,1,9,15)     =     59.997171     0.000000     0.000027    59.997198
	   80 D(3,1,9,10)     =    179.131747     0.000000     0.000012   179.131759
	   81 D(3,1,9,11)     =     62.636242    -0.000000     0.000008    62.636250
	   82 D(3,1,9,15)     =    -59.344778     0.000000     0.000024   -59.344754
	   83 D(4,1,9,10)     =     58.897244     0.000000     0.000009    58.897253
	   84 D(4,1,9,11)     =    -57.598261    -0.000000     0.000005   -57.598256
	   85 D(4,1,9,15)     =   -179.579280     0.000000     0.000021  -179.579259
	   86 D(5,12,24,21)   =    -63.890401    -0.000000     0.000239   -63.890162
	   87 D(5,12,24,25)   =    174.546329    -0.000000     0.000244   174.546572
	   88 D(5,12,24,26)   =     58.652382     0.000000     0.000314    58.652696
	   89 D(6,5,12,13)    =     65.865846     0.000000     0.000050    65.865896
	   90 D(6,5,12,14)    =   -177.781450     0.000000     0.000057  -177.781393
	   91 D(6,5,12,24)    =    -55.711174     0.000000     0.000047   -55.711127
	   92 D(7,5,12,13)    =    -53.937030    -0.000000     0.000043   -53.936986
	   93 D(7,5,12,14)    =     62.415675     0.000000     0.000050    62.415725
	   94 D(7,5,12,24)    =   -175.514049     0.000000     0.000040  -175.514009
	   95 D(8,5,12,13)    =   -174.125182    -0.000000     0.000040  -174.125142
	   96 D(8,5,12,14)    =    -57.772478     0.000000     0.000047   -57.772431
	   97 D(8,5,12,24)    =     64.297798     0.000000     0.000037    64.297835
	   98 D(9,15,18,19)   =   -179.108577    -0.000000     0.000005  -179.108571
	   99 D(9,15,18,20)   =     65.043173     0.000000     0.000000    65.043173
	  100 D(9,15,18,21)   =    -57.042448     0.000000     0.000010   -57.042438
	  101 D(10,9,15,16)   =   -176.974878    -0.000000     0.000170  -176.974708
	  102 D(10,9,15,17)   =     67.727795     0.000000     0.000183    67.727979
	  103 D(10,9,15,18)   =    -53.761702     0.000000     0.000200   -53.761501
	  104 D(11,9,15,16)   =    -60.608195     0.000000     0.000183   -60.608012
	  105 D(11,9,15,17)   =   -175.905521     0.000000     0.000196  -175.905325
	  106 D(11,9,15,18)   =     62.604982     0.000000     0.000213    62.605195
	  107 D(12,24,21,18)  =   -173.095838     0.000000     0.000175  -173.095662
	  108 D(12,24,21,22)  =     64.038790     0.000000     0.000176    64.038966
	  109 D(12,24,21,23)  =    -51.915781     0.000000     0.000161   -51.915620
	  110 D(13,12,24,21)  =    174.480520    -0.000000     0.000223   174.480742
	  111 D(13,12,24,25)  =     52.917249    -0.000000     0.000227    52.917476
	  112 D(13,12,24,26)  =    -62.976698     0.000000     0.000297   -62.976400
	  113 D(14,12,24,21)  =     58.447971    -0.000000     0.000227    58.448198
	  114 D(14,12,24,25)  =    -63.115299    -0.000000     0.000231   -63.115068
	  115 D(14,12,24,26)  =   -179.009246     0.000000     0.000302  -179.008944
	  116 D(15,18,21,22)  =     65.417887    -0.000000    -0.000170    65.417717
	  117 D(15,18,21,23)  =   -178.824968    -0.000000    -0.000159  -178.825127
	  118 D(15,18,21,24)  =    -57.725544    -0.000000    -0.000169   -57.725713
	  119 D(16,15,18,19)  =    -56.382789    -0.000000     0.000037   -56.382752
	  120 D(16,15,18,20)  =   -172.231040     0.000000     0.000032  -172.231007
	  121 D(16,15,18,21)  =     65.683340     0.000000     0.000042    65.683382
	  122 D(17,15,18,19)  =     59.428881     0.000000     0.000030    59.428911
	  123 D(17,15,18,20)  =    -56.419369     0.000000     0.000025   -56.419344
	  124 D(17,15,18,21)  =   -178.504990     0.000000     0.000035  -178.504955
	  125 D(18,21,24,25)  =    -51.145165     0.000000     0.000162   -51.145003
	  126 D(18,21,24,26)  =     64.986774     0.000000     0.000133    64.986907
	  127 D(19,18,21,22)  =   -172.439214     0.000000    -0.000164  -172.439378
	  128 D(19,18,21,23)  =    -56.682069     0.000000    -0.000152   -56.682222
	  129 D(19,18,21,24)  =     64.417355     0.000000    -0.000162    64.417193
	  130 D(20,18,21,22)  =    -56.545415    -0.000000    -0.000174   -56.545590
	  131 D(20,18,21,23)  =     59.211730    -0.000000    -0.000163    59.211567
	  132 D(20,18,21,24)  =   -179.688846    -0.000000    -0.000173  -179.689019
	  133 D(22,21,24,25)  =   -174.010537     0.000000     0.000163  -174.010374
	  134 D(22,21,24,26)  =    -57.878598    -0.000000     0.000134   -57.878464
	  135 D(23,21,24,25)  =     70.034891     0.000000     0.000148    70.035039
	  136 D(23,21,24,26)  =   -173.833170    -0.000000     0.000119  -173.833051
	  137 R(9,24)         =      3.636039     0.000000     0.000003     3.636042
	 ---------------------------------------------------------------------------

  ==> Convergence Check <==

  Measures of convergence in internal coordinates in au.
  Criteria marked as inactive (o), active & met (*), and active & unmet ( ).
  ---------------------------------------------------------------------------------------------
   Step     Total Energy     Delta E     MAX Force     RMS Force      MAX Disp      RMS Disp   
  ---------------------------------------------------------------------------------------------
    Convergence Criteria             o    2.00e-06 *    1.00e-06 *    6.00e-06 *    4.00e-06 *
  ---------------------------------------------------------------------------------------------
     14    -314.98394145    1.01e-09 o    2.29e-07 *    5.53e-08 *    5.48e-06 *    1.83e-06 *  ~
  ---------------------------------------------------------------------------------------------


  **** Optimization is complete! (in 14 steps) ****

  ==> Optimization Summary <==

  Measures of convergence in internal coordinates in au.
  --------------------------------------------------------------------------------------------------------------- ~
   Step         Total Energy             Delta E       MAX Force       RMS Force        MAX Disp        RMS Disp  ~
  --------------------------------------------------------------------------------------------------------------- ~
      1    -314.983941454805   -314.983941454805      0.00000067      0.00000019      0.00007206      0.00001821  ~
      2    -314.983941459844     -0.000000005039      0.00000194      0.00000048      0.00063295      0.00016273  ~
      3    -314.983941448843      0.000000011000      0.00000748      0.00000166      0.00064486      0.00016362  ~
      4    -314.983941448296      0.000000000547      0.00000172      0.00000038      0.00050789      0.00013590  ~
      5    -314.983941450102     -0.000000001806      0.00000759      0.00000147      0.00050361      0.00013745  ~
      6    -314.983941453485     -0.000000003383      0.00000107      0.00000022      0.00003341      0.00001337  ~
      7    -314.983941453584     -0.000000000099      0.00000114      0.00000023      0.00004246      0.00001558  ~
      8    -314.983941452653      0.000000000931      0.00000029      0.00000007      0.00001350      0.00000437  ~
      9    -314.983941452152      0.000000000501      0.00000134      0.00000033      0.00002478      0.00000726  ~
     10    -314.983941446332      0.000000005820      0.00000103      0.00000024      0.00002769      0.00000898  ~
     11    -314.983941453709     -0.000000007377      0.00000098      0.00000022      0.00001617      0.00000600  ~
     12    -314.983941458329     -0.000000004620      0.00000256      0.00000062      0.00003431      0.00000944  ~
     13    -314.983941452736      0.000000005593      0.00000101      0.00000025      0.00002595      0.00000791  ~
     14    -314.983941451729      0.000000001007      0.00000023      0.00000006      0.00000548      0.00000183  ~
  --------------------------------------------------------------------------------------------------------------- ~

	Writing optimization data to binary file.
	Final energy is   -314.9839414517290
	Final (previous) structure:
	Cartesian Geometry (in Angstrom)
	    C     3.0989932915   1.4223993827   0.2464004533
	    H     4.0317952734   0.8583114173   0.2823702833
	    H     2.8290757231   1.6816753209   1.2711014585
	    H     3.2871469603   2.3491632371  -0.2951208154
	    C    -2.8055473701   1.3142118263  -0.4439629570
	    H    -2.1652714958   2.1158922475  -0.0712382884
	    H    -3.8211201934   1.7031095993  -0.5142221941
	    H    -2.4769215809   1.0665642271  -1.4525550014
	    C     1.9950999463   0.6010018201  -0.4085847242
	    H     2.2719034739   0.3613967921  -1.4394924540
	    H     1.0829204925   1.1997691123  -0.4641781518
	    C    -2.7406662286   0.1030200337   0.4806547297
	    H    -3.1748657595   0.3666232889   1.4476292483
	    H    -3.3556276000  -0.7041128067   0.0730625997
	    C     1.7187908735  -0.6923325331   0.3489262220
	    H     1.3900735203  -0.4495398820   1.3633033675
	    H     2.6572467808  -1.2437609047   0.4583289907
	    C     0.6914433489  -1.5970599118  -0.3305554994
	    H     0.5412495746  -2.4900243574   0.2830851977
	    H     1.1003063751  -1.9401656223  -1.2853666952
	    C    -0.6628262583  -0.9329308150  -0.5779291609
	    H    -0.5439908588  -0.1204007170  -1.2973982147
	    H    -1.3337975084  -1.6601880417  -1.0456072107
	    C    -1.3184622897  -0.4097801297   0.6956835400
	    H    -1.3299860206  -1.2123812837   1.4397443754
	    H    -0.7142001372   0.3978727510   1.1199529172
	Saving final (previous) structure.
			--------------------------
			 OPTKING Finished Execution 
			--------------------------

    Final optimized geometry and variables:
    Molecular point group: c1
    Full point group: C1

    Geometry (in Angstrom), charge = 0, multiplicity = 1:

    C            3.098993291522     1.422399382745     0.246400453313
    H            4.031795273405     0.858311417327     0.282370283272
    H            2.829075723140     1.681675320889     1.271101458479
    H            3.287146960314     2.349163237110    -0.295120815439
    C           -2.805547370087     1.314211826343    -0.443962956966
    H           -2.165271495805     2.115892247526    -0.071238288435
    H           -3.821120193409     1.703109599311    -0.514222194068
    H           -2.476921580896     1.066564227076    -1.452555001430
    C            1.995099946338     0.601001820058    -0.408584724183
    H            2.271903473938     0.361396792050    -1.439492454036
    H            1.082920492527     1.199769112325    -0.464178151844
    C           -2.740666228595     0.103020033742     0.480654729677
    H           -3.174865759548     0.366623288881     1.447629248345
    H           -3.355627600037    -0.704112806676     0.073062599700
    C            1.718790873534    -0.692332533138     0.348926222017
    H            1.390073520253    -0.449539881951     1.363303367488
    H            2.657246780824    -1.243760904667     0.458328990686
    C            0.691443348910    -1.597059911752    -0.330555499443
    H            0.541249574628    -2.490024357376     0.283085197737
    H            1.100306375091    -1.940165622278    -1.285366695228
    C           -0.662826258259    -0.932930814969    -0.577929160947
    H           -0.543990858829    -0.120400717010    -1.297398214740
    H           -1.333797508397    -1.660188041711    -1.045607210715
    C           -1.318462289650    -0.409780129737     0.695683539973
    H           -1.329986020589    -1.212381283689     1.439744375406
    H           -0.714200137193     0.397872750989     1.119952917201

	Cleaning optimization helper files.

*** Psi4 exiting successfully. Buy a developer a beer!
