    -----------------------------------------------------------------------
          Psi4: An Open-Source Ab Initio Electronic Structure Package
                              Psi4 1.0.0 Driver

                          Git: Rev {master} 6a9a71b dirty

    J. M. Turney, A. C. Simmonett, R. M. Parrish, E. G. Hohenstein,
    F. A. Evangelista, J. T. Fermann, B. J. Mintz, L. A. Burns, J. J. Wilke,
    M. L. Abrams, N. J. Russ, M. L. Leininger, C. L. Janssen, E. T. Seidl,
    W. D. Allen, H. F. Schaefer, R. A. King, E. F. Valeev, C. D. Sherrill,
    and T. D. Crawford, WIREs Comput. Mol. Sci. 2, 556-565 (2012)
    (doi: 10.1002/wcms.93)

                         Additional Contributions by
    A. E. DePrince, U. Bozkaya, A. Yu. Sokolov, D. G. A. Smith, R. Di Remigio,
    R. M. Richard, J. F. Gonthier, H. R. McAlexander, M. Saitow, and
    B. P. Pritchard
    -----------------------------------------------------------------------


    Psi4 started on: Wed Sep 21 04:57:33 2016

    Process ID:  35591
    PSI4DATADIR: /usr/local/hpc5/psi4conda/share/psi4
    Memory level set to 256.000 MB

  ==> Input File <==

--------------------------------------------------------------------------
memory 60 Gb

molecule molecule_80_psi {
0 1
C           -2.499580313840     1.523368036632    -0.073188601498
H           -1.702933013139     1.590937722193    -0.813980921843
H           -2.098967146673     1.865793997474     0.882224199283
H           -3.287384485310     2.214135141152    -0.373615766080
C            3.416052500891     0.150722796693     0.918769921637
H            4.304807243344     0.739709279648     1.144031048902
H            3.708850452634    -0.900307995162     0.892016990078
H            2.716713362489     0.281195408036     1.743615569152
C           -3.036096601308     0.100889353079     0.039204710612
H           -3.406789667976    -0.221846710086    -0.937662017488
H           -3.895814735099     0.093344314879     0.713362121364
C            2.799697039616     0.570131779865    -0.411596780300
H            2.478255042409     1.613805836923    -0.354428043655
H            3.563623970010     0.523687810418    -1.190905724847
C           -2.011383590455    -0.919996942589     0.533080424760
H           -2.506657022905    -1.890799860472     0.602049845582
H           -1.702227613618    -0.660290508017     1.550644723414
C           -0.766277826126    -1.037608857229    -0.357334459076
H           -1.024373450126    -0.749068329406    -1.382055666381
H           -0.446072353418    -2.081438667459    -0.409528899913
C            0.421795316178    -0.206562948095     0.120490279195
H            0.129535816403     0.840688533990     0.233007932586
H            0.706748086308    -0.556465862283     1.116077612735
C            1.612195089684    -0.295485393739    -0.826897943212
H            1.935158369443    -1.339255717806    -0.902471108631
H            1.284782224267     0.000009665321    -1.828067303309
}

set globals {
  reference rhf
  g_convergence gau_verytight
  basis aug-cc-pvtz
  freeze_core true
  scf_type df
  mp_type df
}
optimize('mp2')
--------------------------------------------------------------------------
/usr/local/hpc5/psi4conda/lib/python2.7/site-packages/v2rdm_casscf/v2rdm_casscf.so loaded.

  Memory set to  60.000 GiB by Python script.
gradient() will perform analytic gradient computation.

*** tstart() called on wr36
*** at Wed Sep 21 04:57:34 2016


         ---------------------------------------------------------
                                   SCF
            by Justin Turney, Rob Parrish, and Andy Simmonett
                              RHF Reference
                       12 Threads,  60000 MiB Core
         ---------------------------------------------------------

  ==> Geometry <==

    Molecular point group: c1
    Full point group: C1

    Geometry (in Angstrom), charge = 0, multiplicity = 1:

       Center              X                  Y                   Z               Mass       
    ------------   -----------------  -----------------  -----------------  -----------------
           C         -2.499580313840     1.523368036632    -0.073188601498    12.000000000000
           H         -1.702933013139     1.590937722193    -0.813980921843     1.007825032070
           H         -2.098967146673     1.865793997474     0.882224199283     1.007825032070
           H         -3.287384485310     2.214135141152    -0.373615766080     1.007825032070
           C          3.416052500891     0.150722796693     0.918769921637    12.000000000000
           H          4.304807243344     0.739709279648     1.144031048902     1.007825032070
           H          3.708850452634    -0.900307995162     0.892016990078     1.007825032070
           H          2.716713362489     0.281195408036     1.743615569152     1.007825032070
           C         -3.036096601308     0.100889353079     0.039204710612    12.000000000000
           H         -3.406789667976    -0.221846710086    -0.937662017488     1.007825032070
           H         -3.895814735099     0.093344314879     0.713362121364     1.007825032070
           C          2.799697039616     0.570131779865    -0.411596780300    12.000000000000
           H          2.478255042409     1.613805836923    -0.354428043655     1.007825032070
           H          3.563623970010     0.523687810418    -1.190905724847     1.007825032070
           C         -2.011383590455    -0.919996942589     0.533080424760    12.000000000000
           H         -2.506657022905    -1.890799860472     0.602049845582     1.007825032070
           H         -1.702227613618    -0.660290508017     1.550644723414     1.007825032070
           C         -0.766277826126    -1.037608857229    -0.357334459076    12.000000000000
           H         -1.024373450126    -0.749068329406    -1.382055666381     1.007825032070
           H         -0.446072353418    -2.081438667459    -0.409528899913     1.007825032070
           C          0.421795316178    -0.206562948095     0.120490279195    12.000000000000
           H          0.129535816403     0.840688533990     0.233007932586     1.007825032070
           H          0.706748086308    -0.556465862283     1.116077612735     1.007825032070
           C          1.612195089684    -0.295485393739    -0.826897943212    12.000000000000
           H          1.935158369443    -1.339255717806    -0.902471108631     1.007825032070
           H          1.284782224267     0.000009665321    -1.828067303309     1.007825032070

  Running in c1 symmetry.

  Rotational constants: A =      0.13002  B =      0.02498  C =      0.02363 [cm^-1]
  Rotational constants: A =   3897.82432  B =    748.81779  C =    708.45112 [MHz]
  Nuclear repulsion =  393.250758281827473

  Charge       = 0
  Multiplicity = 1
  Electrons    = 66
  Nalpha       = 33
  Nbeta        = 33

  ==> Algorithm <==

  SCF Algorithm Type is DF.
  DIIS enabled.
  MOM disabled.
  Fractional occupation disabled.
  Guess Type is SAD.
  Energy threshold   = 1.00e-10
  Density threshold  = 1.00e-10
  Integral threshold = 0.00e+00

  ==> Primary Basis <==

  Basis Set: AUG-CC-PVTZ
    Number of shells: 274
    Number of basis function: 782
    Number of Cartesian functions: 890
    Spherical Harmonics?: true
    Max angular momentum: 3

  ==> Pre-Iterations <==

   -------------------------------------------------------
    Irrep   Nso     Nmo     Nalpha   Nbeta   Ndocc  Nsocc
   -------------------------------------------------------
     A        782     782       0       0       0       0
   -------------------------------------------------------
    Total     782     782      33      33      33       0
   -------------------------------------------------------

  ==> Integral Setup <==

  ==> DFJK: Density-Fitted J/K Matrices <==

    J tasked:                  Yes
    K tasked:                  Yes
    wK tasked:                  No
    OpenMP threads:             12
    Integrals threads:          12
    Memory (MB):             42915
    Algorithm:                Core
    Integral Cache:           NONE
    Schwarz Cutoff:          1E-12
    Fitting Condition:       1E-12

   => Auxiliary Basis Set <=

  Basis Set: 
    Number of shells: 492
    Number of basis function: 1660
    Number of Cartesian functions: 2038
    Spherical Harmonics?: true
    Max angular momentum: 4

  Minimum eigenvalue in the overlap matrix is 2.1057509255E-06.
  Using Symmetric Orthogonalization.
  SCF Guess: Superposition of Atomic Densities via on-the-fly atomic UHF.

  ==> Iterations <==

                           Total Energy        Delta E     RMS |[F,P]|

   @DF-RHF iter   0:  -316.82890488871936   -3.16829e+02   6.95838e-03 
   @DF-RHF iter   1:  -313.28605117854892    3.54285e+00   7.21048e-04 
   @DF-RHF iter   2:  -313.50371729686145   -2.17666e-01   2.70087e-04 DIIS
   @DF-RHF iter   3:  -313.53330944587725   -2.95921e-02   1.04964e-04 DIIS
   @DF-RHF iter   4:  -313.53892605102470   -5.61661e-03   1.44317e-05 DIIS
   @DF-RHF iter   5:  -313.53907451313745   -1.48462e-04   3.95696e-06 DIIS
   @DF-RHF iter   6:  -313.53908348434510   -8.97121e-06   1.22407e-06 DIIS
   @DF-RHF iter   7:  -313.53908422393414   -7.39589e-07   2.34237e-07 DIIS
   @DF-RHF iter   8:  -313.53908425954518   -3.56110e-08   5.81753e-08 DIIS
   @DF-RHF iter   9:  -313.53908426162803   -2.08286e-09   1.72240e-08 DIIS
   @DF-RHF iter  10:  -313.53908426182028   -1.92244e-10   5.19949e-09 DIIS
   @DF-RHF iter  11:  -313.53908426183779   -1.75078e-11   1.22842e-09 DIIS
   @DF-RHF iter  12:  -313.53908426183870   -9.09495e-13   3.79609e-10 DIIS
   @DF-RHF iter  13:  -313.53908426183835    3.41061e-13   1.18311e-10 DIIS
   @DF-RHF iter  14:  -313.53908426183858   -2.27374e-13   2.77747e-11 DIIS

  ==> Post-Iterations <==

    Orbital Energies (a.u.)
    -----------------------

    Doubly Occupied:                                                      

       1A    -11.213236     2A    -11.212683     3A    -11.210581  
       4A    -11.209967     5A    -11.209885     6A    -11.208089  
       7A    -11.207145     8A    -11.206381     9A     -1.092992  
      10A     -1.060976    11A     -1.006705    12A     -0.947032  
      13A     -0.889133    14A     -0.827393    15A     -0.773017  
      16A     -0.770898    17A     -0.647803    18A     -0.622785  
      19A     -0.616744    20A     -0.595668    21A     -0.574093  
      22A     -0.564643    23A     -0.539072    24A     -0.526639  
      25A     -0.517678    26A     -0.498872    27A     -0.491350  
      28A     -0.479215    29A     -0.462427    30A     -0.458469  
      31A     -0.450737    32A     -0.441037    33A     -0.428828  

    Virtual:                                                              

      34A      0.029324    35A      0.032245    36A      0.034439  
      37A      0.035110    38A      0.045819    39A      0.047291  
      40A      0.048556    41A      0.053351    42A      0.057183  
      43A      0.065788    44A      0.067584    45A      0.071270  
      46A      0.072939    47A      0.077231    48A      0.088369  
      49A      0.092080    50A      0.097496    51A      0.103238  
      52A      0.113663    53A      0.114656    54A      0.119429  
      55A      0.124378    56A      0.125931    57A      0.129086  
      58A      0.130790    59A      0.136739    60A      0.141966  
      61A      0.143314    62A      0.146628    63A      0.148859  
      64A      0.153072    65A      0.159646    66A      0.161190  
      67A      0.164186    68A      0.167489    69A      0.171741  
      70A      0.174755    71A      0.181995    72A      0.182566  
      73A      0.187502    74A      0.190448    75A      0.196664  
      76A      0.205184    77A      0.211217    78A      0.219001  
      79A      0.226765    80A      0.234513    81A      0.242387  
      82A      0.250625    83A      0.255131    84A      0.256821  
      85A      0.266473    86A      0.271871    87A      0.279237  
      88A      0.281819    89A      0.289111    90A      0.294096  
      91A      0.304488    92A      0.306646    93A      0.309737  
      94A      0.310875    95A      0.313010    96A      0.321530  
      97A      0.326841    98A      0.329656    99A      0.330363  
     100A      0.332118   101A      0.338041   102A      0.339867  
     103A      0.344854   104A      0.348684   105A      0.351603  
     106A      0.358380   107A      0.362255   108A      0.362735  
     109A      0.367253   110A      0.369194   111A      0.376256  
     112A      0.379930   113A      0.383072   114A      0.388165  
     115A      0.389699   116A      0.394694   117A      0.397139  
     118A      0.402788   119A      0.407583   120A      0.408400  
     121A      0.416834   122A      0.417916   123A      0.423834  
     124A      0.429954   125A      0.434700   126A      0.439476  
     127A      0.441643   128A      0.443927   129A      0.445755  
     130A      0.450500   131A      0.452744   132A      0.455584  
     133A      0.461939   134A      0.469379   135A      0.471787  
     136A      0.474732   137A      0.476170   138A      0.478396  
     139A      0.479949   140A      0.487313   141A      0.489287  
     142A      0.491398   143A      0.497143   144A      0.504381  
     145A      0.506447   146A      0.510910   147A      0.515649  
     148A      0.518415   149A      0.520429   150A      0.523437  
     151A      0.529946   152A      0.536398   153A      0.542034  
     154A      0.548030   155A      0.551160   156A      0.552902  
     157A      0.557825   158A      0.561882   159A      0.563565  
     160A      0.568738   161A      0.572255   162A      0.577009  
     163A      0.578872   164A      0.585455   165A      0.590309  
     166A      0.593912   167A      0.601491   168A      0.611006  
     169A      0.611064   170A      0.613796   171A      0.617306  
     172A      0.620143   173A      0.624586   174A      0.635545  
     175A      0.638997   176A      0.645332   177A      0.647600  
     178A      0.651465   179A      0.654987   180A      0.655943  
     181A      0.667766   182A      0.676629   183A      0.679908  
     184A      0.682576   185A      0.691869   186A      0.698878  
     187A      0.702803   188A      0.709309   189A      0.710875  
     190A      0.713617   191A      0.718894   192A      0.727920  
     193A      0.733202   194A      0.738201   195A      0.752289  
     196A      0.756717   197A      0.769398   198A      0.779043  
     199A      0.781100   200A      0.786204   201A      0.796503  
     202A      0.808444   203A      0.814376   204A      0.823508  
     205A      0.832670   206A      0.836967   207A      0.844489  
     208A      0.851704   209A      0.854218   210A      0.860829  
     211A      0.863761   212A      0.870443   213A      0.873130  
     214A      0.881563   215A      0.886994   216A      0.891497  
     217A      0.897232   218A      0.902406   219A      0.907391  
     220A      0.907944   221A      0.912072   222A      0.921740  
     223A      0.927548   224A      0.928810   225A      0.930097  
     226A      0.939110   227A      0.947563   228A      0.953103  
     229A      0.956919   230A      0.958251   231A      0.968617  
     232A      0.971938   233A      0.980744   234A      0.982799  
     235A      0.986892   236A      0.991956   237A      0.993989  
     238A      0.997957   239A      1.005977   240A      1.008137  
     241A      1.010925   242A      1.015350   243A      1.023855  
     244A      1.031108   245A      1.035048   246A      1.039192  
     247A      1.046054   248A      1.050546   249A      1.056751  
     250A      1.058029   251A      1.064450   252A      1.064853  
     253A      1.070774   254A      1.083193   255A      1.089804  
     256A      1.097342   257A      1.104367   258A      1.105529  
     259A      1.112017   260A      1.118378   261A      1.123571  
     262A      1.125924   263A      1.135878   264A      1.138090  
     265A      1.142876   266A      1.144104   267A      1.148462  
     268A      1.151812   269A      1.158843   270A      1.161251  
     271A      1.168100   272A      1.169345   273A      1.179619  
     274A      1.186311   275A      1.196091   276A      1.199086  
     277A      1.208987   278A      1.212490   279A      1.216676  
     280A      1.218254   281A      1.223576   282A      1.230100  
     283A      1.233384   284A      1.240046   285A      1.246064  
     286A      1.252706   287A      1.257062   288A      1.261907  
     289A      1.266987   290A      1.271045   291A      1.274398  
     292A      1.279303   293A      1.286436   294A      1.291132  
     295A      1.302267   296A      1.310281   297A      1.310706  
     298A      1.320995   299A      1.328963   300A      1.332090  
     301A      1.340328   302A      1.344577   303A      1.350333  
     304A      1.355114   305A      1.360005   306A      1.371815  
     307A      1.376663   308A      1.387300   309A      1.389265  
     310A      1.394679   311A      1.404029   312A      1.406558  
     313A      1.417079   314A      1.428479   315A      1.431563  
     316A      1.439111   317A      1.453934   318A      1.455485  
     319A      1.470815   320A      1.479431   321A      1.490522  
     322A      1.493546   323A      1.496674   324A      1.503203  
     325A      1.506974   326A      1.513686   327A      1.518763  
     328A      1.530981   329A      1.542226   330A      1.544144  
     331A      1.559873   332A      1.560136   333A      1.564445  
     334A      1.572662   335A      1.580551   336A      1.587323  
     337A      1.589892   338A      1.597886   339A      1.604471  
     340A      1.610973   341A      1.618174   342A      1.625826  
     343A      1.637803   344A      1.647132   345A      1.651852  
     346A      1.657894   347A      1.664939   348A      1.670637  
     349A      1.678194   350A      1.682243   351A      1.687266  
     352A      1.698053   353A      1.701225   354A      1.705687  
     355A      1.716638   356A      1.720383   357A      1.723382  
     358A      1.728956   359A      1.740938   360A      1.746004  
     361A      1.750769   362A      1.755075   363A      1.760999  
     364A      1.771495   365A      1.774184   366A      1.778383  
     367A      1.785381   368A      1.788533   369A      1.792660  
     370A      1.801100   371A      1.803651   372A      1.812123  
     373A      1.819942   374A      1.821521   375A      1.822432  
     376A      1.833768   377A      1.843157   378A      1.848920  
     379A      1.855609   380A      1.860764   381A      1.868020  
     382A      1.873884   383A      1.883871   384A      1.887205  
     385A      1.891309   386A      1.898522   387A      1.910133  
     388A      1.917479   389A      1.921235   390A      1.928978  
     391A      1.933818   392A      1.941924   393A      1.950496  
     394A      1.958281   395A      1.961332   396A      1.971249  
     397A      1.974938   398A      1.982820   399A      1.986800  
     400A      1.993896   401A      1.998025   402A      2.002529  
     403A      2.014473   404A      2.024168   405A      2.032565  
     406A      2.038949   407A      2.046060   408A      2.051168  
     409A      2.051420   410A      2.055711   411A      2.060723  
     412A      2.070219   413A      2.080331   414A      2.082232  
     415A      2.093837   416A      2.096796   417A      2.105033  
     418A      2.110900   419A      2.117652   420A      2.120612  
     421A      2.130007   422A      2.138915   423A      2.156790  
     424A      2.158420   425A      2.172783   426A      2.177398  
     427A      2.181112   428A      2.197443   429A      2.210396  
     430A      2.228638   431A      2.235713   432A      2.247733  
     433A      2.254075   434A      2.263022   435A      2.274514  
     436A      2.283393   437A      2.294550   438A      2.295970  
     439A      2.310779   440A      2.316981   441A      2.325507  
     442A      2.327525   443A      2.331135   444A      2.340341  
     445A      2.345721   446A      2.351358   447A      2.355369  
     448A      2.360321   449A      2.374053   450A      2.382967  
     451A      2.404613   452A      2.412288   453A      2.417047  
     454A      2.426614   455A      2.432197   456A      2.440047  
     457A      2.453504   458A      2.467919   459A      2.472478  
     460A      2.486063   461A      2.500353   462A      2.503870  
     463A      2.522291   464A      2.532211   465A      2.549679  
     466A      2.558805   467A      2.567668   468A      2.571662  
     469A      2.580231   470A      2.596172   471A      2.609859  
     472A      2.617685   473A      2.638520   474A      2.658275  
     475A      2.664243   476A      2.674642   477A      2.705190  
     478A      2.724123   479A      2.728851   480A      2.754509  
     481A      2.773526   482A      2.799530   483A      2.834136  
     484A      2.880809   485A      2.928810   486A      2.948454  
     487A      2.978662   488A      3.006494   489A      3.034384  
     490A      3.145374   491A      3.183405   492A      3.204698  
     493A      3.284782   494A      3.319365   495A      3.364068  
     496A      3.403794   497A      3.422724   498A      3.446041  
     499A      3.453041   500A      3.469155   501A      3.486515  
     502A      3.497873   503A      3.505660   504A      3.525570  
     505A      3.533523   506A      3.552039   507A      3.553748  
     508A      3.568384   509A      3.578738   510A      3.593607  
     511A      3.599956   512A      3.612497   513A      3.630935  
     514A      3.643306   515A      3.649926   516A      3.657141  
     517A      3.667338   518A      3.673305   519A      3.688016  
     520A      3.690869   521A      3.707125   522A      3.727290  
     523A      3.729156   524A      3.735314   525A      3.742994  
     526A      3.757528   527A      3.760715   528A      3.764218  
     529A      3.777844   530A      3.785728   531A      3.791862  
     532A      3.803857   533A      3.809545   534A      3.812938  
     535A      3.828294   536A      3.831671   537A      3.840070  
     538A      3.848017   539A      3.853699   540A      3.857157  
     541A      3.872740   542A      3.885009   543A      3.890754  
     544A      3.902364   545A      3.910626   546A      3.915857  
     547A      3.922396   548A      3.926933   549A      3.943627  
     550A      3.944965   551A      3.954911   552A      3.960023  
     553A      3.966027   554A      3.976657   555A      3.979140  
     556A      3.995172   557A      4.002527   558A      4.006216  
     559A      4.013999   560A      4.021263   561A      4.028980  
     562A      4.035649   563A      4.039446   564A      4.040853  
     565A      4.046728   566A      4.062386   567A      4.066140  
     568A      4.079362   569A      4.083739   570A      4.085655  
     571A      4.093210   572A      4.104323   573A      4.113526  
     574A      4.122484   575A      4.123563   576A      4.131285  
     577A      4.149101   578A      4.153694   579A      4.158553  
     580A      4.166623   581A      4.178304   582A      4.190319  
     583A      4.197367   584A      4.215601   585A      4.222852  
     586A      4.233425   587A      4.246567   588A      4.254117  
     589A      4.261597   590A      4.264948   591A      4.276907  
     592A      4.292186   593A      4.293813   594A      4.310706  
     595A      4.318725   596A      4.329817   597A      4.345615  
     598A      4.354098   599A      4.368950   600A      4.373042  
     601A      4.393400   602A      4.400657   603A      4.408568  
     604A      4.420028   605A      4.428420   606A      4.435798  
     607A      4.448038   608A      4.454766   609A      4.466250  
     610A      4.499627   611A      4.505725   612A      4.520534  
     613A      4.528706   614A      4.532727   615A      4.551071  
     616A      4.558995   617A      4.563177   618A      4.582139  
     619A      4.602647   620A      4.608853   621A      4.619530  
     622A      4.638529   623A      4.643935   624A      4.668239  
     625A      4.679002   626A      4.693002   627A      4.699184  
     628A      4.715225   629A      4.721972   630A      4.730525  
     631A      4.744921   632A      4.755813   633A      4.764466  
     634A      4.773341   635A      4.781607   636A      4.789450  
     637A      4.802205   638A      4.809046   639A      4.829389  
     640A      4.843399   641A      4.852196   642A      4.860554  
     643A      4.873175   644A      4.884985   645A      4.894362  
     646A      4.908276   647A      4.919122   648A      4.922553  
     649A      4.934810   650A      4.944975   651A      4.951662  
     652A      4.954769   653A      4.975537   654A      4.980298  
     655A      4.995664   656A      4.997783   657A      5.003849  
     658A      5.023578   659A      5.038825   660A      5.064052  
     661A      5.070217   662A      5.079727   663A      5.098146  
     664A      5.112630   665A      5.120607   666A      5.141588  
     667A      5.153274   668A      5.157035   669A      5.158212  
     670A      5.172707   671A      5.189652   672A      5.195805  
     673A      5.208872   674A      5.215658   675A      5.225143  
     676A      5.256350   677A      5.262329   678A      5.270151  
     679A      5.287493   680A      5.290813   681A      5.303144  
     682A      5.316888   683A      5.322371   684A      5.327347  
     685A      5.335201   686A      5.359828   687A      5.360843  
     688A      5.369420   689A      5.384096   690A      5.401219  
     691A      5.410389   692A      5.425231   693A      5.433541  
     694A      5.436741   695A      5.451196   696A      5.467996  
     697A      5.473686   698A      5.479236   699A      5.498322  
     700A      5.500995   701A      5.521521   702A      5.524875  
     703A      5.528446   704A      5.560848   705A      5.577664  
     706A      5.582906   707A      5.594751   708A      5.611246  
     709A      5.627418   710A      5.634178   711A      5.642198  
     712A      5.655228   713A      5.661745   714A      5.679077  
     715A      5.686543   716A      5.690518   717A      5.705124  
     718A      5.718874   719A      5.727298   720A      5.735591  
     721A      5.743668   722A      5.769061   723A      5.782146  
     724A      5.794519   725A      5.819631   726A      5.831159  
     727A      5.844020   728A      5.857447   729A      5.889002  
     730A      5.897541   731A      5.927167   732A      5.945578  
     733A      5.957419   734A      6.006778   735A      6.020450  
     736A      6.042408   737A      6.054329   738A      6.064869  
     739A      6.090509   740A      6.110252   741A      6.142889  
     742A      6.155790   743A      6.167761   744A      6.201005  
     745A      6.231391   746A      6.240876   747A      6.253641  
     748A      6.270392   749A      6.288864   750A      6.304572  
     751A      6.328657   752A      6.334934   753A      6.340066  
     754A      6.358537   755A      6.369716   756A      6.386983  
     757A      6.403739   758A      6.441181   759A      6.580625  
     760A      6.592582   761A      6.632072   762A      6.669701  
     763A      6.750950   764A      6.765924   765A      6.798961  
     766A      6.808971   767A      6.896395   768A      6.930008  
     769A      6.962726   770A      6.964433   771A      6.993279  
     772A      7.037505   773A      7.053604   774A      7.144121  
     775A     17.905283   776A     18.003330   777A     18.365877  
     778A     18.476583   779A     18.736915   780A     19.091229  
     781A     19.614062   782A     19.672069  

    Final Occupation by Irrep:
              A 
    DOCC [    33 ]

  Energy converged.

  @DF-RHF Final Energy:  -313.53908426183858

   => Energetics <=

    Nuclear Repulsion Energy =            393.2507582818274727
    One-Electron Energy =               -1201.6553386461164337
    Two-Electron Energy =                 494.8654961024506065
    DFT Exchange-Correlation Energy =       0.0000000000000000
    Empirical Dispersion Energy =           0.0000000000000000
    PCM Polarization Energy =               0.0000000000000000
    EFP Energy =                            0.0000000000000000
    Total Energy =                       -313.5390842618382976


  Saving occupied orbitals to File 180.

*** tstop() called on wr36 at Wed Sep 21 04:58:59 2016
Module time:
	user time   =     897.38 seconds =      14.96 minutes
	system time =      11.91 seconds =       0.20 minutes
	total time  =         85 seconds =       1.42 minutes
Total time:
	user time   =     897.38 seconds =      14.96 minutes
	system time =      11.91 seconds =       0.20 minutes
	total time  =         85 seconds =       1.42 minutes


Properties will be evaluated at   0.000000,   0.000000,   0.000000 Bohr

Properties computed using the SCF density matrix

  Nuclear Dipole Moment: (a.u.)
     X:     0.7099      Y:     1.2786      Z:     0.6415

  Electronic Dipole Moment: (a.u.)
     X:    -0.7349      Y:    -1.2906      Z:    -0.6522

  Dipole Moment: (a.u.)
     X:    -0.0250      Y:    -0.0120      Z:    -0.0106     Total:     0.0297

  Dipole Moment: (Debye)
     X:    -0.0634      Y:    -0.0305      Z:    -0.0270     Total:     0.0754


  //>>>>>>>>>>>>>>>>>>>>>>>>>>>>>>>>>>>//
  //               DFMP2               //
  //<<<<<<<<<<<<<<<<<<<<<<<<<<<<<<<<<<<//


*** tstart() called on wr36
*** at Wed Sep 21 04:58:59 2016


*** tstop() called on wr36 at Wed Sep 21 04:58:59 2016
Module time:
	user time   =       4.72 seconds =       0.08 minutes
	system time =       0.22 seconds =       0.00 minutes
	total time  =          0 seconds =       0.00 minutes
Total time:
	user time   =     903.12 seconds =      15.05 minutes
	system time =      12.18 seconds =       0.20 minutes
	total time  =         85 seconds =       1.42 minutes
	 --------------------------------------------------------
	                          DF-MP2                         
	      2nd-Order Density-Fitted Moller-Plesset Theory     
	              RMP2 Wavefunction,  12 Threads             
	                                                         
	        Rob Parrish, Justin Turney, Andy Simmonett,      
	           Ed Hohenstein, and C. David Sherrill          
	 --------------------------------------------------------

   => Auxiliary Basis Set <=

  Basis Set: 
    Number of shells: 476
    Number of basis function: 1676
    Number of Cartesian functions: 2078
    Spherical Harmonics?: true
    Max angular momentum: 4

	 --------------------------------------------------------
	                 NBF =   782, NAUX =  1676
	 --------------------------------------------------------
	   CLASS    FOCC     OCC    AOCC    AVIR     VIR    FVIR
	   PAIRS       8      33      25     749     749       0
	 --------------------------------------------------------

DGAS Warning! /src/lib/libfock/apps.cc:80 is not currently checking restricted

         ------------------------------------------------------------
                                     CPHF                           
                                  Rob Parrish                       
         ------------------------------------------------------------

  ==> Geometry <==

    Molecular point group: c1
    Full point group: C1

    Geometry (in Angstrom), charge = 0, multiplicity = 1:

       Center              X                  Y                   Z               Mass       
    ------------   -----------------  -----------------  -----------------  -----------------
           C         -2.499580313840     1.523368036632    -0.073188601498    12.000000000000
           H         -1.702933013139     1.590937722193    -0.813980921843     1.007825032070
           H         -2.098967146673     1.865793997474     0.882224199283     1.007825032070
           H         -3.287384485310     2.214135141152    -0.373615766080     1.007825032070
           C          3.416052500891     0.150722796693     0.918769921637    12.000000000000
           H          4.304807243344     0.739709279648     1.144031048902     1.007825032070
           H          3.708850452634    -0.900307995162     0.892016990078     1.007825032070
           H          2.716713362489     0.281195408036     1.743615569152     1.007825032070
           C         -3.036096601308     0.100889353079     0.039204710612    12.000000000000
           H         -3.406789667976    -0.221846710086    -0.937662017488     1.007825032070
           H         -3.895814735099     0.093344314879     0.713362121364     1.007825032070
           C          2.799697039616     0.570131779865    -0.411596780300    12.000000000000
           H          2.478255042409     1.613805836923    -0.354428043655     1.007825032070
           H          3.563623970010     0.523687810418    -1.190905724847     1.007825032070
           C         -2.011383590455    -0.919996942589     0.533080424760    12.000000000000
           H         -2.506657022905    -1.890799860472     0.602049845582     1.007825032070
           H         -1.702227613618    -0.660290508017     1.550644723414     1.007825032070
           C         -0.766277826126    -1.037608857229    -0.357334459076    12.000000000000
           H         -1.024373450126    -0.749068329406    -1.382055666381     1.007825032070
           H         -0.446072353418    -2.081438667459    -0.409528899913     1.007825032070
           C          0.421795316178    -0.206562948095     0.120490279195    12.000000000000
           H          0.129535816403     0.840688533990     0.233007932586     1.007825032070
           H          0.706748086308    -0.556465862283     1.116077612735     1.007825032070
           C          1.612195089684    -0.295485393739    -0.826897943212    12.000000000000
           H          1.935158369443    -1.339255717806    -0.902471108631     1.007825032070
           H          1.284782224267     0.000009665321    -1.828067303309     1.007825032070

  Nuclear repulsion =  393.250758281827473
  Reference energy  = -313.539084261838582

  ==> Basis Set <==

  Basis Set: AUG-CC-PVTZ
    Number of shells: 274
    Number of basis function: 782
    Number of Cartesian functions: 890
    Spherical Harmonics?: true
    Max angular momentum: 3

  ==> CGRSolver (by Rob Parrish) <==

   Number of roots    =         1
   Preconditioning    =    JACOBI
   Convergence cutoff =     1E-06
   Maximum iterations =       100

  ==> CPHFRHamiltonian (by Rob Parrish) <== 

  ==> DFJK: Density-Fitted J/K Matrices <==

    J tasked:                  Yes
    K tasked:                  Yes
    wK tasked:                  No
    OpenMP threads:             12
    Integrals threads:          12
    Memory (MB):             42915
    Algorithm:                Core
    Integral Cache:           NONE
    Schwarz Cutoff:          1E-12
    Fitting Condition:       1E-12

   => Auxiliary Basis Set <=

  Basis Set: 
    Number of shells: 492
    Number of basis function: 1660
    Number of Cartesian functions: 2038
    Spherical Harmonics?: true
    Max angular momentum: 4

  ==> CPHF Iterations <==

  => Iterations <=

             Iter  Converged  Remaining    Residual
  CGR           1          0          1   9.125E-02
  CGR           2          0          1   1.281E-02
  CGR           3          0          1   3.202E-03
  CGR           4          0          1   7.831E-04
  CGR           5          0          1   1.940E-04
  CGR           6          0          1   4.133E-05
  CGR           7          0          1   1.193E-05
  CGR           8          0          1   2.821E-06
  CGR           9          1          0   7.299E-07

    CGRSolver converged.

  ==> DFCorrGrad: Density-Fitted Correlated Gradients <==

    OpenMP threads:             12
    Integrals threads:          12
    Memory (MB):             42915
    Schwarz Cutoff:          0E+00
    Fitting Condition:       1E-12

   => Auxiliary Basis Set <=

  Basis Set: 
    Number of shells: 492
    Number of basis function: 1660
    Number of Cartesian functions: 2038
    Spherical Harmonics?: true
    Max angular momentum: 4

	-----------------------------------------------------------
	 ==================> DF-MP2 Energies <==================== 
	-----------------------------------------------------------
	 Reference Energy          =    -313.5390842618385818 [Eh]
	 Singles Energy            =      -0.0000000000000000 [Eh]
	 Same-Spin Energy          =      -0.3161476418209638 [Eh]
	 Opposite-Spin Energy      =      -1.1254027731956548 [Eh]
	 Correlation Energy        =      -1.4415504150166187 [Eh]
	 Total Energy              =    -314.9806346768551748 [Eh]
	-----------------------------------------------------------
	 ================> DF-SCS-MP2 Energies <================== 
	-----------------------------------------------------------
	 SCS Same-Spin Scale       =       0.3333333333333333 [-]
	 SCS Opposite-Spin Scale   =       1.2000000000000000 [-]
	 SCS Same-Spin Energy      =      -0.1053825472736546 [Eh]
	 SCS Opposite-Spin Energy  =      -1.3504833278347859 [Eh]
	 SCS Correlation Energy    =      -1.4558658751084406 [Eh]
	 SCS Total Energy          =    -314.9949501369470113 [Eh]
	-----------------------------------------------------------


  -Total Gradient:
     Atom            X                  Y                   Z
    ------   -----------------  -----------------  -----------------
       1        0.000000238486     0.000000326075    -0.000000081827
       2       -0.000000396549    -0.000000014953     0.000000327774
       3       -0.000000227332    -0.000000195324    -0.000000423939
       4        0.000000212877    -0.000000163117     0.000000070601
       5        0.000000237709    -0.000000057346     0.000000545377
       6       -0.000000534068    -0.000000382496    -0.000000089165
       7       -0.000000263078     0.000000787868    -0.000000053402
       8        0.000000536089    -0.000000057110    -0.000000602423
       9       -0.000000151293    -0.000000185496     0.000000022431
      10        0.000000122076     0.000000121189     0.000000366414
      11        0.000000185922    -0.000000011723    -0.000000203056
      12       -0.000000036470     0.000000505853    -0.000000632373
      13        0.000000232482    -0.000000897767    -0.000000025992
      14       -0.000000568548     0.000000103152     0.000000450250
      15        0.000000123440    -0.000000140438     0.000000397508
      16        0.000000121167     0.000000337091     0.000000047488
      17       -0.000000121212    -0.000000106581    -0.000000607109
      18        0.000000250149    -0.000000338228    -0.000000492617
      19        0.000000192649    -0.000000204810     0.000000675008
      20       -0.000000250433     0.000000608172    -0.000000013559
      21        0.000000167172     0.000000855595     0.000000925359
      22        0.000000672104    -0.000001380153    -0.000000176300
      23       -0.000000346281     0.000000249871    -0.000001092424
      24       -0.000000239679    -0.000000525219    -0.000000535613
      25       -0.000000435932     0.000001082203     0.000000240932
      26        0.000000278552    -0.000000316308     0.000000960656


			-----------------------------------------
			 OPTKING 2.0: for geometry optimizations 
			  - R.A. King,  Bethel University        
			-----------------------------------------

	Internal coordinates to be generated automatically.
	Detected frag 1 with atoms:  1 2 3 4 5 6 7 8 9 10 11 12 13 14 15 16 17 18 19 20
	 21 22 23 24 25 26
	---Fragment 1 Bond Connectivity---
	 1 : 2 3 4 9
	 2 : 1
	 3 : 1
	 4 : 1
	 5 : 6 7 8 12
	 6 : 5
	 7 : 5
	 8 : 5
	 9 : 1 10 11 15
	 10 : 9
	 11 : 9
	 12 : 5 13 14 24
	 13 : 12
	 14 : 12
	 15 : 9 16 17 18
	 16 : 15
	 17 : 15
	 18 : 15 19 20 21
	 19 : 18
	 20 : 18
	 21 : 18 22 23 24
	 22 : 21
	 23 : 21
	 24 : 12 21 25 26
	 25 : 24
	 26 : 24

	---Fragment 1 Geometry and Gradient---
	 C          -4.7235222403        2.8787483888       -0.1383064129
	 H          -3.2180770175        3.0064365894       -1.5382010197
	 H          -3.9664730691        3.5258396756        1.6671621244
	 H          -6.2122563707        4.1841090380       -0.7060314768
	 C           6.4554036822        0.2848248077        1.7362235310
	 H           8.1349067448        1.3978479565        2.1619053699
	 H           7.0087116233       -1.7013355461        1.6856678171
	 H           5.1338442367        0.5313823110        3.2949559067
	 C          -5.7373910895        0.1906532470        0.0740861662
	 H          -6.4378994648       -0.4192295255       -1.7719244183
	 H          -7.3620229138        0.1763951912        1.3480590430
	 C           5.2906606599        1.0773929236       -0.7778051919
	 H           4.6832233176        3.0496510634       -0.6697719363
	 H           6.7342733439        0.9896265408       -2.2504856700
	 C          -3.8009641341       -1.7385422646        1.0073760096
	 H          -4.7368952824       -3.5730939084        1.1377093265
	 H          -3.2167440056       -1.2477682283        2.9302938567
	 C          -1.4480552331       -1.9607965732       -0.6752642655
	 H          -1.9357852785       -1.4155339974       -2.6117067099
	 H          -0.8429545834       -3.9333490439       -0.7738974643
	 C           0.7970776317       -0.3903474011        0.2276936294
	 H           0.2447872174        1.5886710923        0.4403211794
	 H           1.3355603281       -1.0515680820        2.1090810311
	 C           3.0466071923       -0.5583864704       -1.5626106525
	 H           3.6569193420       -2.5308265286       -1.7054232382
	 H           2.4278865443        0.0000182648       -3.4545465557
	             0.0000002385        0.0000003261       -0.0000000818
	            -0.0000003965       -0.0000000150        0.0000003278
	            -0.0000002273       -0.0000001953       -0.0000004239
	             0.0000002129       -0.0000001631        0.0000000706
	             0.0000002377       -0.0000000573        0.0000005454
	            -0.0000005341       -0.0000003825       -0.0000000892
	            -0.0000002631        0.0000007879       -0.0000000534
	             0.0000005361       -0.0000000571       -0.0000006024
	            -0.0000001513       -0.0000001855        0.0000000224
	             0.0000001221        0.0000001212        0.0000003664
	             0.0000001859       -0.0000000117       -0.0000002031
	            -0.0000000365        0.0000005059       -0.0000006324
	             0.0000002325       -0.0000008978       -0.0000000260
	            -0.0000005685        0.0000001032        0.0000004503
	             0.0000001234       -0.0000001404        0.0000003975
	             0.0000001212        0.0000003371        0.0000000475
	            -0.0000001212       -0.0000001066       -0.0000006071
	             0.0000002501       -0.0000003382       -0.0000004926
	             0.0000001926       -0.0000002048        0.0000006750
	            -0.0000002504        0.0000006082       -0.0000000136
	             0.0000001672        0.0000008556        0.0000009254
	             0.0000006721       -0.0000013802       -0.0000001763
	            -0.0000003463        0.0000002499       -0.0000010924
	            -0.0000002397       -0.0000005252       -0.0000005356
	            -0.0000004359        0.0000010822        0.0000002409
	             0.0000002786       -0.0000003163        0.0000009607

	Previous optimization step data not found.  Starting new optimization.

	---Fragment 1 Intrafragment Coordinates---
	 - Coordinate -           - BOHR/RAD -       - ANG/DEG -
	 R(1,2)           =         2.059703	       1.089948
	 R(1,3)           =         2.061933	       1.091128
	 R(1,4)           =         2.059759	       1.089978
	 R(1,9)           =         2.880780	       1.524443
	 R(5,6)           =         2.059310	       1.089740
	 R(5,7)           =         2.062411	       1.091381
	 R(5,8)           =         2.058387	       1.089251
	 R(5,12)          =         2.881862	       1.525016
	 R(9,10)          =         2.066500	       1.093545
	 R(9,11)          =         2.064616	       1.092548
	 R(9,15)          =         2.888352	       1.528450
	 R(12,13)         =         2.066508	       1.093549
	 R(12,14)         =         2.064100	       1.092275
	 R(12,24)         =         2.885736	       1.527065
	 R(15,16)         =         2.063621	       1.092021
	 R(15,17)         =         2.068764	       1.094743
	 R(15,18)         =         2.901182	       1.535239
	 R(18,19)         =         2.070024	       1.095410
	 R(18,20)         =         2.065633	       1.093086
	 R(18,21)         =         2.884834	       1.526588
	 R(21,22)         =         2.065611	       1.093074
	 R(21,23)         =         2.065622	       1.093080
	 R(21,24)         =         2.879898	       1.523976
	 R(24,25)         =         2.069637	       1.095205
	 R(24,26)         =         2.067378	       1.094009
	 B(1,9,10)        =         1.905860	     109.197761
	 B(1,9,11)        =         1.905912	     109.200726
	 B(1,9,15)        =         1.994478	     114.275158
	 B(2,1,3)         =         1.883163	     107.897304
	 B(2,1,4)         =         1.877226	     107.557099
	 B(2,1,9)         =         1.944636	     111.419440
	 B(3,1,4)         =         1.883705	     107.928321
	 B(3,1,9)         =         1.936383	     110.946555
	 B(4,1,9)         =         1.936175	     110.934649
	 B(5,12,13)       =         1.913115	     109.613415
	 B(5,12,14)       =         1.905030	     109.150183
	 B(5,12,24)       =         1.977567	     113.306228
	 B(6,5,7)         =         1.882590	     107.864468
	 B(6,5,8)         =         1.877953	     107.598759
	 B(6,5,12)        =         1.940464	     111.180378
	 B(7,5,8)         =         1.881956	     107.828142
	 B(7,5,12)        =         1.930393	     110.603398
	 B(8,5,12)        =         1.947841	     111.603084
	 B(9,15,16)       =         1.886120	     108.066726
	 B(9,15,17)       =         1.908392	     109.342794
	 B(9,15,18)       =         1.990500	     114.047262
	 B(10,9,11)       =         1.857124	     106.405394
	 B(10,9,15)       =         1.895245	     108.589520
	 B(11,9,15)       =         1.900284	     108.878266
	 B(12,24,21)      =         1.988084	     113.908825
	 B(12,24,25)      =         1.906760	     109.249303
	 B(12,24,26)      =         1.905514	     109.177925
	 B(13,12,14)      =         1.858199	     106.466933
	 B(13,12,24)      =         1.903535	     109.064550
	 B(14,12,24)      =         1.902583	     109.009977
	 B(15,18,19)      =         1.908466	     109.347061
	 B(15,18,20)      =         1.916041	     109.781088
	 B(15,18,21)      =         1.990990	     114.075320
	 B(16,15,17)      =         1.854873	     106.276407
	 B(16,15,18)      =         1.913838	     109.654857
	 B(17,15,18)      =         1.905234	     109.161865
	 B(18,21,22)      =         1.923775	     110.224217
	 B(18,21,23)      =         1.889890	     108.282701
	 B(18,21,24)      =         1.962282	     112.430469
	 B(19,18,20)      =         1.850313	     106.015149
	 B(19,18,21)      =         1.910043	     109.437426
	 B(20,18,21)      =         1.882643	     107.867503
	 B(21,24,25)      =         1.905879	     109.198805
	 B(21,24,26)      =         1.895861	     108.624827
	 B(22,21,23)      =         1.857335	     106.417433
	 B(22,21,24)      =         1.905769	     109.192546
	 B(23,21,24)      =         1.921868	     110.114937
	 B(25,24,26)      =         1.857220	     106.410885
	 D(1,9,15,16)     =         3.114208	     178.430963
	 D(1,9,15,17)     =         1.102291	      63.156636
	 D(1,9,15,18)     =        -1.036061	     -59.361946
	 D(2,1,9,10)      =        -1.018606	     -58.361847
	 D(2,1,9,11)      =        -3.042706	    -174.334215
	 D(2,1,9,15)      =         1.107648	      63.463553
	 D(3,1,9,10)      =        -3.117206	    -178.602742
	 D(3,1,9,11)      =         1.141880	      65.424890
	 D(3,1,9,15)      =        -0.990952	     -56.777342
	 D(4,1,9,10)      =         1.072340	      61.440558
	 D(4,1,9,11)      =        -0.951760	     -54.531810
	 D(4,1,9,15)      =        -3.084591	    -176.734042
	 D(5,12,24,21)    =         1.113221	      63.782857
	 D(5,12,24,25)    =        -1.023059	     -58.616964
	 D(5,12,24,26)    =        -3.047553	    -174.611906
	 D(6,5,12,13)     =        -1.087473	     -62.307589
	 D(6,5,12,14)     =         0.941481	      53.942866
	 D(6,5,12,24)     =         3.065050	     175.614411
	 D(7,5,12,13)     =         3.104615	     177.881338
	 D(7,5,12,14)     =        -1.149617	     -65.868207
	 D(7,5,12,24)     =         0.973952	      55.803338
	 D(8,5,12,13)     =         1.009452	      57.837357
	 D(8,5,12,14)     =         3.038406	     174.087812
	 D(8,5,12,24)     =        -1.121211	     -64.240643
	 D(9,15,18,19)    =        -0.462367	     -26.491655
	 D(9,15,18,20)    =        -2.485445	    -142.405484
	 D(9,15,18,21)    =         1.682649	      96.408664
	 D(10,9,15,16)    =        -1.036907	     -59.410386
	 D(10,9,15,17)    =        -3.048823	    -174.684713
	 D(10,9,15,18)    =         1.096009	      62.796705
	 D(11,9,15,16)    =         0.978303	      56.052636
	 D(11,9,15,17)    =        -1.033613	     -59.221691
	 D(11,9,15,18)    =         3.111219	     178.259728
	 D(12,24,21,18)   =         3.099123	     177.566674
	 D(12,24,21,22)   =         0.958259	      54.904202
	 D(12,24,21,23)   =        -1.075044	     -61.595462
	 D(13,12,24,21)   =        -1.022775	     -58.600670
	 D(13,12,24,25)   =         3.124131	     178.999508
	 D(13,12,24,26)   =         1.099637	      63.004567
	 D(14,12,24,21)   =        -3.045025	    -174.467109
	 D(14,12,24,25)   =         1.101880	      63.133070
	 D(14,12,24,26)   =        -0.922614	     -52.861871
	 D(15,18,21,22)   =        -0.960543	     -55.035048
	 D(15,18,21,23)   =         1.064664	      61.000738
	 D(15,18,21,24)   =        -3.091232	    -177.114520
	 D(16,15,18,19)   =         1.655259	      94.839338
	 D(16,15,18,20)   =        -0.367819	     -21.074491
	 D(16,15,18,21)   =        -2.482911	    -142.260343
	 D(17,15,18,19)   =        -2.602446	    -149.109168
	 D(17,15,18,20)   =         1.657661	      94.977004
	 D(17,15,18,21)   =        -0.457431	     -26.208848
	 D(18,21,24,25)   =        -1.047298	     -60.005773
	 D(18,21,24,26)   =         0.971372	      55.655493
	 D(19,18,21,22)   =         1.183613	      67.816057
	 D(19,18,21,23)   =        -3.074365	    -176.148157
	 D(19,18,21,24)   =        -0.947075	     -54.263415
	 D(20,18,21,22)   =        -3.094061	    -177.276636
	 D(20,18,21,23)   =        -1.068854	     -61.240849
	 D(20,18,21,24)   =         1.058436	      60.643892
	 D(22,21,24,25)   =         3.095023	     177.331756
	 D(22,21,24,26)   =        -1.169492	     -67.006978
	 D(23,21,24,25)   =         1.061720	      60.832092
	 D(23,21,24,26)   =         3.080390	     176.493358
	 R(1,21)          =         6.426349	       3.400678

	Current energy   :      -314.9806346769

	Generating empirical Hessian (Schlegel '84) for each fragment.
	Taking RFO optimization step.
	Going to follow RFO solution 1.
	Using RFO vector 1.
	Norm of target step-size    0.00015
	Projected energy change by RFO approximation:         0.0000000001

	Back-transformation to cartesian coordinates...
	Successfully converged to displaced geometry.

	--- Internal Coordinate Step in ANG or DEG, aJ/ANG or AJ/DEG ---
	 ---------------------------------------------------------------------------
	   Coordinate                Previous        Force       Change         New 
	   ----------                --------       ------       ------       ------
	    1 R(1,2)          =      1.089948     0.000004     0.000001     1.089948
	    2 R(1,3)          =      1.091128     0.000004     0.000001     1.091129
	    3 R(1,4)          =      1.089978     0.000002     0.000000     1.089978
	    4 R(1,9)          =      1.524443     0.000000     0.000000     1.524443
	    5 R(5,6)          =      1.089740     0.000006     0.000001     1.089741
	    6 R(5,7)          =      1.091381     0.000007     0.000001     1.091382
	    7 R(5,8)          =      1.089251     0.000007     0.000001     1.089253
	    8 R(5,12)         =      1.525016     0.000001     0.000000     1.525016
	    9 R(9,10)         =      1.093545     0.000003     0.000001     1.093546
	   10 R(9,11)         =      1.092548     0.000002     0.000000     1.092548
	   11 R(9,15)         =      1.528450     0.000001     0.000000     1.528450
	   12 R(12,13)        =      1.093549     0.000008     0.000001     1.093550
	   13 R(12,14)        =      1.092275     0.000006     0.000001     1.092276
	   14 R(12,24)        =      1.527065     0.000004     0.000001     1.527066
	   15 R(15,16)        =      1.092021     0.000003     0.000001     1.092022
	   16 R(15,17)        =      1.094743     0.000005     0.000001     1.094744
	   17 R(15,18)        =      1.535239     0.000002     0.000001     1.535240
	   18 R(18,19)        =      1.095410     0.000006     0.000001     1.095411
	   19 R(18,20)        =      1.093086     0.000005     0.000001     1.093087
	   20 R(18,21)        =      1.526588     0.000002     0.000001     1.526589
	   21 R(21,22)        =      1.093074     0.000013     0.000002     1.093077
	   22 R(21,23)        =      1.093080     0.000010     0.000002     1.093082
	   23 R(21,24)        =      1.523976     0.000007     0.000002     1.523978
	   24 R(24,25)        =      1.095205     0.000010     0.000002     1.095206
	   25 R(24,26)        =      1.094009     0.000009     0.000002     1.094011
	   26 B(1,9,10)       =    109.197761     0.000000     0.000027   109.197789
	   27 B(1,9,11)       =    109.200726     0.000000    -0.000020   109.200705
	   28 B(1,9,15)       =    114.275158    -0.000000     0.000006   114.275164
	   29 B(2,1,3)        =    107.897304    -0.000000    -0.000014   107.897291
	   30 B(2,1,4)        =    107.557099     0.000000     0.000009   107.557109
	   31 B(2,1,9)        =    111.419440    -0.000000    -0.000023   111.419417
	   32 B(3,1,4)        =    107.928321    -0.000000     0.000009   107.928329
	   33 B(3,1,9)        =    110.946555     0.000000     0.000037   110.946592
	   34 B(4,1,9)        =    110.934649    -0.000000    -0.000018   110.934631
	   35 B(5,12,13)      =    109.613415     0.000000     0.000033   109.613448
	   36 B(5,12,14)      =    109.150183    -0.000000    -0.000046   109.150138
	   37 B(5,12,24)      =    113.306228    -0.000000    -0.000015   113.306214
	   38 B(6,5,7)        =    107.864468    -0.000000    -0.000005   107.864463
	   39 B(6,5,8)        =    107.598759     0.000000     0.000011   107.598769
	   40 B(6,5,12)       =    111.180378    -0.000000    -0.000068   111.180310
	   41 B(7,5,8)        =    107.828142    -0.000000     0.000009   107.828151
	   42 B(7,5,12)       =    110.603398     0.000000     0.000059   110.603457
	   43 B(8,5,12)       =    111.603084    -0.000000    -0.000004   111.603080
	   44 B(9,15,16)      =    108.066726     0.000000    -0.000007   108.066719
	   45 B(9,15,17)      =    109.342794    -0.000000     0.000005   109.342798
	   46 B(9,15,18)      =    114.047262    -0.000000     0.000045   114.047307
	   47 B(10,9,11)      =    106.405394    -0.000000     0.000018   106.405412
	   48 B(10,9,15)      =    108.589520     0.000000     0.000005   108.589526
	   49 B(11,9,15)      =    108.878266     0.000000    -0.000035   108.878231
	   50 B(12,24,21)     =    113.908825    -0.000000    -0.000028   113.908797
	   51 B(12,24,25)     =    109.249303    -0.000000    -0.000099   109.249204
	   52 B(12,24,26)     =    109.177925     0.000000     0.000065   109.177989
	   53 B(13,12,14)     =    106.466933    -0.000000     0.000008   106.466941
	   54 B(13,12,24)     =    109.064550     0.000000     0.000027   109.064577
	   55 B(14,12,24)     =    109.009977     0.000000    -0.000006   109.009971
	   56 B(15,18,19)     =    109.347061     0.000000     0.000040   109.347101
	   57 B(15,18,20)     =    109.781088    -0.000000    -0.000051   109.781036
	   58 B(15,18,21)     =    114.075320    -0.000000     0.000019   114.075339
	   59 B(16,15,17)     =    106.276407    -0.000000    -0.000020   106.276388
	   60 B(16,15,18)     =    109.654857    -0.000000    -0.000057   109.654800
	   61 B(17,15,18)     =    109.161865     0.000000     0.000029   109.161894
	   62 B(18,21,22)     =    110.224217    -0.000000    -0.000076   110.224141
	   63 B(18,21,23)     =    108.282701    -0.000000    -0.000043   108.282658
	   64 B(18,21,24)     =    112.430469     0.000000     0.000113   112.430582
	   65 B(19,18,20)     =    106.015149     0.000000     0.000022   106.015171
	   66 B(19,18,21)     =    109.437426     0.000000     0.000048   109.437474
	   67 B(20,18,21)     =    107.867503    -0.000000    -0.000078   107.867425
	   68 B(21,24,25)     =    109.198805     0.000000     0.000041   109.198846
	   69 B(21,24,26)     =    108.624827     0.000000     0.000054   108.624880
	   70 B(22,21,23)     =    106.417433     0.000000    -0.000048   106.417385
	   71 B(22,21,24)     =    109.192546     0.000000     0.000122   109.192668
	   72 B(23,21,24)     =    110.114937    -0.000000    -0.000080   110.114856
	   73 B(25,24,26)     =    106.410885    -0.000000    -0.000032   106.410854
	   74 D(1,9,15,16)    =    178.430963     0.000000     0.000190   178.431152
	   75 D(1,9,15,17)    =     63.156636     0.000000     0.000214    63.156850
	   76 D(1,9,15,18)    =    -59.361946    -0.000000     0.000141   -59.361805
	   77 D(2,1,9,10)     =    -58.361847     0.000000     0.000054   -58.361793
	   78 D(2,1,9,11)     =   -174.334215    -0.000000     0.000028  -174.334186
	   79 D(2,1,9,15)     =     63.463553     0.000000     0.000085    63.463639
	   80 D(3,1,9,10)     =   -178.602742     0.000000     0.000062  -178.602680
	   81 D(3,1,9,11)     =     65.424890    -0.000000     0.000036    65.424926
	   82 D(3,1,9,15)     =    -56.777342     0.000000     0.000093   -56.777248
	   83 D(4,1,9,10)     =     61.440558     0.000000     0.000038    61.440596
	   84 D(4,1,9,11)     =    -54.531810    -0.000000     0.000013   -54.531797
	   85 D(4,1,9,15)     =   -176.734042     0.000000     0.000070  -176.733972
	   86 D(5,12,24,21)   =     63.782857     0.000000    -0.000714    63.782143
	   87 D(5,12,24,25)   =    -58.616964    -0.000000    -0.000673   -58.617637
	   88 D(5,12,24,26)   =   -174.611906     0.000000    -0.000616  -174.612522
	   89 D(6,5,12,13)    =    -62.307589     0.000000     0.000380   -62.307209
	   90 D(6,5,12,14)    =     53.942866     0.000000     0.000382    53.943248
	   91 D(6,5,12,24)    =    175.614411     0.000000     0.000332   175.614743
	   92 D(7,5,12,13)    =    177.881338     0.000000     0.000392   177.881730
	   93 D(7,5,12,14)    =    -65.868207     0.000000     0.000394   -65.867813
	   94 D(7,5,12,24)    =     55.803338     0.000000     0.000344    55.803682
	   95 D(8,5,12,13)    =     57.837357    -0.000000     0.000344    57.837701
	   96 D(8,5,12,14)    =    174.087812    -0.000000     0.000346   174.088158
	   97 D(8,5,12,24)    =    -64.240643    -0.000000     0.000295   -64.240347
	   98 D(9,15,18,19)   =    -26.491655    -0.000000    -0.000585   -26.492240
	   99 D(9,15,18,20)   =   -142.405484    -0.000000    -0.000605  -142.406089
	  100 D(9,15,18,21)   =     96.408664    -0.000000    -0.000479    96.408185
	  101 D(10,9,15,16)   =    -59.410386     0.000000     0.000233   -59.410153
	  102 D(10,9,15,17)   =   -174.684713     0.000000     0.000258  -174.684456
	  103 D(10,9,15,18)   =     62.796705    -0.000000     0.000185    62.796890
	  104 D(11,9,15,16)   =     56.052636     0.000000     0.000239    56.052875
	  105 D(11,9,15,17)   =    -59.221691     0.000000     0.000263   -59.221428
	  106 D(11,9,15,18)   =    178.259728     0.000000     0.000190   178.259918
	  107 D(12,24,21,18)  =    177.566674     0.000000     0.002598   177.569272
	  108 D(12,24,21,22)  =     54.904202     0.000000     0.002531    54.906733
	  109 D(12,24,21,23)  =    -61.595462     0.000000     0.002563   -61.592898
	  110 D(13,12,24,21)  =    -58.600670    -0.000000    -0.000765   -58.601435
	  111 D(13,12,24,25)  =    178.999508    -0.000000    -0.000725   178.998784
	  112 D(13,12,24,26)  =     63.004567     0.000000    -0.000668    63.003899
	  113 D(14,12,24,21)  =   -174.467109    -0.000000    -0.000786  -174.467895
	  114 D(14,12,24,25)  =     63.133070    -0.000000    -0.000745    63.132324
	  115 D(14,12,24,26)  =    -52.861871    -0.000000    -0.000689   -52.862560
	  116 D(15,18,21,22)  =    -55.035048     0.000000    -0.001023   -55.036072
	  117 D(15,18,21,23)  =     61.000738    -0.000000    -0.001147    60.999592
	  118 D(15,18,21,24)  =   -177.114520    -0.000000    -0.001205  -177.115725
	  119 D(16,15,18,19)  =     94.839338    -0.000000    -0.000606    94.838732
	  120 D(16,15,18,20)  =    -21.074491    -0.000000    -0.000626   -21.075117
	  121 D(16,15,18,21)  =   -142.260343     0.000000    -0.000500  -142.260843
	  122 D(17,15,18,19)  =   -149.109168    -0.000000    -0.000645  -149.109813
	  123 D(17,15,18,20)  =     94.977004    -0.000000    -0.000665    94.976339
	  124 D(17,15,18,21)  =    -26.208848     0.000000    -0.000539   -26.209387
	  125 D(18,21,24,25)  =    -60.005773     0.000000     0.002481   -60.003292
	  126 D(18,21,24,26)  =     55.655493     0.000000     0.002495    55.657988
	  127 D(19,18,21,22)  =     67.816057     0.000000    -0.000922    67.815135
	  128 D(19,18,21,23)  =   -176.148157    -0.000000    -0.001045  -176.149202
	  129 D(19,18,21,24)  =    -54.263415    -0.000000    -0.001103   -54.264518
	  130 D(20,18,21,22)  =   -177.276636     0.000000    -0.000913  -177.277549
	  131 D(20,18,21,23)  =    -61.240849    -0.000000    -0.001037   -61.241886
	  132 D(20,18,21,24)  =     60.643892    -0.000000    -0.001095    60.642798
	  133 D(22,21,24,25)  =    177.331756     0.000000     0.002413   177.334169
	  134 D(22,21,24,26)  =    -67.006978     0.000000     0.002427   -67.004551
	  135 D(23,21,24,25)  =     60.832092     0.000000     0.002446    60.834538
	  136 D(23,21,24,26)  =    176.493358     0.000000     0.002460   176.495818
	  137 R(1,21)         =      3.400678    -0.000000    -0.000007     3.400671
	 ---------------------------------------------------------------------------

  ==> Convergence Check <==

  Measures of convergence in internal coordinates in au.
  Criteria marked as inactive (o), active & met (*), and active & unmet ( ).
  --------------------------------------------------------------------------------------------- ~
   Step     Total Energy     Delta E     MAX Force     RMS Force      MAX Disp      RMS Disp    ~
  --------------------------------------------------------------------------------------------- ~
    Convergence Criteria             o    2.00e-06 *    1.00e-06 *    6.00e-06 *    4.00e-06 *  ~
  --------------------------------------------------------------------------------------------- ~
      1    -314.98063468   -3.15e+02 o    1.52e-06 *    3.13e-07 *    4.53e-05      1.30e-05    ~
  ---------------------------------------------------------------------------------------------

	Writing optimization data to binary file.
	Structure for next step:
	Cartesian Geometry (in Angstrom)
	    C    -2.4995981555   1.5233618096  -0.0731888796
	    H    -1.7029594196   1.5909351544  -0.8139912146
	    H    -2.0989766578   1.8657965668   0.8822181633
	    H    -3.2874126082   2.2141202458  -0.3736105291
	    C     3.4160425568   0.1507000911   0.9187812924
	    H     4.3048047498   0.7396715959   1.1440571284
	    H     3.7088232742  -0.9003368695   0.8920317630
	    H     2.7166918094   0.2811840376   1.7436168867
	    C    -3.0361000565   0.1008785506   0.0392169521
	    H    -3.4068007582  -0.2218663096  -0.9376446469
	    H    -3.8958110305   0.0933290548   0.7133841459
	    C     2.7997158371   0.5701229206  -0.4115947071
	    H     2.4782968700   1.6138058825  -0.3544316234
	    H     3.5636541862   0.5236602852  -1.1908929252
	    C    -2.0113724389  -0.9199960153   0.5330875881
	    H    -2.5066356725  -1.8908042780   0.6020635415
	    H    -1.7022111905  -0.6602836672   1.5506498500
	    C    -0.7662720455  -1.0375992642  -0.3573369106
	    H    -1.0243805083  -0.7490748515  -1.3820606010
	    H    -0.4460510212  -2.0814258934  -0.4095207878
	    C     0.4217938469  -0.2065309889   0.1204688813
	    H     0.1295231541   0.8407226147   0.2329604201
	    H     0.7067471152  -0.5564067078   1.1160675943
	    C     1.6121996939  -0.2954680142  -0.8269128695
	    H     1.9351456060  -1.3392451675  -0.9024923524
	    H     1.2847995572   0.0000411015  -1.8280840167
			--------------------------
			 OPTKING Finished Execution 
			--------------------------

    Structure for next step:
    Molecular point group: c1
    Full point group: C1

    Geometry (in Angstrom), charge = 0, multiplicity = 1:

    C           -2.499598889664     1.523360724791    -0.073188282059
    H           -1.702960153830     1.590934069563    -0.813990617070
    H           -2.098977391988     1.865795481980     0.882218760854
    H           -3.287413342365     2.214119160928    -0.373609931529
    C            3.416041822584     0.150699006301     0.918781890003
    H            4.304804015620     0.739670511018     1.144057725917
    H            3.708822539985    -0.900337954314     0.892032360587
    H            2.716691075205     0.281182952797     1.743617484230
    C           -3.036100790679     0.100877465803     0.039217549698
    H           -3.406801492348    -0.221867394416    -0.937644049367
    H           -3.895811764671     0.093327969919     0.713384743478
    C            2.799715102929     0.570121835723    -0.411594109566
    H            2.478296135776     1.613804797614    -0.354431025874
    H            3.563653451976     0.523659200333    -1.190892327618
    C           -2.011373173048    -0.919997100120     0.533088185703
    H           -2.506636406643    -1.890805362859     0.602064139097
    H           -1.702211924717    -0.660284752040     1.550650447523
    C           -0.766272779694    -1.037600349041    -0.357336313041
    H           -1.024381242460    -0.749075936361    -1.382060003399
    H           -0.446051755378    -2.081426978265    -0.409520190204
    C            0.421793112715    -0.206532073773     0.120469478875
    H            0.129522419886     0.840721529902     0.232961017677
    H            0.706746381026    -0.556407792609     1.116068191862
    C            1.612198959681    -0.295469099002    -0.826912271984
    H            1.935144871852    -1.339246252355    -0.902491754877
    H            1.284798822978     0.000040016681    -1.828083419163

gradient() will perform analytic gradient computation.

*** tstart() called on wr36
*** at Wed Sep 21 05:04:19 2016


         ---------------------------------------------------------
                                   SCF
            by Justin Turney, Rob Parrish, and Andy Simmonett
                              RHF Reference
                       12 Threads,  60000 MiB Core
         ---------------------------------------------------------

  ==> Geometry <==

    Molecular point group: c1
    Full point group: C1

    Geometry (in Angstrom), charge = 0, multiplicity = 1:

       Center              X                  Y                   Z               Mass       
    ------------   -----------------  -----------------  -----------------  -----------------
           C         -2.499598889664     1.523360724791    -0.073188282059    12.000000000000
           H         -1.702960153830     1.590934069563    -0.813990617070     1.007825032070
           H         -2.098977391988     1.865795481980     0.882218760854     1.007825032070
           H         -3.287413342365     2.214119160928    -0.373609931529     1.007825032070
           C          3.416041822584     0.150699006301     0.918781890003    12.000000000000
           H          4.304804015620     0.739670511018     1.144057725917     1.007825032070
           H          3.708822539985    -0.900337954314     0.892032360587     1.007825032070
           H          2.716691075205     0.281182952797     1.743617484230     1.007825032070
           C         -3.036100790679     0.100877465803     0.039217549698    12.000000000000
           H         -3.406801492348    -0.221867394416    -0.937644049367     1.007825032070
           H         -3.895811764671     0.093327969919     0.713384743478     1.007825032070
           C          2.799715102929     0.570121835723    -0.411594109566    12.000000000000
           H          2.478296135776     1.613804797614    -0.354431025874     1.007825032070
           H          3.563653451976     0.523659200333    -1.190892327618     1.007825032070
           C         -2.011373173048    -0.919997100120     0.533088185703    12.000000000000
           H         -2.506636406643    -1.890805362859     0.602064139097     1.007825032070
           H         -1.702211924717    -0.660284752040     1.550650447523     1.007825032070
           C         -0.766272779694    -1.037600349041    -0.357336313041    12.000000000000
           H         -1.024381242460    -0.749075936361    -1.382060003399     1.007825032070
           H         -0.446051755378    -2.081426978265    -0.409520190204     1.007825032070
           C          0.421793112715    -0.206532073773     0.120469478875    12.000000000000
           H          0.129522419886     0.840721529902     0.232961017677     1.007825032070
           H          0.706746381026    -0.556407792609     1.116068191862     1.007825032070
           C          1.612198959681    -0.295469099002    -0.826912271984    12.000000000000
           H          1.935144871852    -1.339246252355    -0.902491754877     1.007825032070
           H          1.284798822978     0.000040016681    -1.828083419163     1.007825032070

  Running in c1 symmetry.

  Rotational constants: A =      0.13002  B =      0.02498  C =      0.02363 [cm^-1]
  Rotational constants: A =   3897.83690  B =    748.81526  C =    708.45071 [MHz]
  Nuclear repulsion =  393.250550590716955

  Charge       = 0
  Multiplicity = 1
  Electrons    = 66
  Nalpha       = 33
  Nbeta        = 33

  ==> Algorithm <==

  SCF Algorithm Type is DF.
  DIIS enabled.
  MOM disabled.
  Fractional occupation disabled.
  Guess Type is READ.
  Energy threshold   = 1.00e-10
  Density threshold  = 1.00e-10
  Integral threshold = 0.00e+00

  ==> Primary Basis <==

  Basis Set: AUG-CC-PVTZ
    Number of shells: 274
    Number of basis function: 782
    Number of Cartesian functions: 890
    Spherical Harmonics?: true
    Max angular momentum: 3

  ==> Pre-Iterations <==

   -------------------------------------------------------
    Irrep   Nso     Nmo     Nalpha   Nbeta   Ndocc  Nsocc
   -------------------------------------------------------
     A        782     782       0       0       0       0
   -------------------------------------------------------
    Total     782     782      33      33      33       0
   -------------------------------------------------------

  ==> Integral Setup <==

  ==> DFJK: Density-Fitted J/K Matrices <==

    J tasked:                  Yes
    K tasked:                  Yes
    wK tasked:                  No
    OpenMP threads:             12
    Integrals threads:          12
    Memory (MB):             42915
    Algorithm:                Core
    Integral Cache:           NONE
    Schwarz Cutoff:          1E-12
    Fitting Condition:       1E-12

   => Auxiliary Basis Set <=

  Basis Set: 
    Number of shells: 492
    Number of basis function: 1660
    Number of Cartesian functions: 2038
    Spherical Harmonics?: true
    Max angular momentum: 4

  Minimum eigenvalue in the overlap matrix is 2.1057492090E-06.
  Using Symmetric Orthogonalization.
  SCF Guess: Reading in previously saved MOs, projecting if necessary.

  Using orbitals from previous SCF, no projection.
  Recomputing DOCC and SOCC from number of alpha and beta electrons from previous calculation.
              A 
    DOCC [    33 ]

  ==> Iterations <==

                           Total Energy        Delta E     RMS |[F,P]|

   @DF-RHF iter   0:  -313.53905557863101   -3.13539e+02   8.39921e-08 
   @DF-RHF iter   1:  -313.53908402692258   -2.84483e-05   2.00918e-08 
   @DF-RHF iter   2:  -313.53908402711414   -1.91562e-10   8.98805e-09 DIIS
   @DF-RHF iter   3:  -313.53908402714438   -3.02407e-11   2.80306e-09 DIIS
   @DF-RHF iter   4:  -313.53908402715030   -5.91172e-12   3.55903e-10 DIIS
   @DF-RHF iter   5:  -313.53908402715075   -4.54747e-13   1.25527e-10 DIIS
   @DF-RHF iter   6:  -313.53908402715018    5.68434e-13   3.23304e-11 DIIS

  ==> Post-Iterations <==

    Orbital Energies (a.u.)
    -----------------------

    Doubly Occupied:                                                      

       1A    -11.213236     2A    -11.212684     3A    -11.210581  
       4A    -11.209968     5A    -11.209886     6A    -11.208090  
       7A    -11.207146     8A    -11.206382     9A     -1.092992  
      10A     -1.060975    11A     -1.006705    12A     -0.947031  
      13A     -0.889133    14A     -0.827393    15A     -0.773016  
      16A     -0.770897    17A     -0.647803    18A     -0.622784  
      19A     -0.616744    20A     -0.595667    21A     -0.574093  
      22A     -0.564643    23A     -0.539072    24A     -0.526638  
      25A     -0.517678    26A     -0.498872    27A     -0.491350  
      28A     -0.479215    29A     -0.462426    30A     -0.458469  
      31A     -0.450737    32A     -0.441037    33A     -0.428828  

    Virtual:                                                              

      34A      0.029324    35A      0.032245    36A      0.034439  
      37A      0.035110    38A      0.045819    39A      0.047291  
      40A      0.048556    41A      0.053351    42A      0.057183  
      43A      0.065788    44A      0.067584    45A      0.071270  
      46A      0.072939    47A      0.077231    48A      0.088369  
      49A      0.092080    50A      0.097496    51A      0.103238  
      52A      0.113663    53A      0.114656    54A      0.119429  
      55A      0.124378    56A      0.125931    57A      0.129086  
      58A      0.130790    59A      0.136739    60A      0.141966  
      61A      0.143314    62A      0.146628    63A      0.148859  
      64A      0.153072    65A      0.159646    66A      0.161190  
      67A      0.164186    68A      0.167490    69A      0.171741  
      70A      0.174756    71A      0.181995    72A      0.182566  
      73A      0.187502    74A      0.190449    75A      0.196663  
      76A      0.205183    77A      0.211217    78A      0.219002  
      79A      0.226765    80A      0.234513    81A      0.242387  
      82A      0.250624    83A      0.255130    84A      0.256820  
      85A      0.266473    86A      0.271872    87A      0.279237  
      88A      0.281819    89A      0.289112    90A      0.294096  
      91A      0.304488    92A      0.306647    93A      0.309736  
      94A      0.310875    95A      0.313009    96A      0.321530  
      97A      0.326841    98A      0.329657    99A      0.330363  
     100A      0.332118   101A      0.338041   102A      0.339867  
     103A      0.344854   104A      0.348684   105A      0.351603  
     106A      0.358379   107A      0.362255   108A      0.362735  
     109A      0.367252   110A      0.369194   111A      0.376256  
     112A      0.379931   113A      0.383072   114A      0.388165  
     115A      0.389699   116A      0.394694   117A      0.397139  
     118A      0.402788   119A      0.407582   120A      0.408400  
     121A      0.416834   122A      0.417915   123A      0.423834  
     124A      0.429953   125A      0.434700   126A      0.439476  
     127A      0.441643   128A      0.443927   129A      0.445755  
     130A      0.450500   131A      0.452743   132A      0.455584  
     133A      0.461940   134A      0.469377   135A      0.471786  
     136A      0.474732   137A      0.476170   138A      0.478396  
     139A      0.479949   140A      0.487313   141A      0.489288  
     142A      0.491398   143A      0.497143   144A      0.504380  
     145A      0.506447   146A      0.510909   147A      0.515648  
     148A      0.518415   149A      0.520428   150A      0.523437  
     151A      0.529946   152A      0.536396   153A      0.542036  
     154A      0.548030   155A      0.551159   156A      0.552903  
     157A      0.557825   158A      0.561882   159A      0.563564  
     160A      0.568737   161A      0.572255   162A      0.577008  
     163A      0.578873   164A      0.585456   165A      0.590309  
     166A      0.593912   167A      0.601490   168A      0.611007  
     169A      0.611064   170A      0.613796   171A      0.617306  
     172A      0.620142   173A      0.624586   174A      0.635545  
     175A      0.638997   176A      0.645330   177A      0.647599  
     178A      0.651465   179A      0.654986   180A      0.655944  
     181A      0.667765   182A      0.676628   183A      0.679910  
     184A      0.682576   185A      0.691869   186A      0.698878  
     187A      0.702801   188A      0.709310   189A      0.710875  
     190A      0.713616   191A      0.718892   192A      0.727919  
     193A      0.733203   194A      0.738200   195A      0.752288  
     196A      0.756717   197A      0.769399   198A      0.779046  
     199A      0.781100   200A      0.786205   201A      0.796502  
     202A      0.808445   203A      0.814375   204A      0.823510  
     205A      0.832670   206A      0.836968   207A      0.844489  
     208A      0.851704   209A      0.854217   210A      0.860828  
     211A      0.863758   212A      0.870442   213A      0.873130  
     214A      0.881562   215A      0.886994   216A      0.891496  
     217A      0.897232   218A      0.902406   219A      0.907390  
     220A      0.907944   221A      0.912073   222A      0.921741  
     223A      0.927547   224A      0.928811   225A      0.930098  
     226A      0.939110   227A      0.947562   228A      0.953102  
     229A      0.956919   230A      0.958250   231A      0.968616  
     232A      0.971940   233A      0.980744   234A      0.982798  
     235A      0.986892   236A      0.991955   237A      0.993989  
     238A      0.997956   239A      1.005976   240A      1.008137  
     241A      1.010926   242A      1.015351   243A      1.023855  
     244A      1.031108   245A      1.035049   246A      1.039191  
     247A      1.046054   248A      1.050546   249A      1.056751  
     250A      1.058032   251A      1.064448   252A      1.064854  
     253A      1.070774   254A      1.083193   255A      1.089805  
     256A      1.097342   257A      1.104369   258A      1.105529  
     259A      1.112018   260A      1.118375   261A      1.123570  
     262A      1.125921   263A      1.135877   264A      1.138090  
     265A      1.142878   266A      1.144101   267A      1.148463  
     268A      1.151812   269A      1.158843   270A      1.161254  
     271A      1.168099   272A      1.169345   273A      1.179619  
     274A      1.186311   275A      1.196092   276A      1.199086  
     277A      1.208987   278A      1.212488   279A      1.216675  
     280A      1.218254   281A      1.223576   282A      1.230101  
     283A      1.233383   284A      1.240047   285A      1.246064  
     286A      1.252706   287A      1.257063   288A      1.261906  
     289A      1.266987   290A      1.271046   291A      1.274398  
     292A      1.279302   293A      1.286434   294A      1.291131  
[...]
	 D(18,21,24,26)   =         0.971383	      55.656118
	 D(19,18,21,22)   =         1.183612	      67.815944
	 D(19,18,21,23)   =        -3.074368	    -176.148306
	 D(19,18,21,24)   =        -0.947078	     -54.263589
	 D(20,18,21,22)   =        -3.094062	    -177.276711
	 D(20,18,21,23)   =        -1.068856	     -61.240961
	 D(20,18,21,24)   =         1.058433	      60.643756
	 D(22,21,24,25)   =         3.095035	     177.332419
	 D(22,21,24,26)   =        -1.169481	     -67.006336
	 D(23,21,24,25)   =         1.061731	      60.832690
	 D(23,21,24,26)   =         3.080400	     176.493936
	 R(1,21)          =         6.426348	       3.400677

	Current energy   :      -314.9806346752

	Energy change for the previous step:
		Projected    :        -0.0000000001
		Actual       :         0.0000000030

	Performing BFGS update.
	Previous computed or guess Hessian on step 1.
	Denominators (dg)(dq) or (dq)(dq) are very small.
	 Skipping Hessian update for step 12.
	Denominators (dg)(dq) or (dq)(dq) are very small.
	 Skipping Hessian update for step 11.
	Denominators (dg)(dq) or (dq)(dq) are very small.
	 Skipping Hessian update for step 10.
	Denominators (dg)(dq) or (dq)(dq) are very small.
	 Skipping Hessian update for step 9.
	Denominators (dg)(dq) or (dq)(dq) are very small.
	 Skipping Hessian update for step 8.
	Denominators (dg)(dq) or (dq)(dq) are very small.
	 Skipping Hessian update for step 7.
	Denominators (dg)(dq) or (dq)(dq) are very small.
	 Skipping Hessian update for step 6.
	Denominators (dg)(dq) or (dq)(dq) are very small.
	 Skipping Hessian update for step 5.
	Denominators (dg)(dq) or (dq)(dq) are very small.
	 Skipping Hessian update for step 4.
	Denominators (dg)(dq) or (dq)(dq) are very small.
	 Skipping Hessian update for step 3.
	Denominators (dg)(dq) or (dq)(dq) are very small.
	 Skipping Hessian update for step 2.
	Steps to be used in Hessian update: 1
	Taking RFO optimization step.
	Going to follow RFO solution 1.
	Using RFO vector 1.
	Norm of target step-size    0.00002
	Projected energy change by RFO approximation:         0.0000000000

	Back-transformation to cartesian coordinates...
	Successfully converged to displaced geometry.

	--- Internal Coordinate Step in ANG or DEG, aJ/ANG or AJ/DEG ---
	 ---------------------------------------------------------------------------
	   Coordinate                Previous        Force       Change         New 
	   ----------                --------       ------       ------       ------
	    1 R(1,2)          =      1.089948    -0.000003    -0.000000     1.089948
	    2 R(1,3)          =      1.091128    -0.000003    -0.000000     1.091128
	    3 R(1,4)          =      1.089978    -0.000002    -0.000000     1.089978
	    4 R(1,9)          =      1.524443    -0.000001    -0.000000     1.524443
	    5 R(5,6)          =      1.089740    -0.000002    -0.000000     1.089740
	    6 R(5,7)          =      1.091381    -0.000002    -0.000000     1.091381
	    7 R(5,8)          =      1.089252    -0.000002    -0.000000     1.089252
	    8 R(5,12)         =      1.525016     0.000000     0.000000     1.525016
	    9 R(9,10)         =      1.093545    -0.000002    -0.000000     1.093545
	   10 R(9,11)         =      1.092548    -0.000002    -0.000000     1.092548
	   11 R(9,15)         =      1.528450     0.000000     0.000000     1.528450
	   12 R(12,13)        =      1.093549    -0.000003    -0.000000     1.093549
	   13 R(12,14)        =      1.092275    -0.000002    -0.000000     1.092275
	   14 R(12,24)        =      1.527066    -0.000001    -0.000000     1.527066
	   15 R(15,16)        =      1.092021    -0.000001     0.000000     1.092021
	   16 R(15,17)        =      1.094743    -0.000002     0.000000     1.094743
	   17 R(15,18)        =      1.535239     0.000000     0.000000     1.535239
	   18 R(18,19)        =      1.095410    -0.000003    -0.000000     1.095410
	   19 R(18,20)        =      1.093086    -0.000002     0.000000     1.093086
	   20 R(18,21)        =      1.526588     0.000001     0.000000     1.526589
	   21 R(21,22)        =      1.093075    -0.000005    -0.000000     1.093075
	   22 R(21,23)        =      1.093081    -0.000004    -0.000000     1.093080
	   23 R(21,24)        =      1.523977    -0.000002    -0.000000     1.523977
	   24 R(24,25)        =      1.095205    -0.000004    -0.000000     1.095205
	   25 R(24,26)        =      1.094010    -0.000004    -0.000000     1.094010
	   26 B(1,9,10)       =    109.197766     0.000000     0.000015   109.197781
	   27 B(1,9,11)       =    109.200713    -0.000000     0.000002   109.200715
	   28 B(1,9,15)       =    114.275155    -0.000000    -0.000028   114.275127
	   29 B(2,1,3)        =    107.897304     0.000000     0.000012   107.897316
	   30 B(2,1,4)        =    107.557112    -0.000000     0.000002   107.557114
	   31 B(2,1,9)        =    111.419401    -0.000000    -0.000010   111.419390
	   32 B(3,1,4)        =    107.928321     0.000000     0.000004   107.928325
	   33 B(3,1,9)        =    110.946576    -0.000000    -0.000017   110.946559
	   34 B(4,1,9)        =    110.934656     0.000000     0.000010   110.934666
	   35 B(5,12,13)      =    109.613450     0.000000    -0.000001   109.613448
	   36 B(5,12,14)      =    109.150139     0.000000     0.000013   109.150151
	   37 B(5,12,24)      =    113.306223    -0.000000    -0.000017   113.306205
	   38 B(6,5,7)        =    107.864469     0.000000     0.000004   107.864473
	   39 B(6,5,8)        =    107.598762    -0.000000     0.000005   107.598767
	   40 B(6,5,12)       =    111.180364     0.000000     0.000009   111.180373
	   41 B(7,5,8)        =    107.828159     0.000000     0.000006   107.828164
	   42 B(7,5,12)       =    110.603398    -0.000000    -0.000011   110.603388
	   43 B(8,5,12)       =    111.603077    -0.000000    -0.000011   111.603066
	   44 B(9,15,16)      =    108.066754    -0.000000    -0.000005   108.066749
	   45 B(9,15,17)      =    109.342787     0.000000     0.000008   109.342795
	   46 B(9,15,18)      =    114.047242     0.000000    -0.000007   114.047236
	   47 B(10,9,11)      =    106.405405    -0.000000     0.000009   106.405414
	   48 B(10,9,15)      =    108.589535    -0.000000    -0.000002   108.589533
	   49 B(11,9,15)      =    108.878253     0.000000     0.000006   108.878259
	   50 B(12,24,21)     =    113.908862     0.000000    -0.000021   113.908841
	   51 B(12,24,25)     =    109.249267     0.000000     0.000007   109.249274
	   52 B(12,24,26)     =    109.177956     0.000000     0.000007   109.177963
	   53 B(13,12,14)     =    106.466945    -0.000000     0.000009   106.466954
	   54 B(13,12,24)     =    109.064569    -0.000000    -0.000016   109.064553
	   55 B(14,12,24)     =    109.009963     0.000000     0.000014   109.009977
	   56 B(15,18,19)     =    109.347092     0.000000     0.000003   109.347096
	   57 B(15,18,20)     =    109.781087     0.000000     0.000002   109.781089
	   58 B(15,18,21)     =    114.075269    -0.000000    -0.000002   114.075268
	   59 B(16,15,17)     =    106.276412     0.000000     0.000006   106.276418
	   60 B(16,15,18)     =    109.654881     0.000000    -0.000009   109.654873
	   61 B(17,15,18)     =    109.161837    -0.000000     0.000007   109.161844
	   62 B(18,21,22)     =    110.224149     0.000000    -0.000006   110.224143
	   63 B(18,21,23)     =    108.282655     0.000000     0.000017   108.282672
	   64 B(18,21,24)     =    112.430493    -0.000000    -0.000016   112.430476
	   65 B(19,18,20)     =    106.015185    -0.000000    -0.000002   106.015182
	   66 B(19,18,21)     =    109.437409    -0.000000     0.000003   109.437412
	   67 B(20,18,21)     =    107.867510     0.000000    -0.000005   107.867506
	   68 B(21,24,25)     =    109.198796    -0.000000     0.000014   109.198810
	   69 B(21,24,26)     =    108.624804    -0.000000    -0.000020   108.624784
	   70 B(22,21,23)     =    106.417455     0.000000     0.000021   106.417476
	   71 B(22,21,24)     =    109.192618    -0.000000    -0.000026   109.192592
	   72 B(23,21,24)     =    110.114930     0.000000     0.000013   110.114944
	   73 B(25,24,26)     =    106.410882     0.000000     0.000016   106.410898
	   74 D(1,9,15,16)    =    178.430839    -0.000000     0.000053   178.430892
	   75 D(1,9,15,17)    =     63.156495    -0.000000     0.000044    63.156539
	   76 D(1,9,15,18)    =    -59.362032    -0.000000     0.000034   -59.361998
	   77 D(2,1,9,10)     =    -58.361841     0.000000     0.000024   -58.361817
	   78 D(2,1,9,11)     =   -174.334218     0.000000     0.000004  -174.334214
	   79 D(2,1,9,15)     =     63.463580    -0.000000     0.000014    63.463594
	   80 D(3,1,9,10)     =   -178.602723     0.000000     0.000028  -178.602696
	   81 D(3,1,9,11)     =     65.424900     0.000000     0.000008    65.424908
	   82 D(3,1,9,15)     =    -56.777302     0.000000     0.000017   -56.777285
	   83 D(4,1,9,10)     =     61.440557     0.000000     0.000027    61.440585
	   84 D(4,1,9,11)     =    -54.531819     0.000000     0.000007   -54.531812
	   85 D(4,1,9,15)     =   -176.734021     0.000000     0.000017  -176.734004
	   86 D(5,12,24,21)   =     63.783136     0.000000    -0.000156    63.782980
	   87 D(5,12,24,25)   =    -58.616672     0.000000    -0.000165   -58.616837
	   88 D(5,12,24,26)   =   -174.611607    -0.000000    -0.000191  -174.611799
	   89 D(6,5,12,13)    =    -62.307622    -0.000000     0.000171   -62.307452
	   90 D(6,5,12,14)    =     53.942841     0.000000     0.000188    53.943029
	   91 D(6,5,12,24)    =    175.614332     0.000000     0.000203   175.614536
	   92 D(7,5,12,13)    =    177.881312    -0.000000     0.000167   177.881479
	   93 D(7,5,12,14)    =    -65.868224     0.000000     0.000185   -65.868040
	   94 D(7,5,12,24)    =     55.803267     0.000000     0.000200    55.803467
	   95 D(8,5,12,13)    =     57.837314    -0.000000     0.000175    57.837489
	   96 D(8,5,12,14)    =    174.087777     0.000000     0.000192   174.087970
	   97 D(8,5,12,24)    =    -64.240732     0.000000     0.000208   -64.240524
	   98 D(9,15,18,19)   =    -26.491625     0.000000     0.000106   -26.491518
	   99 D(9,15,18,20)   =   -142.405514     0.000000     0.000106  -142.405408
	  100 D(9,15,18,21)   =     96.408660     0.000000     0.000112    96.408772
	  101 D(10,9,15,16)   =    -59.410495     0.000000     0.000052   -59.410443
	  102 D(10,9,15,17)   =   -174.684839    -0.000000     0.000043  -174.684796
	  103 D(10,9,15,18)   =     62.796635     0.000000     0.000033    62.796667
	  104 D(11,9,15,16)   =     56.052542     0.000000     0.000064    56.052606
	  105 D(11,9,15,17)   =    -59.221802    -0.000000     0.000055   -59.221747
	  106 D(11,9,15,18)   =    178.259671     0.000000     0.000045   178.259717
	  107 D(12,24,21,18)  =    177.567346    -0.000000    -0.000167   177.567179
	  108 D(12,24,21,22)  =     54.904893     0.000000    -0.000129    54.904764
	  109 D(12,24,21,23)  =    -61.594836    -0.000000    -0.000148   -61.594983
	  110 D(13,12,24,21)  =    -58.600446     0.000000    -0.000131   -58.600577
	  111 D(13,12,24,25)  =    178.999746     0.000000    -0.000140   178.999606
	  112 D(13,12,24,26)  =     63.004811    -0.000000    -0.000166    63.004644
	  113 D(14,12,24,21)  =   -174.466901     0.000000    -0.000141  -174.467042
	  114 D(14,12,24,25)  =     63.133291     0.000000    -0.000150    63.133141
	  115 D(14,12,24,26)  =    -52.861644    -0.000000    -0.000176   -52.861821
	  116 D(15,18,21,22)  =    -55.035152    -0.000000    -0.000146   -55.035299
	  117 D(15,18,21,23)  =     61.000597     0.000000    -0.000114    61.000483
	  118 D(15,18,21,24)  =   -177.114685     0.000000    -0.000097  -177.114782
	  119 D(16,15,18,19)  =     94.839408     0.000000     0.000089    94.839497
	  120 D(16,15,18,20)  =    -21.074482     0.000000     0.000089   -21.074392
	  121 D(16,15,18,21)  =   -142.260307     0.000000     0.000095  -142.260212
	  122 D(17,15,18,19)  =   -149.109094     0.000000     0.000096  -149.108998
	  123 D(17,15,18,20)  =     94.977016     0.000000     0.000096    94.977112
	  124 D(17,15,18,21)  =    -26.208810     0.000000     0.000102   -26.208708
	  125 D(18,21,24,25)  =    -60.005128    -0.000000    -0.000162   -60.005290
	  126 D(18,21,24,26)  =     55.656118    -0.000000    -0.000147    55.655971
	  127 D(19,18,21,22)  =     67.815944    -0.000000    -0.000141    67.815804
	  128 D(19,18,21,23)  =   -176.148306     0.000000    -0.000109  -176.148415
	  129 D(19,18,21,24)  =    -54.263589     0.000000    -0.000091   -54.263680
	  130 D(20,18,21,22)  =   -177.276711    -0.000000    -0.000144  -177.276855
	  131 D(20,18,21,23)  =    -61.240961     0.000000    -0.000112   -61.241074
	  132 D(20,18,21,24)  =     60.643756     0.000000    -0.000095    60.643661
	  133 D(22,21,24,25)  =    177.332419     0.000000    -0.000124   177.332295
	  134 D(22,21,24,26)  =    -67.006336     0.000000    -0.000109   -67.006445
	  135 D(23,21,24,25)  =     60.832690    -0.000000    -0.000143    60.832548
	  136 D(23,21,24,26)  =    176.493936    -0.000000    -0.000128   176.493808
	  137 R(1,21)         =      3.400677     0.000000     0.000001     3.400678
	 ---------------------------------------------------------------------------

  ==> Convergence Check <==

  Measures of convergence in internal coordinates in au.
  Criteria marked as inactive (o), active & met (*), and active & unmet ( ).
  ---------------------------------------------------------------------------------------------
   Step     Total Energy     Delta E     MAX Force     RMS Force      MAX Disp      RMS Disp   
  ---------------------------------------------------------------------------------------------
    Convergence Criteria             o    2.00e-06 *    1.00e-06 *    6.00e-06 *    4.00e-06 *
  ---------------------------------------------------------------------------------------------
     13    -314.98063468    2.99e-09 o    5.57e-07 *    1.36e-07 *    3.63e-06 *    1.48e-06 *  ~
  ---------------------------------------------------------------------------------------------


  **** Optimization is complete! (in 13 steps) ****

  ==> Optimization Summary <==

  Measures of convergence in internal coordinates in au.
  --------------------------------------------------------------------------------------------------------------- ~
   Step         Total Energy             Delta E       MAX Force       RMS Force        MAX Disp        RMS Disp  ~
  --------------------------------------------------------------------------------------------------------------- ~
      1    -314.980634676855   -314.980634676855      0.00000152      0.00000031      0.00004535      0.00001301  ~
      2    -314.980634671109      0.000000005746      0.00000243      0.00000047      0.00002876      0.00001030  ~
      3    -314.980634679475     -0.000000008366      0.00000132      0.00000032      0.00001164      0.00000463  ~
      4    -314.980634673697      0.000000005778      0.00000079      0.00000019      0.00001338      0.00000415  ~
      5    -314.980634672852      0.000000000845      0.00000073      0.00000015      0.00001751      0.00000599  ~
      6    -314.980634677162     -0.000000004311      0.00000052      0.00000013      0.00002595      0.00000812  ~
      7    -314.980634672909      0.000000004254      0.00000186      0.00000036      0.00002474      0.00000819  ~
      8    -314.980634675885     -0.000000002976      0.00000025      0.00000006      0.00000875      0.00000312  ~
      9    -314.980634675811      0.000000000073      0.00000135      0.00000024      0.00002690      0.00000989  ~
     10    -314.980634676553     -0.000000000742      0.00000130      0.00000029      0.00002592      0.00000966  ~
     11    -314.980634673932      0.000000002621      0.00000049      0.00000010      0.00000641      0.00000210  ~
     12    -314.980634678197     -0.000000004265      0.00000294      0.00000065      0.00000683      0.00000261  ~
     13    -314.980634675202      0.000000002995      0.00000056      0.00000014      0.00000363      0.00000148  ~
  --------------------------------------------------------------------------------------------------------------- ~

	Writing optimization data to binary file.
	Final energy is   -314.9806346752024
	Final (previous) structure:
	Cartesian Geometry (in Angstrom)
	    C    -2.4995874410   1.5233656576  -0.0731931295
	    H    -1.7029408357   1.5909352004  -0.8139864380
	    H    -2.0989744689   1.8657962564   0.8822183218
	    H    -3.2873942524   2.2141292239  -0.3736219874
	    C     3.4160570343   0.1507118846   0.9187696312
	    H     4.3048149607   0.7396933354   1.1440327017
	    H     3.7088505509  -0.9003203210   0.8920095026
	    H     2.7167197176   0.2811826077   1.7436175471
	    C    -3.0360986324   0.1008853309   0.0392048475
	    H    -3.4067911505  -0.2218551348  -0.9376606779
	    H    -3.8958162572   0.0933395124   0.7133629616
	    C     2.7997009094   0.5701320286  -0.4115935408
	    H     2.4782627261   1.6138073152  -0.3544180548
	    H     3.5636271304   0.5236897806  -1.1909037170
	    C    -2.0113817943  -0.9199956504   0.5330835681
	    H    -2.5066518036  -1.8907999084   0.6020585029
	    H    -1.7022247179  -0.6602833207   1.5506459942
	    C    -0.7662770474  -1.0376070024  -0.3573326422
	    H    -1.0243744680  -0.7490710726  -1.3820546654
	    H    -0.4460678344  -2.0814359290  -0.4095228997
	    C     0.4217934370  -0.2065545511   0.1204880164
	    H     0.1295291045   0.8406968347   0.2329998117
	    H     0.7067462258  -0.5564515777   1.1160778153
	    C     1.6121952446  -0.2954788750  -0.8268989633
	    H     1.9351547077  -1.3392507844  -0.9024744915
	    H     1.2847846079   0.0000201559  -1.8280684380
	Saving final (previous) structure.
			--------------------------
			 OPTKING Finished Execution 
			--------------------------

    Final optimized geometry and variables:
    Molecular point group: c1
    Full point group: C1

    Geometry (in Angstrom), charge = 0, multiplicity = 1:

    C           -2.499587441035     1.523365657574    -0.073193129479
    H           -1.702940835725     1.590935200400    -0.813986437953
    H           -2.098974468913     1.865796256368     0.882218321815
    H           -3.287394252409     2.214129223901    -0.373621987447
    C            3.416057034326     0.150711884596     0.918769631232
    H            4.304814960657     0.739693335433     1.144032701712
    H            3.708850550876    -0.900320320989     0.892009502609
    H            2.716719717599     0.281182607692     1.743617547114
    C           -3.036098632372     0.100885330935     0.039204847477
    H           -3.406791150513    -0.221855134752    -0.937660677905
    H           -3.895816257184     0.093339512390     0.713362961584
    C            2.799700909387     0.570132028613    -0.411593540772
    H            2.478262726105     1.613807315189    -0.354418054850
    H            3.563627130371     0.523689780564    -1.190903716969
    C           -2.011381794346    -0.919995650382     0.533083568133
    H           -2.506651803610    -1.890799908391     0.602058502905
    H           -1.702224717921    -0.660283320702     1.550645994236
    C           -0.766277047442    -1.037607002404    -0.357332642237
    H           -1.024374467977    -0.749071072649    -1.382054665414
    H           -0.446067834386    -2.081435929047    -0.409522899660
    C            0.421793436981    -0.206554551127     0.120488016360
    H            0.129529104505     0.840696834698     0.232999811690
    H            0.706746225766    -0.556451577682     1.116077815283
    C            1.612195244566    -0.295478874992    -0.826898963293
    H            1.935154707747    -1.339250784382    -0.902474491526
    H            1.284784607860     0.000020155939    -1.828068437974

	Cleaning optimization helper files.

*** Psi4 exiting successfully. Buy a developer a beer!
