    -----------------------------------------------------------------------
          Psi4: An Open-Source Ab Initio Electronic Structure Package
                              Psi4 1.0.0 Driver

                          Git: Rev {master} 6a9a71b dirty

    J. M. Turney, A. C. Simmonett, R. M. Parrish, E. G. Hohenstein,
    F. A. Evangelista, J. T. Fermann, B. J. Mintz, L. A. Burns, J. J. Wilke,
    M. L. Abrams, N. J. Russ, M. L. Leininger, C. L. Janssen, E. T. Seidl,
    W. D. Allen, H. F. Schaefer, R. A. King, E. F. Valeev, C. D. Sherrill,
    and T. D. Crawford, WIREs Comput. Mol. Sci. 2, 556-565 (2012)
    (doi: 10.1002/wcms.93)

                         Additional Contributions by
    A. E. DePrince, U. Bozkaya, A. Yu. Sokolov, D. G. A. Smith, R. Di Remigio,
    R. M. Richard, J. F. Gonthier, H. R. McAlexander, M. Saitow, and
    B. P. Pritchard
    -----------------------------------------------------------------------


    Psi4 started on: Wed Sep 21 04:57:33 2016

    Process ID:   5004
    PSI4DATADIR: /usr/local/hpc5/psi4conda/share/psi4
    Memory level set to 256.000 MB

  ==> Input File <==

--------------------------------------------------------------------------
memory 60 Gb

molecule molecule_90_psi {
0 1
C           -2.826038565706     0.902621398317    -0.726730542179
H           -1.909167120155     1.165495807217    -1.254481410871
H           -2.933701711216     1.584407460592     0.118271610237
H           -3.659180539997     1.078161422154    -1.407226863537
C            2.931519733477    -0.919736457957    -0.801878773397
H            3.751956418858    -1.596971907631    -0.563289309619
H            3.154072297967    -0.451894665540    -1.761871666553
H            2.029649377918    -1.516043170158    -0.927240643695
C           -2.802890632547    -0.547599312278    -0.257402971741
H           -2.684741768446    -1.204146216972    -1.123938688625
H           -3.768547178663    -0.796343215024     0.189022570904
C            2.762651660489     0.146345309321     0.277586345330
H            2.602806517084    -0.328942976871     1.249931367729
H            3.700557813804     0.698810858682     0.361262490407
C           -1.695455658003    -0.864842427549     0.747344575846
H           -1.790952776144    -1.913121771317     1.037894166649
H           -1.852591106850    -0.277952370460     1.658115029823
C           -0.279117215218    -0.600349149122     0.214895432440
H           -0.285409460490    -0.661725369725    -0.879014314923
H            0.393532498326    -1.387336799662     0.561146055573
C            0.284856031315     0.750975218006     0.648767047359
H           -0.446982357609     1.533626314404     0.437938250026
H            0.410417036878     0.736565032951     1.736516661376
C            1.617031571008     1.131169657840     0.004325024104
H            1.481034210972     1.232885868706    -1.077484145966
H            1.895871268871     2.121382951170     0.371535773504
}

set globals {
  reference rhf
  g_convergence gau_verytight
  basis aug-cc-pvtz
  freeze_core true
  scf_type df
  mp_type df
}
optimize('mp2')
--------------------------------------------------------------------------
/usr/local/hpc5/psi4conda/lib/python2.7/site-packages/v2rdm_casscf/v2rdm_casscf.so loaded.

  Memory set to  60.000 GiB by Python script.
gradient() will perform analytic gradient computation.

*** tstart() called on wr33
*** at Wed Sep 21 04:57:34 2016


         ---------------------------------------------------------
                                   SCF
            by Justin Turney, Rob Parrish, and Andy Simmonett
                              RHF Reference
                       12 Threads,  60000 MiB Core
         ---------------------------------------------------------

  ==> Geometry <==

    Molecular point group: c1
    Full point group: C1

    Geometry (in Angstrom), charge = 0, multiplicity = 1:

       Center              X                  Y                   Z               Mass       
    ------------   -----------------  -----------------  -----------------  -----------------
           C         -2.826038565706     0.902621398317    -0.726730542179    12.000000000000
           H         -1.909167120155     1.165495807217    -1.254481410871     1.007825032070
           H         -2.933701711216     1.584407460592     0.118271610237     1.007825032070
           H         -3.659180539997     1.078161422154    -1.407226863537     1.007825032070
           C          2.931519733477    -0.919736457957    -0.801878773397    12.000000000000
           H          3.751956418858    -1.596971907631    -0.563289309619     1.007825032070
           H          3.154072297967    -0.451894665540    -1.761871666553     1.007825032070
           H          2.029649377918    -1.516043170158    -0.927240643695     1.007825032070
           C         -2.802890632547    -0.547599312278    -0.257402971741    12.000000000000
           H         -2.684741768446    -1.204146216972    -1.123938688625     1.007825032070
           H         -3.768547178663    -0.796343215024     0.189022570904     1.007825032070
           C          2.762651660489     0.146345309321     0.277586345330    12.000000000000
           H          2.602806517084    -0.328942976871     1.249931367729     1.007825032070
           H          3.700557813804     0.698810858682     0.361262490407     1.007825032070
           C         -1.695455658003    -0.864842427549     0.747344575846    12.000000000000
           H         -1.790952776144    -1.913121771317     1.037894166649     1.007825032070
           H         -1.852591106850    -0.277952370460     1.658115029823     1.007825032070
           C         -0.279117215218    -0.600349149122     0.214895432440    12.000000000000
           H         -0.285409460490    -0.661725369725    -0.879014314923     1.007825032070
           H          0.393532498326    -1.387336799662     0.561146055573     1.007825032070
           C          0.284856031315     0.750975218006     0.648767047359    12.000000000000
           H         -0.446982357609     1.533626314404     0.437938250026     1.007825032070
           H          0.410417036878     0.736565032951     1.736516661376     1.007825032070
           C          1.617031571008     1.131169657840     0.004325024104    12.000000000000
           H          1.481034210972     1.232885868706    -1.077484145966     1.007825032070
           H          1.895871268871     2.121382951170     0.371535773504     1.007825032070

  Running in c1 symmetry.

  Rotational constants: A =      0.12422  B =      0.02761  C =      0.02596 [cm^-1]
  Rotational constants: A =   3724.15192  B =    827.60365  C =    778.27738 [MHz]
  Nuclear repulsion =  398.606277860948296

  Charge       = 0
  Multiplicity = 1
  Electrons    = 66
  Nalpha       = 33
  Nbeta        = 33

  ==> Algorithm <==

  SCF Algorithm Type is DF.
  DIIS enabled.
  MOM disabled.
  Fractional occupation disabled.
  Guess Type is SAD.
  Energy threshold   = 1.00e-10
  Density threshold  = 1.00e-10
  Integral threshold = 0.00e+00

  ==> Primary Basis <==

  Basis Set: AUG-CC-PVTZ
    Number of shells: 274
    Number of basis function: 782
    Number of Cartesian functions: 890
    Spherical Harmonics?: true
    Max angular momentum: 3

  ==> Pre-Iterations <==

   -------------------------------------------------------
    Irrep   Nso     Nmo     Nalpha   Nbeta   Ndocc  Nsocc
   -------------------------------------------------------
     A        782     782       0       0       0       0
   -------------------------------------------------------
    Total     782     782      33      33      33       0
   -------------------------------------------------------

  ==> Integral Setup <==

  ==> DFJK: Density-Fitted J/K Matrices <==

    J tasked:                  Yes
    K tasked:                  Yes
    wK tasked:                  No
    OpenMP threads:             12
    Integrals threads:          12
    Memory (MB):             42915
    Algorithm:                Core
    Integral Cache:           NONE
    Schwarz Cutoff:          1E-12
    Fitting Condition:       1E-12

   => Auxiliary Basis Set <=

  Basis Set: 
    Number of shells: 492
    Number of basis function: 1660
    Number of Cartesian functions: 2038
    Spherical Harmonics?: true
    Max angular momentum: 4

  Minimum eigenvalue in the overlap matrix is 1.4997224404E-06.
  Using Symmetric Orthogonalization.
  SCF Guess: Superposition of Atomic Densities via on-the-fly atomic UHF.

  ==> Iterations <==

                           Total Energy        Delta E     RMS |[F,P]|

   @DF-RHF iter   0:  -316.97964179354932   -3.16980e+02   7.02110e-03 
   @DF-RHF iter   1:  -313.29797729045487    3.68166e+00   6.89169e-04 
   @DF-RHF iter   2:  -313.50324188169878   -2.05265e-01   2.48125e-04 DIIS
   @DF-RHF iter   3:  -313.52874360835000   -2.55017e-02   1.02700e-04 DIIS
   @DF-RHF iter   4:  -313.53377340268258   -5.02979e-03   1.50674e-05 DIIS
   @DF-RHF iter   5:  -313.53393096078645   -1.57558e-04   4.08339e-06 DIIS
   @DF-RHF iter   6:  -313.53394048872013   -9.52793e-06   1.26683e-06 DIIS
   @DF-RHF iter   7:  -313.53394130503347   -8.16313e-07   2.38232e-07 DIIS
   @DF-RHF iter   8:  -313.53394134493323   -3.98998e-08   5.80472e-08 DIIS
   @DF-RHF iter   9:  -313.53394134720253   -2.26930e-09   1.85517e-08 DIIS
   @DF-RHF iter  10:  -313.53394134741126   -2.08729e-10   5.44882e-09 DIIS
   @DF-RHF iter  11:  -313.53394134742990   -1.86446e-11   1.22198e-09 DIIS
   @DF-RHF iter  12:  -313.53394134743115   -1.25056e-12   3.03654e-10 DIIS
   @DF-RHF iter  13:  -313.53394134743058    5.68434e-13   9.26414e-11 DIIS

  ==> Post-Iterations <==

    Orbital Energies (a.u.)
    -----------------------

    Doubly Occupied:                                                      

       1A    -11.213449     2A    -11.212618     3A    -11.210663  
       4A    -11.210413     5A    -11.209936     6A    -11.209328  
       7A    -11.207203     8A    -11.205538     9A     -1.093135  
      10A     -1.058849    11A     -1.003964    12A     -0.950919  
      13A     -0.888885    14A     -0.826864    15A     -0.777639  
      16A     -0.767713    17A     -0.647424    18A     -0.620510  
      19A     -0.610956    20A     -0.592934    21A     -0.585128  
      22A     -0.559145    23A     -0.541061    24A     -0.530906  
      25A     -0.518530    26A     -0.501283    27A     -0.488376  
      28A     -0.475528    29A     -0.463433    30A     -0.462023  
      31A     -0.450326    32A     -0.435463    33A     -0.427915  

    Virtual:                                                              

      34A      0.029434    35A      0.032910    36A      0.034082  
      37A      0.035299    38A      0.046165    39A      0.047616  
      40A      0.049495    41A      0.054983    42A      0.055699  
      43A      0.065886    44A      0.069281    45A      0.070805  
      46A      0.072470    47A      0.076376    48A      0.087047  
      49A      0.094351    50A      0.097689    51A      0.102093  
      52A      0.113134    53A      0.114265    54A      0.119399  
      55A      0.123142    56A      0.126579    57A      0.130766  
      58A      0.135043    59A      0.135910    60A      0.138829  
      61A      0.143362    62A      0.145517    63A      0.151646  
      64A      0.156543    65A      0.157822    66A      0.161622  
      67A      0.167176    68A      0.168434    69A      0.169856  
      70A      0.172373    71A      0.176137    72A      0.181230  
      73A      0.185060    74A      0.189888    75A      0.198298  
      76A      0.204221    77A      0.208336    78A      0.223096  
      79A      0.225295    80A      0.230708    81A      0.239452  
      82A      0.243800    83A      0.251061    84A      0.259277  
      85A      0.271433    86A      0.273363    87A      0.283460  
      88A      0.286516    89A      0.294662    90A      0.296103  
      91A      0.305512    92A      0.311058    93A      0.311369  
      94A      0.313756    95A      0.314776    96A      0.318767  
      97A      0.324777    98A      0.328206    99A      0.333634  
     100A      0.335060   101A      0.338339   102A      0.340372  
     103A      0.345806   104A      0.348602   105A      0.354023  
     106A      0.356832   107A      0.362227   108A      0.366742  
     109A      0.368026   110A      0.370479   111A      0.373212  
     112A      0.377904   113A      0.381567   114A      0.388250  
     115A      0.393394   116A      0.397677   117A      0.399708  
     118A      0.405969   119A      0.409387   120A      0.410340  
     121A      0.418305   122A      0.420845   123A      0.424527  
     124A      0.426050   125A      0.430373   126A      0.436797  
     127A      0.442142   128A      0.446617   129A      0.451168  
     130A      0.455360   131A      0.459839   132A      0.462073  
     133A      0.467954   134A      0.470564   135A      0.473778  
     136A      0.477661   137A      0.480379   138A      0.484655  
     139A      0.486035   140A      0.487970   141A      0.489469  
     142A      0.495030   143A      0.497490   144A      0.502481  
     145A      0.511137   146A      0.511905   147A      0.524062  
     148A      0.527120   149A      0.528747   150A      0.533282  
     151A      0.541419   152A      0.543939   153A      0.546473  
     154A      0.552913   155A      0.553487   156A      0.560573  
     157A      0.561023   158A      0.567997   159A      0.568529  
     160A      0.571914   161A      0.579164   162A      0.581769  
     163A      0.585800   164A      0.587945   165A      0.595318  
     166A      0.600692   167A      0.606861   168A      0.607701  
     169A      0.613491   170A      0.614800   171A      0.622153  
     172A      0.628125   173A      0.635954   174A      0.638097  
     175A      0.639910   176A      0.647814   177A      0.647920  
     178A      0.653718   179A      0.664898   180A      0.666653  
     181A      0.671089   182A      0.674294   183A      0.683146  
     184A      0.687081   185A      0.690556   186A      0.698424  
     187A      0.700067   188A      0.704638   189A      0.712831  
     190A      0.717401   191A      0.720765   192A      0.732621  
     193A      0.738860   194A      0.741693   195A      0.747226  
     196A      0.750781   197A      0.766484   198A      0.770556  
     199A      0.774789   200A      0.782669   201A      0.805369  
     202A      0.810315   203A      0.812337   204A      0.827218  
     205A      0.831770   206A      0.840522   207A      0.845508  
     208A      0.852260   209A      0.856131   210A      0.864621  
     211A      0.867872   212A      0.873603   213A      0.879831  
     214A      0.885957   215A      0.892557   216A      0.897828  
     217A      0.899508   218A      0.906627   219A      0.911413  
     220A      0.913710   221A      0.920520   222A      0.923623  
     223A      0.925494   224A      0.934071   225A      0.939619  
     226A      0.945707   227A      0.952849   228A      0.955008  
     229A      0.955807   230A      0.961790   231A      0.969588  
     232A      0.975464   233A      0.978030   234A      0.984612  
     235A      0.989536   236A      0.995103   237A      0.998851  
     238A      1.007280   239A      1.010814   240A      1.017812  
     241A      1.024116   242A      1.024604   243A      1.034594  
     244A      1.039890   245A      1.041627   246A      1.049851  
     247A      1.053556   248A      1.056351   249A      1.063778  
     250A      1.067553   251A      1.070338   252A      1.071749  
     253A      1.078665   254A      1.082296   255A      1.093044  
     256A      1.095202   257A      1.101534   258A      1.110848  
     259A      1.115965   260A      1.122742   261A      1.126390  
     262A      1.132662   263A      1.133996   264A      1.144934  
     265A      1.150156   266A      1.153186   267A      1.162150  
     268A      1.165622   269A      1.172592   270A      1.178428  
     271A      1.183584   272A      1.184791   273A      1.187624  
     274A      1.198873   275A      1.202840   276A      1.207986  
     277A      1.212854   278A      1.215943   279A      1.220741  
     280A      1.227131   281A      1.231075   282A      1.234638  
     283A      1.243936   284A      1.251554   285A      1.258913  
     286A      1.266714   287A      1.270564   288A      1.275030  
     289A      1.280458   290A      1.283454   291A      1.287746  
     292A      1.288341   293A      1.292821   294A      1.301710  
     295A      1.310029   296A      1.318187   297A      1.324852  
     298A      1.327528   299A      1.338484   300A      1.345740  
     301A      1.346757   302A      1.352747   303A      1.358075  
     304A      1.361660   305A      1.372153   306A      1.383808  
     307A      1.390528   308A      1.396879   309A      1.406124  
     310A      1.407205   311A      1.411704   312A      1.413213  
     313A      1.427021   314A      1.431050   315A      1.436884  
     316A      1.441545   317A      1.449630   318A      1.460301  
     319A      1.463274   320A      1.474292   321A      1.488031  
     322A      1.492324   323A      1.497050   324A      1.510320  
     325A      1.525415   326A      1.530338   327A      1.539778  
     328A      1.544202   329A      1.548001   330A      1.558968  
     331A      1.560985   332A      1.567285   333A      1.575051  
     334A      1.575436   335A      1.582233   336A      1.590606  
     337A      1.593162   338A      1.602313   339A      1.621589  
     340A      1.630986   341A      1.634075   342A      1.636970  
     343A      1.645512   344A      1.655389   345A      1.660777  
     346A      1.663732   347A      1.675568   348A      1.687091  
     349A      1.692395   350A      1.698708   351A      1.704039  
     352A      1.706458   353A      1.714579   354A      1.718814  
     355A      1.725135   356A      1.734510   357A      1.735672  
     358A      1.744550   359A      1.749342   360A      1.753174  
     361A      1.755879   362A      1.763016   363A      1.770445  
     364A      1.772088   365A      1.774801   366A      1.783798  
     367A      1.787242   368A      1.788832   369A      1.800697  
     370A      1.803307   371A      1.814478   372A      1.819914  
     373A      1.830795   374A      1.835248   375A      1.844659  
     376A      1.847207   377A      1.857228   378A      1.865607  
     379A      1.868532   380A      1.875932   381A      1.879260  
     382A      1.888066   383A      1.894513   384A      1.897573  
     385A      1.901427   386A      1.909908   387A      1.915576  
     388A      1.924176   389A      1.936268   390A      1.939713  
     391A      1.944649   392A      1.950261   393A      1.955058  
     394A      1.968964   395A      1.970587   396A      1.976179  
     397A      1.989257   398A      1.993151   399A      1.999237  
     400A      2.003796   401A      2.016381   402A      2.021202  
     403A      2.031039   404A      2.037159   405A      2.041637  
     406A      2.046085   407A      2.048425   408A      2.056770  
     409A      2.071636   410A      2.077092   411A      2.083679  
     412A      2.087316   413A      2.091010   414A      2.106700  
     415A      2.109333   416A      2.115510   417A      2.126314  
     418A      2.134444   419A      2.143741   420A      2.150627  
     421A      2.153876   422A      2.159147   423A      2.165236  
     424A      2.175375   425A      2.193476   426A      2.197661  
     427A      2.203426   428A      2.214331   429A      2.216152  
     430A      2.233431   431A      2.239597   432A      2.247518  
     433A      2.253859   434A      2.258003   435A      2.266445  
     436A      2.280246   437A      2.296198   438A      2.305078  
     439A      2.311054   440A      2.317913   441A      2.331493  
     442A      2.340346   443A      2.343945   444A      2.352546  
     445A      2.360705   446A      2.365119   447A      2.380969  
     448A      2.388961   449A      2.395966   450A      2.406866  
     451A      2.410062   452A      2.417163   453A      2.435652  
     454A      2.444752   455A      2.449410   456A      2.464212  
     457A      2.476640   458A      2.479419   459A      2.486041  
     460A      2.503193   461A      2.511427   462A      2.522542  
     463A      2.530313   464A      2.542690   465A      2.543349  
     466A      2.564200   467A      2.569112   468A      2.578908  
     469A      2.581422   470A      2.586891   471A      2.610613  
     472A      2.624809   473A      2.638050   474A      2.660406  
     475A      2.666426   476A      2.690090   477A      2.698387  
     478A      2.723458   479A      2.749439   480A      2.757680  
     481A      2.788903   482A      2.821167   483A      2.822548  
     484A      2.831862   485A      2.923939   486A      2.941367  
     487A      3.015532   488A      3.056396   489A      3.101652  
     490A      3.144343   491A      3.202744   492A      3.230323  
     493A      3.302904   494A      3.331794   495A      3.383669  
     496A      3.397938   497A      3.431501   498A      3.455681  
     499A      3.472894   500A      3.488148   501A      3.494474  
     502A      3.503316   503A      3.524008   504A      3.536047  
     505A      3.540471   506A      3.560469   507A      3.575047  
     508A      3.579218   509A      3.586548   510A      3.595172  
     511A      3.600913   512A      3.608750   513A      3.642747  
     514A      3.650091   515A      3.657685   516A      3.666303  
     517A      3.681634   518A      3.697019   519A      3.699416  
     520A      3.702316   521A      3.714883   522A      3.731068  
     523A      3.736848   524A      3.743292   525A      3.753911  
     526A      3.758818   527A      3.768440   528A      3.771597  
     529A      3.782775   530A      3.796627   531A      3.804166  
     532A      3.817177   533A      3.819798   534A      3.828775  
     535A      3.835675   536A      3.836669   537A      3.848868  
     538A      3.858672   539A      3.863249   540A      3.866314  
     541A      3.881598   542A      3.888141   543A      3.897580  
     544A      3.905938   545A      3.911844   546A      3.925185  
     547A      3.932646   548A      3.938419   549A      3.944872  
     550A      3.947688   551A      3.957160   552A      3.965312  
     553A      3.969361   554A      3.983728   555A      3.994475  
     556A      3.999655   557A      4.003510   558A      4.015929  
     559A      4.023551   560A      4.041591   561A      4.045385  
     562A      4.052643   563A      4.053094   564A      4.058694  
     565A      4.070837   566A      4.077715   567A      4.078677  
     568A      4.089158   569A      4.091009   570A      4.098085  
     571A      4.106033   572A      4.113873   573A      4.120686  
     574A      4.137336   575A      4.141869   576A      4.158337  
     577A      4.161711   578A      4.171804   579A      4.176748  
     580A      4.188945   581A      4.199460   582A      4.205916  
     583A      4.219562   584A      4.224912   585A      4.237840  
     586A      4.245298   587A      4.255562   588A      4.262192  
     589A      4.269423   590A      4.272261   591A      4.287782  
     592A      4.292233   593A      4.312390   594A      4.317935  
     595A      4.325167   596A      4.343230   597A      4.345859  
     598A      4.362091   599A      4.367431   600A      4.386166  
     601A      4.391374   602A      4.410349   603A      4.417127  
     604A      4.418424   605A      4.441939   606A      4.443293  
     607A      4.458372   608A      4.461873   609A      4.477210  
     610A      4.479960   611A      4.496274   612A      4.522186  
     613A      4.536088   614A      4.541544   615A      4.552611  
     616A      4.555550   617A      4.586111   618A      4.590309  
     619A      4.611495   620A      4.615060   621A      4.630204  
     622A      4.643009   623A      4.646408   624A      4.675085  
     625A      4.691935   626A      4.701645   627A      4.709761  
     628A      4.716627   629A      4.728928   630A      4.738281  
     631A      4.742198   632A      4.756289   633A      4.772441  
     634A      4.789286   635A      4.792305   636A      4.804840  
     637A      4.814131   638A      4.827189   639A      4.837332  
     640A      4.844398   641A      4.866901   642A      4.869238  
     643A      4.876159   644A      4.883649   645A      4.902767  
     646A      4.918826   647A      4.932647   648A      4.936963  
     649A      4.943401   650A      4.946589   651A      4.962690  
     652A      4.970703   653A      4.977734   654A      4.988806  
     655A      5.004608   656A      5.018944   657A      5.022213  
     658A      5.027902   659A      5.045622   660A      5.068841  
     661A      5.079469   662A      5.102117   663A      5.111489  
     664A      5.117244   665A      5.125393   666A      5.137087  
     667A      5.152848   668A      5.160848   669A      5.173265  
     670A      5.186381   671A      5.192457   672A      5.207325  
     673A      5.222522   674A      5.228832   675A      5.232087  
     676A      5.247382   677A      5.257282   678A      5.266475  
     679A      5.281827   680A      5.292303   681A      5.301139  
     682A      5.307620   683A      5.322365   684A      5.332429  
     685A      5.356196   686A      5.366014   687A      5.374323  
     688A      5.376181   689A      5.398450   690A      5.402260  
     691A      5.413778   692A      5.425361   693A      5.430439  
     694A      5.436226   695A      5.451043   696A      5.469331  
     697A      5.477367   698A      5.482796   699A      5.487188  
     700A      5.497585   701A      5.524890   702A      5.528664  
     703A      5.548164   704A      5.561657   705A      5.573155  
     706A      5.586437   707A      5.587354   708A      5.610346  
     709A      5.627428   710A      5.637363   711A      5.653565  
     712A      5.665799   713A      5.681054   714A      5.696244  
     715A      5.701509   716A      5.707300   717A      5.719072  
     718A      5.729709   719A      5.732968   720A      5.747221  
     721A      5.761872   722A      5.788876   723A      5.793401  
     724A      5.810789   725A      5.822334   726A      5.833167  
     727A      5.855205   728A      5.865946   729A      5.878473  
     730A      5.925259   731A      5.953402   732A      5.977038  
     733A      6.003566   734A      6.030223   735A      6.043178  
     736A      6.066798   737A      6.074342   738A      6.085493  
     739A      6.110281   740A      6.132299   741A      6.141536  
     742A      6.165693   743A      6.180212   744A      6.195918  
     745A      6.233195   746A      6.245998   747A      6.266609  
     748A      6.285209   749A      6.291978   750A      6.307626  
     751A      6.335379   752A      6.341451   753A      6.351842  
     754A      6.374888   755A      6.404290   756A      6.418204  
     757A      6.457237   758A      6.469824   759A      6.609932  
     760A      6.641114   761A      6.663392   762A      6.686331  
     763A      6.760291   764A      6.782730   765A      6.811108  
     766A      6.852504   767A      6.933545   768A      6.957621  
     769A      6.968683   770A      6.979322   771A      7.033854  
     772A      7.068915   773A      7.074709   774A      7.139118  
     775A     17.939391   776A     18.062153   777A     18.482246  
     778A     18.549556   779A     19.090884   780A     19.210590  
     781A     19.691192   782A     20.004271  

    Final Occupation by Irrep:
              A 
    DOCC [    33 ]

  Energy converged.

  @DF-RHF Final Energy:  -313.53394134743058

   => Energetics <=

    Nuclear Repulsion Energy =            398.6062778609482962
    One-Electron Energy =               -1212.3643271670400736
    Two-Electron Energy =                 500.2241079586610795
    DFT Exchange-Correlation Energy =       0.0000000000000000
    Empirical Dispersion Energy =           0.0000000000000000
    PCM Polarization Energy =               0.0000000000000000
    EFP Energy =                            0.0000000000000000
    Total Energy =                       -313.5339413474307548


  Saving occupied orbitals to File 180.

*** tstop() called on wr33 at Wed Sep 21 04:59:04 2016
Module time:
	user time   =     939.19 seconds =      15.65 minutes
	system time =      13.25 seconds =       0.22 minutes
	total time  =         90 seconds =       1.50 minutes
Total time:
	user time   =     939.19 seconds =      15.65 minutes
	system time =      13.25 seconds =       0.22 minutes
	total time  =         90 seconds =       1.50 minutes


Properties will be evaluated at   0.000000,   0.000000,   0.000000 Bohr

Properties computed using the SCF density matrix

  Nuclear Dipole Moment: (a.u.)
     X:     0.0831      Y:     0.0158      Z:    -1.1933

  Electronic Dipole Moment: (a.u.)
     X:    -0.1001      Y:    -0.0200      Z:     1.2212

  Dipole Moment: (a.u.)
     X:    -0.0170      Y:    -0.0041      Z:     0.0279     Total:     0.0329

  Dipole Moment: (Debye)
     X:    -0.0432      Y:    -0.0105      Z:     0.0709     Total:     0.0837


  //>>>>>>>>>>>>>>>>>>>>>>>>>>>>>>>>>>>//
  //               DFMP2               //
  //<<<<<<<<<<<<<<<<<<<<<<<<<<<<<<<<<<<//


*** tstart() called on wr33
*** at Wed Sep 21 04:59:04 2016


*** tstop() called on wr33 at Wed Sep 21 04:59:04 2016
Module time:
	user time   =       4.30 seconds =       0.07 minutes
	system time =       0.24 seconds =       0.00 minutes
	total time  =          0 seconds =       0.00 minutes
Total time:
	user time   =     944.47 seconds =      15.74 minutes
	system time =      13.55 seconds =       0.23 minutes
	total time  =         90 seconds =       1.50 minutes
	 --------------------------------------------------------
	                          DF-MP2                         
	      2nd-Order Density-Fitted Moller-Plesset Theory     
	              RMP2 Wavefunction,  12 Threads             
	                                                         
	        Rob Parrish, Justin Turney, Andy Simmonett,      
	           Ed Hohenstein, and C. David Sherrill          
	 --------------------------------------------------------

   => Auxiliary Basis Set <=

  Basis Set: 
    Number of shells: 476
    Number of basis function: 1676
    Number of Cartesian functions: 2078
    Spherical Harmonics?: true
    Max angular momentum: 4

	 --------------------------------------------------------
	                 NBF =   782, NAUX =  1676
	 --------------------------------------------------------
	   CLASS    FOCC     OCC    AOCC    AVIR     VIR    FVIR
	   PAIRS       8      33      25     749     749       0
	 --------------------------------------------------------

DGAS Warning! /src/lib/libfock/apps.cc:80 is not currently checking restricted

         ------------------------------------------------------------
                                     CPHF                           
                                  Rob Parrish                       
         ------------------------------------------------------------

  ==> Geometry <==

    Molecular point group: c1
    Full point group: C1

    Geometry (in Angstrom), charge = 0, multiplicity = 1:

       Center              X                  Y                   Z               Mass       
    ------------   -----------------  -----------------  -----------------  -----------------
           C         -2.826038565706     0.902621398317    -0.726730542179    12.000000000000
           H         -1.909167120155     1.165495807217    -1.254481410871     1.007825032070
           H         -2.933701711216     1.584407460592     0.118271610237     1.007825032070
           H         -3.659180539997     1.078161422154    -1.407226863537     1.007825032070
           C          2.931519733477    -0.919736457957    -0.801878773397    12.000000000000
           H          3.751956418858    -1.596971907631    -0.563289309619     1.007825032070
           H          3.154072297967    -0.451894665540    -1.761871666553     1.007825032070
           H          2.029649377918    -1.516043170158    -0.927240643695     1.007825032070
           C         -2.802890632547    -0.547599312278    -0.257402971741    12.000000000000
           H         -2.684741768446    -1.204146216972    -1.123938688625     1.007825032070
           H         -3.768547178663    -0.796343215024     0.189022570904     1.007825032070
           C          2.762651660489     0.146345309321     0.277586345330    12.000000000000
           H          2.602806517084    -0.328942976871     1.249931367729     1.007825032070
           H          3.700557813804     0.698810858682     0.361262490407     1.007825032070
           C         -1.695455658003    -0.864842427549     0.747344575846    12.000000000000
           H         -1.790952776144    -1.913121771317     1.037894166649     1.007825032070
           H         -1.852591106850    -0.277952370460     1.658115029823     1.007825032070
           C         -0.279117215218    -0.600349149122     0.214895432440    12.000000000000
           H         -0.285409460490    -0.661725369725    -0.879014314923     1.007825032070
           H          0.393532498326    -1.387336799662     0.561146055573     1.007825032070
           C          0.284856031315     0.750975218006     0.648767047359    12.000000000000
           H         -0.446982357609     1.533626314404     0.437938250026     1.007825032070
           H          0.410417036878     0.736565032951     1.736516661376     1.007825032070
           C          1.617031571008     1.131169657840     0.004325024104    12.000000000000
           H          1.481034210972     1.232885868706    -1.077484145966     1.007825032070
           H          1.895871268871     2.121382951170     0.371535773504     1.007825032070

  Nuclear repulsion =  398.606277860948296
  Reference energy  = -313.533941347430584

  ==> Basis Set <==

  Basis Set: AUG-CC-PVTZ
    Number of shells: 274
    Number of basis function: 782
    Number of Cartesian functions: 890
    Spherical Harmonics?: true
    Max angular momentum: 3

  ==> CGRSolver (by Rob Parrish) <==

   Number of roots    =         1
   Preconditioning    =    JACOBI
   Convergence cutoff =     1E-06
   Maximum iterations =       100

  ==> CPHFRHamiltonian (by Rob Parrish) <== 

  ==> DFJK: Density-Fitted J/K Matrices <==

    J tasked:                  Yes
    K tasked:                  Yes
    wK tasked:                  No
    OpenMP threads:             12
    Integrals threads:          12
    Memory (MB):             42915
    Algorithm:                Core
    Integral Cache:           NONE
    Schwarz Cutoff:          1E-12
    Fitting Condition:       1E-12

   => Auxiliary Basis Set <=

  Basis Set: 
    Number of shells: 492
    Number of basis function: 1660
    Number of Cartesian functions: 2038
    Spherical Harmonics?: true
    Max angular momentum: 4

  ==> CPHF Iterations <==

  => Iterations <=

             Iter  Converged  Remaining    Residual
  CGR           1          0          1   9.231E-02
  CGR           2          0          1   1.318E-02
  CGR           3          0          1   3.560E-03
  CGR           4          0          1   8.240E-04
  CGR           5          0          1   2.058E-04
  CGR           6          0          1   4.471E-05
  CGR           7          0          1   1.280E-05
  CGR           8          0          1   3.168E-06
  CGR           9          1          0   7.867E-07

    CGRSolver converged.

  ==> DFCorrGrad: Density-Fitted Correlated Gradients <==

    OpenMP threads:             12
    Integrals threads:          12
    Memory (MB):             42915
    Schwarz Cutoff:          0E+00
    Fitting Condition:       1E-12

   => Auxiliary Basis Set <=

  Basis Set: 
    Number of shells: 492
    Number of basis function: 1660
    Number of Cartesian functions: 2038
    Spherical Harmonics?: true
    Max angular momentum: 4

	-----------------------------------------------------------
	 ==================> DF-MP2 Energies <==================== 
	-----------------------------------------------------------
	 Reference Energy          =    -313.5339413474305843 [Eh]
	 Singles Energy            =      -0.0000000000000004 [Eh]
	 Same-Spin Energy          =      -0.3167886871194031 [Eh]
	 Opposite-Spin Energy      =      -1.1265923208334014 [Eh]
	 Correlation Energy        =      -1.4433810079528051 [Eh]
	 Total Energy              =    -314.9773223553833645 [Eh]
	-----------------------------------------------------------
	 ================> DF-SCS-MP2 Energies <================== 
	-----------------------------------------------------------
	 SCS Same-Spin Scale       =       0.3333333333333333 [-]
	 SCS Opposite-Spin Scale   =       1.2000000000000000 [-]
	 SCS Same-Spin Energy      =      -0.1055962290398010 [Eh]
	 SCS Opposite-Spin Energy  =      -1.3519107850000818 [Eh]
	 SCS Correlation Energy    =      -1.4575070140398831 [Eh]
	 SCS Total Energy          =    -314.9914483614704750 [Eh]
	-----------------------------------------------------------


  -Total Gradient:
     Atom            X                  Y                   Z
    ------   -----------------  -----------------  -----------------
       1       -0.000000232121    -0.000000499905     0.000000300328
       2        0.000001164206     0.000000413969    -0.000000571769
       3       -0.000000126089     0.000000812580     0.000000871591
       4       -0.000000677397    -0.000000161996    -0.000000458820
       5        0.000000050432     0.000000431401     0.000000268452
       6        0.000000546318    -0.000000305519     0.000000292869
       7        0.000000127836     0.000000311218    -0.000000758052
       8       -0.000000741437    -0.000000479045    -0.000000001242
       9        0.000000608593     0.000000448011     0.000000030335
      10        0.000000084276    -0.000000925260    -0.000001074624
      11       -0.000000717833    -0.000000128804     0.000000572812
      12       -0.000000394084    -0.000000094201    -0.000000614564
      13       -0.000000232888    -0.000000351071     0.000000890488
      14        0.000000542815     0.000000295602    -0.000000246010
      15        0.000000183645     0.000000081669    -0.000000025075
      16       -0.000000292388    -0.000001015289     0.000000098279
      17       -0.000000283070     0.000000766632     0.000001269320
      18       -0.000000462958     0.000000673909     0.000000159965
      19       -0.000000023136    -0.000000268647    -0.000001526094
      20        0.000000634866    -0.000000663944     0.000000300011
      21        0.000000492761    -0.000000716351    -0.000000815786
      22       -0.000000689361     0.000001030831    -0.000000223617
      23        0.000000104800     0.000000143106     0.000000945594
      24        0.000000064097    -0.000000580711     0.000001034173
      25       -0.000000038015     0.000000169528    -0.000001133687
      26        0.000000306135     0.000000612289     0.000000415121


			-----------------------------------------
			 OPTKING 2.0: for geometry optimizations 
			  - R.A. King,  Bethel University        
			-----------------------------------------

	Internal coordinates to be generated automatically.
	Detected frag 1 with atoms:  1 2 3 4 5 6 7 8 9 10 11 12 13 14 15 16 17 18 19 20
	 21 22 23 24 25 26
	---Fragment 1 Bond Connectivity---
	 1 : 2 3 4 9
	 2 : 1
	 3 : 1
	 4 : 1
	 5 : 6 7 8 12
	 6 : 5
	 7 : 5
	 8 : 5
	 9 : 1 10 11 15
	 10 : 9
	 11 : 9
	 12 : 5 13 14 24
	 13 : 12
	 14 : 12
	 15 : 9 16 17 18
	 16 : 15
	 17 : 15
	 18 : 15 19 20 21
	 19 : 18
	 20 : 18
	 21 : 18 22 23 24
	 22 : 21
	 23 : 21
	 24 : 12 21 25 26
	 25 : 24
	 26 : 24

	---Fragment 1 Geometry and Gradient---
	 C          -5.3404389302        1.7057072445       -1.3733216971
	 H          -3.6078029990        2.2024678847       -2.3706263053
	 H          -5.5438927898        2.9940961834        0.2235009526
	 H          -6.9148490914        2.0374298149       -2.6592733789
	 C           5.5397694494       -1.7380500200       -1.5153312735
	 H           7.0901700942       -3.0178395473       -1.0644625288
	 H           5.9603328465       -0.8539571588       -3.3294549311
	 H           3.8354814700       -2.8649063972       -1.7522308759
	 C          -5.2966956759       -1.0348127308       -0.4864211224
	 H          -5.0734266799       -2.2755065740       -2.1239363117
	 H          -7.1215220865       -1.5048705842        0.3572008919
	 C           5.2206550389        0.2765525554        0.5245621709
	 H           4.9185914942       -0.6216121396        2.3620279699
	 H           6.9930408070        1.3205611416        0.6826871690
	 C          -3.2039468641       -1.6343153362        1.4122765752
	 H          -3.3844102638       -3.6152762067        1.9613357299
	 H          -3.5008898282       -0.5252538582        3.1333833032
	 C          -0.5274550957       -1.1344954760        0.4060935145
	 H          -0.5393457161       -1.2504797240       -1.6610963221
	 H           0.7436686462       -2.6216866054        1.0604123656
	 C           0.5382998865        1.4191374946        1.2259920435
	 H          -0.8446742421        2.8981337244        0.8275833557
	 H           0.7755758000        1.3919061913        3.2815409152
	 C           3.0557468174        2.1376008631        0.0081731111
	 H           2.7987490522        2.3298166450       -2.0361499484
	 H           3.5826774814        4.0088328007        0.7021008605
	            -0.0000002321       -0.0000004999        0.0000003003
	             0.0000011642        0.0000004140       -0.0000005718
	            -0.0000001261        0.0000008126        0.0000008716
	            -0.0000006774       -0.0000001620       -0.0000004588
	             0.0000000504        0.0000004314        0.0000002685
	             0.0000005463       -0.0000003055        0.0000002929
	             0.0000001278        0.0000003112       -0.0000007581
	            -0.0000007414       -0.0000004790       -0.0000000012
	             0.0000006086        0.0000004480        0.0000000303
	             0.0000000843       -0.0000009253       -0.0000010746
	            -0.0000007178       -0.0000001288        0.0000005728
	            -0.0000003941       -0.0000000942       -0.0000006146
	            -0.0000002329       -0.0000003511        0.0000008905
	             0.0000005428        0.0000002956       -0.0000002460
	             0.0000001836        0.0000000817       -0.0000000251
	            -0.0000002924       -0.0000010153        0.0000000983
	            -0.0000002831        0.0000007666        0.0000012693
	            -0.0000004630        0.0000006739        0.0000001600
	            -0.0000000231       -0.0000002686       -0.0000015261
	             0.0000006349       -0.0000006639        0.0000003000
	             0.0000004928       -0.0000007164       -0.0000008158
	            -0.0000006894        0.0000010308       -0.0000002236
	             0.0000001048        0.0000001431        0.0000009456
	             0.0000000641       -0.0000005807        0.0000010342
	            -0.0000000380        0.0000001695       -0.0000011337
	             0.0000003061        0.0000006123        0.0000004151

	Previous optimization step data not found.  Starting new optimization.

	---Fragment 1 Intrafragment Coordinates---
	 - Coordinate -           - BOHR/RAD -       - ANG/DEG -
	 R(1,2)           =         2.059955	       1.090081
	 R(1,3)           =         2.061839	       1.091078
	 R(1,4)           =         2.059728	       1.089961
	 R(1,9)           =         2.880791	       1.524449
	 R(5,6)           =         2.060312	       1.090270
	 R(5,7)           =         2.061441	       1.090868
	 R(5,8)           =         2.056824	       1.088424
	 R(5,12)          =         2.884722	       1.526529
	 R(9,10)          =         2.066549	       1.093571
	 R(9,11)          =         2.064617	       1.092548
	 R(9,15)          =         2.888608	       1.528585
	 R(12,13)         =         2.067419	       1.094031
	 R(12,14)         =         2.063082	       1.091736
	 R(12,24)         =         2.901204	       1.535251
	 R(15,16)         =         2.063550	       1.091984
	 R(15,17)         =         2.068913	       1.094822
	 R(15,18)         =         2.902728	       1.536058
	 R(18,19)         =         2.070475	       1.095648
	 R(18,20)         =         2.062917	       1.091649
	 R(18,21)         =         2.886020	       1.527216
	 R(21,22)         =         2.063680	       1.092053
	 R(21,23)         =         2.069377	       1.095067
	 R(21,24)         =         2.887354	       1.527922
	 R(24,25)         =         2.069360	       1.095058
	 R(24,26)         =         2.064146	       1.092299
	 B(1,9,10)        =         1.905857	     109.197544
	 B(1,9,11)        =         1.906002	     109.205895
	 B(1,9,15)        =         1.994126	     114.255001
	 B(2,1,3)         =         1.883105	     107.893967
	 B(2,1,4)         =         1.877398	     107.566965
	 B(2,1,9)         =         1.945168	     111.449921
	 B(3,1,4)         =         1.883319	     107.906217
	 B(3,1,9)         =         1.936400	     110.947563
	 B(4,1,9)         =         1.935880	     110.917745
	 B(5,12,13)       =         1.919041	     109.952957
	 B(5,12,14)       =         1.888692	     108.214092
	 B(5,12,24)       =         1.987414	     113.870419
	 B(6,5,7)         =         1.881215	     107.785691
	 B(6,5,8)         =         1.884330	     107.964176
	 B(6,5,12)        =         1.941530	     111.241454
	 B(7,5,8)         =         1.878268	     107.616829
	 B(7,5,12)        =         1.923416	     110.203610
	 B(8,5,12)        =         1.952384	     111.863391
	 B(9,15,16)       =         1.886798	     108.105543
	 B(9,15,17)       =         1.908763	     109.364042
	 B(9,15,18)       =         1.987160	     113.855876
	 B(10,9,11)       =         1.857281	     106.414359
	 B(10,9,15)       =         1.894383	     108.540154
	 B(11,9,15)       =         1.901287	     108.935730
	 B(12,24,21)      =         1.999750	     114.577254
	 B(12,24,25)      =         1.905083	     109.153214
	 B(12,24,26)      =         1.908365	     109.341273
	 B(13,12,14)      =         1.851721	     106.095769
	 B(13,12,24)      =         1.904821	     109.138221
	 B(14,12,24)      =         1.907200	     109.274520
	 B(15,18,19)      =         1.908310	     109.338131
	 B(15,18,20)      =         1.911418	     109.516194
	 B(15,18,21)      =         1.976192	     113.227469
	 B(16,15,17)      =         1.855329	     106.302499
	 B(16,15,18)      =         1.915763	     109.765148
	 B(17,15,18)      =         1.905402	     109.171480
	 B(18,21,22)      =         1.909026	     109.379141
	 B(18,21,23)      =         1.889034	     108.233676
	 B(18,21,24)      =         2.006801	     114.981222
	 B(19,18,20)      =         1.854416	     106.250198
	 B(19,18,21)      =         1.912751	     109.592586
	 B(20,18,21)      =         1.896774	     108.677155
	 B(21,24,25)      =         1.908695	     109.360179
	 B(21,24,26)      =         1.882158	     107.839719
	 B(22,21,23)      =         1.852547	     106.143133
	 B(22,21,24)      =         1.901317	     108.937441
	 B(23,21,24)      =         1.898914	     108.799758
	 B(25,24,26)      =         1.854186	     106.237049
	 D(1,9,15,16)     =         3.110312	     178.207777
	 D(1,9,15,17)     =         1.097293	      62.870281
	 D(1,9,15,18)     =        -1.039221	     -59.542954
	 D(2,1,9,10)      =        -1.033377	     -59.208164
	 D(2,1,9,11)      =        -3.057712	    -175.194016
	 D(2,1,9,15)      =         1.091516	      62.539241
	 D(3,1,9,10)      =        -3.132273	    -179.465998
	 D(3,1,9,11)      =         1.126578	      64.548150
	 D(3,1,9,15)      =        -1.007379	     -57.718593
	 D(4,1,9,10)      =         1.057943	      60.615648
	 D(4,1,9,11)      =        -0.966392	     -55.370205
	 D(4,1,9,15)      =        -3.100350	    -177.636948
	 D(5,12,24,21)    =         1.634111	      93.627644
	 D(5,12,24,25)    =        -0.512767	     -29.379411
	 D(5,12,24,26)    =        -2.534283	    -145.203702
	 D(6,5,12,13)     =        -0.993648	     -56.931859
	 D(6,5,12,14)     =         1.021604	      58.533611
	 D(6,5,12,24)     =        -3.137334	    -179.756015
	 D(7,5,12,13)     =        -3.079121	    -176.420622
	 D(7,5,12,14)     =        -1.063868	     -60.955152
	 D(7,5,12,24)     =         1.060379	      60.755222
	 D(8,5,12,13)     =         1.115264	      63.899903
	 D(8,5,12,14)     =         3.130516	     179.365374
	 D(8,5,12,24)     =        -1.028422	     -58.924252
	 D(9,15,18,19)    =        -0.434656	     -24.903968
	 D(9,15,18,20)    =        -2.459969	    -140.945857
	 D(9,15,18,21)    =         1.703418	      97.598688
	 D(10,9,15,16)    =        -1.041687	     -59.684248
	 D(10,9,15,17)    =        -3.054706	    -175.021744
	 D(10,9,15,18)    =         1.091966	      62.565021
	 D(11,9,15,16)    =         0.973781	      55.793522
	 D(11,9,15,17)    =        -1.039238	     -59.543973
	 D(11,9,15,18)    =         3.107433	     178.042791
	 D(12,24,21,18)   =        -1.040240	     -59.601355
	 D(12,24,21,22)   =         3.093530	     177.246204
	 D(12,24,21,23)   =         1.081212	      61.948893
	 D(13,12,24,21)   =        -0.517335	     -29.641122
	 D(13,12,24,25)   =        -2.664213	    -152.648177
	 D(13,12,24,26)   =         1.597457	      91.527532
	 D(14,12,24,21)   =        -2.535111	    -145.251156
	 D(14,12,24,25)   =         1.601196	      91.741789
	 D(14,12,24,26)   =        -0.420319	     -24.082501
	 D(15,18,21,22)   =        -0.870803	     -49.893313
	 D(15,18,21,23)   =         1.140277	      65.333057
	 D(15,18,21,24)   =        -3.016099	    -172.809762
	 D(16,15,18,19)   =         1.682962	      96.426623
	 D(16,15,18,20)   =        -0.342351	     -19.615266
	 D(16,15,18,21)   =        -2.462149	    -141.070721
	 D(17,15,18,19)   =        -2.573017	    -147.423001
	 D(17,15,18,20)   =         1.684856	      96.535110
	 D(17,15,18,21)   =        -0.434942	     -24.920345
	 D(18,21,24,25)   =         1.104691	      63.294156
	 D(18,21,24,26)   =         3.113813	     178.408349
	 D(19,18,21,22)   =         1.264802	      72.467803
	 D(19,18,21,23)   =        -3.007304	    -172.305827
	 D(19,18,21,24)   =        -0.880495	     -50.448646
	 D(20,18,21,22)   =        -2.998812	    -171.819285
	 D(20,18,21,23)   =        -0.987733	     -56.592916
	 D(20,18,21,24)   =         1.139076	      65.264265
	 D(22,21,24,25)   =        -1.044724	     -59.858285
	 D(22,21,24,26)   =         0.964398	      55.255908
	 D(23,21,24,25)   =        -3.057042	    -175.155596
	 D(23,21,24,26)   =        -1.047920	     -60.041403
	 R(1,21)          =         6.434137	       3.404799
	 R(5,18)          =         6.392759	       3.382902

	Current energy   :      -314.9773223554

	Generating empirical Hessian (Schlegel '84) for each fragment.
	Taking RFO optimization step.
	Going to follow RFO solution 1.
	Using RFO vector 1.
	Norm of target step-size    0.00025
	Projected energy change by RFO approximation:        -0.0000000003

	Back-transformation to cartesian coordinates...
	Successfully converged to displaced geometry.

	--- Internal Coordinate Step in ANG or DEG, aJ/ANG or AJ/DEG ---
	 ---------------------------------------------------------------------------
	   Coordinate                Previous        Force       Change         New 
	   ----------                --------       ------       ------       ------
	    1 R(1,2)          =      1.090081    -0.000011    -0.000002     1.090079
	    2 R(1,3)          =      1.091078    -0.000010    -0.000002     1.091077
	    3 R(1,4)          =      1.089961    -0.000006    -0.000001     1.089960
	    4 R(1,9)          =      1.524449    -0.000004    -0.000001     1.524448
	    5 R(5,6)          =      1.090270    -0.000005    -0.000001     1.090269
	    6 R(5,7)          =      1.090868    -0.000007    -0.000001     1.090866
	    7 R(5,8)          =      1.088424    -0.000007    -0.000001     1.088423
	    8 R(5,12)         =      1.526529    -0.000001    -0.000000     1.526529
	    9 R(9,10)         =      1.093571    -0.000012    -0.000002     1.093569
	   10 R(9,11)         =      1.092548    -0.000007    -0.000001     1.092547
	   11 R(9,15)         =      1.528585    -0.000002    -0.000000     1.528585
	   12 R(12,13)        =      1.094031    -0.000008    -0.000002     1.094030
	   13 R(12,14)        =      1.091736    -0.000005    -0.000001     1.091735
	   14 R(12,24)        =      1.535251     0.000000    -0.000000     1.535251
	   15 R(15,16)        =      1.091984    -0.000008    -0.000002     1.091982
	   16 R(15,17)        =      1.094822    -0.000012    -0.000002     1.094819
	   17 R(15,18)        =      1.536058    -0.000005    -0.000001     1.536057
	   18 R(18,19)        =      1.095648    -0.000013    -0.000002     1.095646
	   19 R(18,20)        =      1.091649    -0.000008    -0.000001     1.091647
	   20 R(18,21)        =      1.527216    -0.000005    -0.000001     1.527215
	   21 R(21,22)        =      1.092053    -0.000010    -0.000002     1.092051
	   22 R(21,23)        =      1.095067    -0.000008    -0.000001     1.095066
	   23 R(21,24)        =      1.527922    -0.000001    -0.000001     1.527921
	   24 R(24,25)        =      1.095058    -0.000009    -0.000002     1.095056
	   25 R(24,26)        =      1.092299    -0.000006    -0.000001     1.092298
	   26 B(1,9,10)       =    109.197544    -0.000000    -0.000100   109.197444
	   27 B(1,9,11)       =    109.205895     0.000000     0.000051   109.205946
	   28 B(1,9,15)       =    114.255001    -0.000000     0.000009   114.255010
	   29 B(2,1,3)        =    107.893967     0.000000     0.000007   107.893974
	   30 B(2,1,4)        =    107.566965    -0.000000    -0.000046   107.566920
	   31 B(2,1,9)        =    111.449921    -0.000000    -0.000065   111.449856
	   32 B(3,1,4)        =    107.906217    -0.000000    -0.000020   107.906197
	   33 B(3,1,9)        =    110.947563    -0.000000    -0.000068   110.947496
	   34 B(4,1,9)        =    110.917745     0.000000     0.000188   110.917933
	   35 B(5,12,13)      =    109.952957     0.000000    -0.000093   109.952864
	   36 B(5,12,14)      =    108.214092     0.000000     0.000185   108.214277
	   37 B(5,12,24)      =    113.870419    -0.000000    -0.000135   113.870284
	   38 B(6,5,7)        =    107.785691    -0.000000    -0.000033   107.785658
	   39 B(6,5,8)        =    107.964176    -0.000000    -0.000023   107.964152
	   40 B(6,5,12)       =    111.241454     0.000000     0.000122   111.241576
	   41 B(7,5,8)        =    107.616829    -0.000000    -0.000040   107.616789
	   42 B(7,5,12)       =    110.203610    -0.000000    -0.000060   110.203550
	   43 B(8,5,12)       =    111.863391     0.000000     0.000028   111.863418
	   44 B(9,15,16)      =    108.105543     0.000000     0.000150   108.105693
	   45 B(9,15,17)      =    109.364042    -0.000000    -0.000089   109.363953
	   46 B(9,15,18)      =    113.855876     0.000000     0.000190   113.856066
	   47 B(10,9,11)      =    106.414359    -0.000000    -0.000030   106.414329
	   48 B(10,9,15)      =    108.540154     0.000000    -0.000046   108.540108
	   49 B(11,9,15)      =    108.935730     0.000000     0.000111   108.935842
	   50 B(12,24,21)     =    114.577254     0.000000    -0.000125   114.577129
	   51 B(12,24,25)     =    109.153214     0.000000    -0.000008   109.153206
	   52 B(12,24,26)     =    109.341273     0.000000     0.000151   109.341424
	   53 B(13,12,14)     =    106.095769    -0.000000    -0.000060   106.095710
	   54 B(13,12,24)     =    109.138221     0.000000    -0.000013   109.138208
	   55 B(14,12,24)     =    109.274520     0.000000     0.000124   109.274643
	   56 B(15,18,19)     =    109.338131    -0.000000    -0.000143   109.337988
	   57 B(15,18,20)     =    109.516194     0.000000     0.000150   109.516344
	   58 B(15,18,21)     =    113.227469     0.000000     0.000007   113.227476
	   59 B(16,15,17)     =    106.302499     0.000000    -0.000068   106.302431
	   60 B(16,15,18)     =    109.765148    -0.000000    -0.000046   109.765103
	   61 B(17,15,18)     =    109.171480    -0.000000    -0.000151   109.171329
	   62 B(18,21,22)     =    109.379141    -0.000000    -0.000126   109.379015
	   63 B(18,21,23)     =    108.233676    -0.000000     0.000073   108.233750
	   64 B(18,21,24)     =    114.981222    -0.000000    -0.000185   114.981037
	   65 B(19,18,20)     =    106.250198     0.000000     0.000043   106.250241
	   66 B(19,18,21)     =    109.592586    -0.000000    -0.000185   109.592401
	   67 B(20,18,21)     =    108.677155     0.000000     0.000134   108.677289
	   68 B(21,24,25)     =    109.360179    -0.000000    -0.000089   109.360091
	   69 B(21,24,26)     =    107.839719    -0.000000     0.000086   107.839805
	   70 B(22,21,23)     =    106.143133     0.000000     0.000085   106.143218
	   71 B(22,21,24)     =    108.937441     0.000000    -0.000012   108.937429
	   72 B(23,21,24)     =    108.799758     0.000000     0.000188   108.799947
	   73 B(25,24,26)     =    106.237049    -0.000000    -0.000006   106.237044
	   74 D(1,9,15,16)    =    178.207777     0.000000     0.000097   178.207873
	   75 D(1,9,15,17)    =     62.870281     0.000000     0.000144    62.870425
	   76 D(1,9,15,18)    =    -59.542954     0.000000     0.000274   -59.542680
	   77 D(2,1,9,10)     =    -59.208164    -0.000000     0.000964   -59.207200
	   78 D(2,1,9,11)     =   -175.194016     0.000000     0.001027  -175.192989
	   79 D(2,1,9,15)     =     62.539241    -0.000000     0.000837    62.540078
	   80 D(3,1,9,10)     =   -179.465998     0.000000     0.001044  -179.464954
	   81 D(3,1,9,11)     =     64.548150     0.000000     0.001107    64.549257
	   82 D(3,1,9,15)     =    -57.718593     0.000000     0.000917   -57.717676
	   83 D(4,1,9,10)     =     60.615648     0.000000     0.000989    60.616637
	   84 D(4,1,9,11)     =    -55.370205     0.000000     0.001052   -55.369152
	   85 D(4,1,9,15)     =   -177.636948    -0.000000     0.000862  -177.636085
	   86 D(5,12,24,21)   =     93.627644     0.000000     0.001020    93.628664
	   87 D(5,12,24,25)   =    -29.379411     0.000000     0.001231   -29.378180
	   88 D(5,12,24,26)   =   -145.203702     0.000000     0.001158  -145.202543
	   89 D(6,5,12,13)    =    -56.931859     0.000000     0.000947   -56.930912
	   90 D(6,5,12,14)    =     58.533611    -0.000000     0.000929    58.534541
	   91 D(6,5,12,24)    =   -179.756015     0.000000     0.001132  -179.754883
	   92 D(7,5,12,13)    =   -176.420622     0.000000     0.000949  -176.419673
	   93 D(7,5,12,14)    =    -60.955152    -0.000000     0.000931   -60.954220
	   94 D(7,5,12,24)    =     60.755222     0.000000     0.001134    60.756356
	   95 D(8,5,12,13)    =     63.899903     0.000000     0.001022    63.900925
	   96 D(8,5,12,14)    =    179.365374     0.000000     0.001004   179.366378
	   97 D(8,5,12,24)    =    -58.924252     0.000000     0.001206   -58.923046
	   98 D(9,15,18,19)   =    -24.903968    -0.000000     0.000216   -24.903751
	   99 D(9,15,18,20)   =   -140.945857    -0.000000     0.000161  -140.945696
	  100 D(9,15,18,21)   =     97.598688    -0.000000    -0.000123    97.598565
	  101 D(10,9,15,16)   =    -59.684248    -0.000000    -0.000059   -59.684308
	  102 D(10,9,15,17)   =   -175.021744    -0.000000    -0.000012  -175.021756
	  103 D(10,9,15,18)   =     62.565021     0.000000     0.000118    62.565139
	  104 D(11,9,15,16)   =     55.793522    -0.000000    -0.000060    55.793462
	  105 D(11,9,15,17)   =    -59.543973    -0.000000    -0.000013   -59.543986
	  106 D(11,9,15,18)   =    178.042791     0.000000     0.000117   178.042909
	  107 D(12,24,21,18)  =    -59.601355    -0.000000    -0.001153   -59.602508
	  108 D(12,24,21,22)  =    177.246204     0.000000    -0.000845   177.245359
	  109 D(12,24,21,23)  =     61.948893    -0.000000    -0.001042    61.947851
	  110 D(13,12,24,21)  =    -29.641122     0.000000     0.001246   -29.639876
	  111 D(13,12,24,25)  =   -152.648177     0.000000     0.001457  -152.646720
	  112 D(13,12,24,26)  =     91.527532     0.000000     0.001385    91.528917
	  113 D(14,12,24,21)  =   -145.251156     0.000000     0.001256  -145.249900
	  114 D(14,12,24,25)  =     91.741789     0.000000     0.001467    91.743256
	  115 D(14,12,24,26)  =    -24.082501     0.000000     0.001395   -24.081107
	  116 D(15,18,21,22)  =    -49.893313     0.000000     0.004319   -49.888994
	  117 D(15,18,21,23)  =     65.333057     0.000000     0.004392    65.337449
	  118 D(15,18,21,24)  =   -172.809762     0.000000     0.004566  -172.805196
	  119 D(16,15,18,19)  =     96.426623     0.000000     0.000507    96.427130
	  120 D(16,15,18,20)  =    -19.615266     0.000000     0.000452   -19.614814
	  121 D(16,15,18,21)  =   -141.070721     0.000000     0.000168  -141.070553
	  122 D(17,15,18,19)  =   -147.423001     0.000000     0.000313  -147.422688
	  123 D(17,15,18,20)  =     96.535110    -0.000000     0.000258    96.535368
	  124 D(17,15,18,21)  =    -24.920345    -0.000000    -0.000026   -24.920371
	  125 D(18,21,24,25)  =     63.294156    -0.000000    -0.001321    63.292835
	  126 D(18,21,24,26)  =    178.408349    -0.000000    -0.001327   178.407021
	  127 D(19,18,21,22)  =     72.467803     0.000000     0.004003    72.471806
	  128 D(19,18,21,23)  =   -172.305827    -0.000000     0.004076  -172.301751
	  129 D(19,18,21,24)  =    -50.448646     0.000000     0.004250   -50.444396
	  130 D(20,18,21,22)  =   -171.819285     0.000000     0.004027  -171.815258
	  131 D(20,18,21,23)  =    -56.592916    -0.000000     0.004101   -56.588815
	  132 D(20,18,21,24)  =     65.264265     0.000000     0.004275    65.268540
	  133 D(22,21,24,25)  =    -59.858285     0.000000    -0.001013   -59.859298
	  134 D(22,21,24,26)  =     55.255908     0.000000    -0.001020    55.254888
	  135 D(23,21,24,25)  =   -175.155596    -0.000000    -0.001210  -175.156805
	  136 D(23,21,24,26)  =    -60.041403    -0.000000    -0.001216   -60.042620
	  137 R(1,21)         =      3.404799     0.000000    -0.000001     3.404798
	  138 R(5,18)         =      3.382902    -0.000000     0.000014     3.382916
	 ---------------------------------------------------------------------------

  ==> Convergence Check <==

  Measures of convergence in internal coordinates in au.
  Criteria marked as inactive (o), active & met (*), and active & unmet ( ).
  --------------------------------------------------------------------------------------------- ~
   Step     Total Energy     Delta E     MAX Force     RMS Force      MAX Disp      RMS Disp    ~
  --------------------------------------------------------------------------------------------- ~
    Convergence Criteria             o    2.00e-06 *    1.00e-06 *    6.00e-06 *    4.00e-06 *  ~
  --------------------------------------------------------------------------------------------- ~
      1    -314.97732236   -3.15e+02 o    1.54e-06 *    4.15e-07 *    7.97e-05      2.15e-05    ~
  ---------------------------------------------------------------------------------------------

	Writing optimization data to binary file.
	Structure for next step:
	Cartesian Geometry (in Angstrom)
	    C    -2.8259914767   0.9026188864  -0.7267710018
	    H    -1.9091090373   1.1654637629  -1.2545132054
	    H    -2.9336503437   1.5844198838   0.1182173140
	    H    -3.6591192702   1.0781672522  -1.4072806255
	    C     2.9315053764  -0.9197127214  -0.8019168631
	    H     3.7519445140  -1.5969500179  -0.5633456999
	    H     3.1540468425  -0.4518594073  -1.7619052886
	    H     2.0296355751  -1.5160182445  -0.9272770403
	    C    -2.8028792325  -0.5475932506  -0.2574179629
	    H    -2.6847152095  -1.2041540754  -1.1239382808
	    H    -3.7685514399  -0.7963157440   0.1889822924
	    C     2.7626468987   0.1463565050   0.2775615889
	    H     2.6028298481  -0.3289438794   1.2499036004
	    H     3.7005454338   0.6988351204   0.3612248936
	    C    -1.6954767957  -0.8648366741   0.7473648903
	    H    -1.7909950650  -1.9131081676   1.0379299211
	    H    -1.8526300972  -0.2779308844   1.6581193552
	    C    -0.2791190489  -0.6003705899   0.2149567678
	    H    -0.2853814422  -0.6617582022  -0.8789501177
	    H     0.3935095294  -1.3873621572   0.5612348944
	    C     0.2848580796   0.7509520486   0.6488247472
	    H    -0.4469942922   1.5335967726   0.4380307064
	    H     0.4104589950   0.7365304559   1.7365681182
	    C     1.6170043409   1.1311633996   0.0043338445
	    H     1.4809663600   1.2328682818  -1.0774695192
	    H     1.8958413034   2.1213831356   0.3715257408
			--------------------------
			 OPTKING Finished Execution 
			--------------------------

    Structure for next step:
    Molecular point group: c1
    Full point group: C1

    Geometry (in Angstrom), charge = 0, multiplicity = 1:

    C           -2.825990630859     0.902619525204    -0.726773878702
    H           -1.909108191450     1.165464401678    -1.254516082308
    H           -2.933649497890     1.584420522542     0.118214437154
    H           -3.659118424350     1.078167891015    -1.407283502381
    C            2.931506222186    -0.919712082601    -0.801919740031
    H            3.751945359870    -1.596949379123    -0.563348576751
    H            3.154047688301    -0.451858768483    -1.761908165444
    H            2.029636420978    -1.516017605678    -0.927279917195
    C           -2.802878386644    -0.547592611790    -0.257420839780
    H           -2.684714363711    -1.204153436578    -1.123941157665
    H           -3.768550594080    -0.796315105211     0.188979415495
    C            2.762647744522     0.146357143776     0.277558711997
    H            2.602830693936    -0.328943240581     1.249900723470
    H            3.700546279658     0.698835759224     0.361222016752
    C           -1.695475949915    -0.864836035335     0.747362013361
    H           -1.790994219190    -1.913107528794     1.037927044257
    H           -1.852629251357    -0.277930245573     1.658116478313
    C           -0.279118203034    -0.600369951131     0.214953890922
    H           -0.285380596383    -0.661757563377    -0.878952994557
    H            0.393510375208    -1.387361518439     0.561232017494
    C            0.284858925476     0.750952687361     0.648821870354
    H           -0.446993446392     1.533597411348     0.438027829499
    H            0.410459840832     0.736531094646     1.736565241349
    C            1.617005186768     1.131164038348     0.004330967650
    H            1.480967205832     1.232868920559    -1.077472396132
    H            1.895842149210     2.121383774430     0.371522863940

gradient() will perform analytic gradient computation.

*** tstart() called on wr33
*** at Wed Sep 21 05:05:21 2016


         ---------------------------------------------------------
                                   SCF
            by Justin Turney, Rob Parrish, and Andy Simmonett
                              RHF Reference
                       12 Threads,  60000 MiB Core
         ---------------------------------------------------------

  ==> Geometry <==

    Molecular point group: c1
    Full point group: C1

    Geometry (in Angstrom), charge = 0, multiplicity = 1:

       Center              X                  Y                   Z               Mass       
    ------------   -----------------  -----------------  -----------------  -----------------
           C         -2.825990630859     0.902619525204    -0.726773878702    12.000000000000
           H         -1.909108191450     1.165464401678    -1.254516082308     1.007825032070
           H         -2.933649497890     1.584420522542     0.118214437154     1.007825032070
           H         -3.659118424350     1.078167891015    -1.407283502381     1.007825032070
           C          2.931506222186    -0.919712082601    -0.801919740031    12.000000000000
           H          3.751945359870    -1.596949379123    -0.563348576751     1.007825032070
           H          3.154047688301    -0.451858768483    -1.761908165444     1.007825032070
           H          2.029636420978    -1.516017605678    -0.927279917195     1.007825032070
           C         -2.802878386644    -0.547592611790    -0.257420839780    12.000000000000
           H         -2.684714363711    -1.204153436578    -1.123941157665     1.007825032070
           H         -3.768550594080    -0.796315105211     0.188979415495     1.007825032070
           C          2.762647744522     0.146357143776     0.277558711997    12.000000000000
           H          2.602830693936    -0.328943240581     1.249900723470     1.007825032070
           H          3.700546279658     0.698835759224     0.361222016752     1.007825032070
           C         -1.695475949915    -0.864836035335     0.747362013361    12.000000000000
           H         -1.790994219190    -1.913107528794     1.037927044257     1.007825032070
           H         -1.852629251357    -0.277930245573     1.658116478313     1.007825032070
           C         -0.279118203034    -0.600369951131     0.214953890922    12.000000000000
           H         -0.285380596383    -0.661757563377    -0.878952994557     1.007825032070
           H          0.393510375208    -1.387361518439     0.561232017494     1.007825032070
           C          0.284858925476     0.750952687361     0.648821870354    12.000000000000
           H         -0.446993446392     1.533597411348     0.438027829499     1.007825032070
           H          0.410459840832     0.736531094646     1.736565241349     1.007825032070
           C          1.617005186768     1.131164038348     0.004330967650    12.000000000000
           H          1.480967205832     1.232868920559    -1.077472396132     1.007825032070
           H          1.895842149210     2.121383774430     0.371522863940     1.007825032070

  Running in c1 symmetry.

  Rotational constants: A =      0.12422  B =      0.02761  C =      0.02596 [cm^-1]
  Rotational constants: A =   3724.08990  B =    827.60803  C =    778.28718 [MHz]
  Nuclear repulsion =  398.606743756163098

  Charge       = 0
  Multiplicity = 1
  Electrons    = 66
  Nalpha       = 33
  Nbeta        = 33

  ==> Algorithm <==

  SCF Algorithm Type is DF.
  DIIS enabled.
  MOM disabled.
  Fractional occupation disabled.
  Guess Type is READ.
  Energy threshold   = 1.00e-10
  Density threshold  = 1.00e-10
  Integral threshold = 0.00e+00

  ==> Primary Basis <==

  Basis Set: AUG-CC-PVTZ
    Number of shells: 274
    Number of basis function: 782
    Number of Cartesian functions: 890
    Spherical Harmonics?: true
    Max angular momentum: 3

  ==> Pre-Iterations <==

   -------------------------------------------------------
    Irrep   Nso     Nmo     Nalpha   Nbeta   Ndocc  Nsocc
   -------------------------------------------------------
     A        782     782       0       0       0       0
   -------------------------------------------------------
    Total     782     782      33      33      33       0
   -------------------------------------------------------

  ==> Integral Setup <==

  ==> DFJK: Density-Fitted J/K Matrices <==

    J tasked:                  Yes
    K tasked:                  Yes
    wK tasked:                  No
    OpenMP threads:             12
    Integrals threads:          12
    Memory (MB):             42915
    Algorithm:                Core
    Integral Cache:           NONE
    Schwarz Cutoff:          1E-12
    Fitting Condition:       1E-12

   => Auxiliary Basis Set <=

  Basis Set: 
    Number of shells: 492
    Number of basis function: 1660
    Number of Cartesian functions: 2038
    Spherical Harmonics?: true
    Max angular momentum: 4

  Minimum eigenvalue in the overlap matrix is 1.4997339583E-06.
  Using Symmetric Orthogonalization.
  SCF Guess: Reading in previously saved MOs, projecting if necessary.

  Using orbitals from previous SCF, no projection.
  Recomputing DOCC and SOCC from number of alpha and beta electrons from previous calculation.
              A 
    DOCC [    33 ]

  ==> Iterations <==

                           Total Energy        Delta E     RMS |[F,P]|

   @DF-RHF iter   0:  -313.53398838909192   -3.13534e+02   1.42123e-07 
   @DF-RHF iter   1:  -313.53394167159757    4.67175e-05   2.85578e-08 
   @DF-RHF iter   2:  -313.53394167200548   -4.07908e-10   1.19637e-08 DIIS
   @DF-RHF iter   3:  -313.53394167206346   -5.79803e-11   4.33294e-09 DIIS
   @DF-RHF iter   4:  -313.53394167207551   -1.20508e-11   5.05828e-10 DIIS
   @DF-RHF iter   5:  -313.53394167207574   -2.27374e-13   1.60072e-10 DIIS
   @DF-RHF iter   6:  -313.53394167207517    5.68434e-13   4.49671e-11 DIIS

  ==> Post-Iterations <==

    Orbital Energies (a.u.)
    -----------------------

    Doubly Occupied:                                                      

       1A    -11.213449     2A    -11.212617     3A    -11.210662  
       4A    -11.210412     5A    -11.209935     6A    -11.209327  
       7A    -11.207202     8A    -11.205537     9A     -1.093136  
      10A     -1.058849    11A     -1.003964    12A     -0.950920  
      13A     -0.888885    14A     -0.826864    15A     -0.777640  
      16A     -0.767714    17A     -0.647423    18A     -0.620511  
      19A     -0.610958    20A     -0.592934    21A     -0.585127  
      22A     -0.559146    23A     -0.541062    24A     -0.530907  
      25A     -0.518529    26A     -0.501283    27A     -0.488377  
      28A     -0.475528    29A     -0.463433    30A     -0.462023  
      31A     -0.450325    32A     -0.435464    33A     -0.427916  

    Virtual:                                                              

      34A      0.029434    35A      0.032910    36A      0.034082  
      37A      0.035299    38A      0.046165    39A      0.047616  
      40A      0.049495    41A      0.054984    42A      0.055699  
      43A      0.065886    44A      0.069281    45A      0.070804  
      46A      0.072470    47A      0.076376    48A      0.087047  
      49A      0.094351    50A      0.097690    51A      0.102094  
      52A      0.113134    53A      0.114265    54A      0.119399  
      55A      0.123142    56A      0.126579    57A      0.130766  
      58A      0.135043    59A      0.135910    60A      0.138829  
      61A      0.143363    62A      0.145517    63A      0.151646  
      64A      0.156543    65A      0.157823    66A      0.161621  
      67A      0.167176    68A      0.168435    69A      0.169856  
      70A      0.172373    71A      0.176137    72A      0.181229  
      73A      0.185060    74A      0.189888    75A      0.198298  
      76A      0.204221    77A      0.208336    78A      0.223095  
      79A      0.225294    80A      0.230708    81A      0.239453  
      82A      0.243803    83A      0.251061    84A      0.259277  
      85A      0.271432    86A      0.273363    87A      0.283460  
      88A      0.286515    89A      0.294662    90A      0.296104  
      91A      0.305512    92A      0.311057    93A      0.311369  
      94A      0.313756    95A      0.314775    96A      0.318767  
      97A      0.324778    98A      0.328205    99A      0.333635  
     100A      0.335060   101A      0.338340   102A      0.340371  
     103A      0.345806   104A      0.348602   105A      0.354024  
     106A      0.356833   107A      0.362227   108A      0.366742  
     109A      0.368026   110A      0.370480   111A      0.373211  
     112A      0.377904   113A      0.381567   114A      0.388250  
     115A      0.393393   116A      0.397678   117A      0.399707  
     118A      0.405968   119A      0.409386   120A      0.410340  
     121A      0.418305   122A      0.420846   123A      0.424526  
     124A      0.426052   125A      0.430374   126A      0.436795  
     127A      0.442143   128A      0.446616   129A      0.451168  
     130A      0.455361   131A      0.459838   132A      0.462075  
     133A      0.467954   134A      0.470564   135A      0.473777  
     136A      0.477663   137A      0.480380   138A      0.484656  
     139A      0.486036   140A      0.487970   141A      0.489469  
     142A      0.495030   143A      0.497493   144A      0.502482  
     145A      0.511136   146A      0.511905   147A      0.524063  
     148A      0.527121   149A      0.528745   150A      0.533283  
     151A      0.541420   152A      0.543939   153A      0.546473  
     154A      0.552914   155A      0.553486   156A      0.560572  
     157A      0.561023   158A      0.567997   159A      0.568527  
     160A      0.571914   161A      0.579164   162A      0.581767  
     163A      0.585800   164A      0.587946   165A      0.595318  
     166A      0.600692   167A      0.606863   168A      0.607704  
     169A      0.613490   170A      0.614800   171A      0.622155  
     172A      0.628126   173A      0.635954   174A      0.638097  
     175A      0.639910   176A      0.647813   177A      0.647919  
     178A      0.653721   179A      0.664899   180A      0.666653  
     181A      0.671089   182A      0.674295   183A      0.683149  
     184A      0.687082   185A      0.690556   186A      0.698425  
     187A      0.700068   188A      0.704639   189A      0.712830  
     190A      0.717400   191A      0.720764   192A      0.732622  
     193A      0.738862   194A      0.741694   195A      0.747228  
     196A      0.750783   197A      0.766489   198A      0.770556  
     199A      0.774787   200A      0.782669   201A      0.805369  
     202A      0.810312   203A      0.812337   204A      0.827218  
     205A      0.831770   206A      0.840521   207A      0.845505  
     208A      0.852262   209A      0.856134   210A      0.864622  
     211A      0.867866   212A      0.873600   213A      0.879832  
     214A      0.885958   215A      0.892558   216A      0.897831  
     217A      0.899513   218A      0.906627   219A      0.911412  
     220A      0.913709   221A      0.920522   222A      0.923625  
     223A      0.925494   224A      0.934073   225A      0.939617  
     226A      0.945705   227A      0.952851   228A      0.955010  
     229A      0.955807   230A      0.961791   231A      0.969589  
     232A      0.975465   233A      0.978028   234A      0.984613  
     235A      0.989534   236A      0.995105   237A      0.998852  
     238A      1.007283   239A      1.010814   240A      1.017813  
     241A      1.024115   242A      1.024608   243A      1.034591  
     244A      1.039894   245A      1.041627   246A      1.049848  
     247A      1.053557   248A      1.056351   249A      1.063779  
     250A      1.067551   251A      1.070336   252A      1.071752  
     253A      1.078665   254A      1.082297   255A      1.093043  
     256A      1.095200   257A      1.101537   258A      1.110848  
     259A      1.115963   260A      1.122747   261A      1.126386  
     262A      1.132661   263A      1.133996   264A      1.144930  
     265A      1.150154   266A      1.153186   267A      1.162153  
     268A      1.165622   269A      1.172595   270A      1.178431  
     271A      1.183584   272A      1.184796   273A      1.187624  
     274A      1.198874   275A      1.202840   276A      1.207988  
     277A      1.212856   278A      1.215940   279A      1.220739  
     280A      1.227131   281A      1.231076   282A      1.234635  
     283A      1.243936   284A      1.251556   285A      1.258915  
     286A      1.266717   287A      1.270564   288A      1.275029  
     289A      1.280461   290A      1.283457   291A      1.287748  
[...]
	   12 R(12,13)        =      1.094031     0.000013     0.000000     1.094031
	   13 R(12,14)        =      1.091736     0.000008     0.000000     1.091736
	   14 R(12,24)        =      1.535251     0.000003     0.000000     1.535252
	   15 R(15,16)        =      1.091983     0.000004     0.000000     1.091983
	   16 R(15,17)        =      1.094820     0.000006     0.000000     1.094820
	   17 R(15,18)        =      1.536057     0.000003     0.000000     1.536057
	   18 R(18,19)        =      1.095647     0.000012     0.000000     1.095647
	   19 R(18,20)        =      1.091648     0.000009     0.000000     1.091648
	   20 R(18,21)        =      1.527215     0.000007    -0.000000     1.527215
	   21 R(21,22)        =      1.092051     0.000014     0.000000     1.092052
	   22 R(21,23)        =      1.095066     0.000012     0.000000     1.095067
	   23 R(21,24)        =      1.527921     0.000002     0.000000     1.527921
	   24 R(24,25)        =      1.095057     0.000015     0.000000     1.095058
	   25 R(24,26)        =      1.092299     0.000011     0.000000     1.092299
	   26 B(1,9,10)       =    109.197495    -0.000000    -0.000004   109.197490
	   27 B(1,9,11)       =    109.205950     0.000000    -0.000015   109.205935
	   28 B(1,9,15)       =    114.254946    -0.000000     0.000036   114.254982
	   29 B(2,1,3)        =    107.893971    -0.000000    -0.000012   107.893959
	   30 B(2,1,4)        =    107.566937    -0.000000     0.000002   107.566939
	   31 B(2,1,9)        =    111.449876     0.000000     0.000027   111.449903
	   32 B(3,1,4)        =    107.906197     0.000000     0.000002   107.906198
	   33 B(3,1,9)        =    110.947528     0.000000     0.000016   110.947544
	   34 B(4,1,9)        =    110.917867    -0.000000    -0.000035   110.917833
	   35 B(5,12,13)      =    109.952914    -0.000000     0.000007   109.952921
	   36 B(5,12,14)      =    108.214181    -0.000000    -0.000043   108.214139
	   37 B(5,12,24)      =    113.870351     0.000000     0.000056   113.870406
	   38 B(6,5,7)        =    107.785676     0.000000    -0.000007   107.785669
	   39 B(6,5,8)        =    107.964165     0.000000     0.000000   107.964166
	   40 B(6,5,12)       =    111.241542    -0.000000    -0.000026   111.241516
	   41 B(7,5,8)        =    107.616820    -0.000000    -0.000009   107.616811
	   42 B(7,5,12)       =    110.203599     0.000000    -0.000007   110.203592
	   43 B(8,5,12)       =    111.863345     0.000000     0.000048   111.863393
	   44 B(9,15,16)      =    108.105641     0.000000     0.000008   108.105648
	   45 B(9,15,17)      =    109.364027     0.000000    -0.000008   109.364019
	   46 B(9,15,18)      =    113.855871    -0.000000     0.000002   113.855873
	   47 B(10,9,11)      =    106.414349    -0.000000    -0.000018   106.414331
	   48 B(10,9,15)      =    108.540116     0.000000     0.000002   108.540118
	   49 B(11,9,15)      =    108.935830     0.000000    -0.000004   108.935826
	   50 B(12,24,21)     =    114.577194     0.000000     0.000035   114.577229
	   51 B(12,24,25)     =    109.153254    -0.000000    -0.000007   109.153247
	   52 B(12,24,26)     =    109.341346     0.000000    -0.000014   109.341332
	   53 B(13,12,14)     =    106.095733     0.000000    -0.000000   106.095733
	   54 B(13,12,24)     =    109.138209    -0.000000    -0.000006   109.138203
	   55 B(14,12,24)     =    109.274594     0.000000    -0.000018   109.274576
	   56 B(15,18,19)     =    109.338048    -0.000000    -0.000006   109.338042
	   57 B(15,18,20)     =    109.516301    -0.000000    -0.000027   109.516274
	   58 B(15,18,21)     =    113.227461     0.000000     0.000051   113.227512
	   59 B(16,15,17)     =    106.302475    -0.000000    -0.000003   106.302471
	   60 B(16,15,18)     =    109.765135     0.000000    -0.000004   109.765131
	   61 B(17,15,18)     =    109.171439     0.000000     0.000005   109.171444
	   62 B(18,21,22)     =    109.378983     0.000000     0.000030   109.379013
	   63 B(18,21,23)     =    108.233710     0.000000    -0.000003   108.233707
	   64 B(18,21,24)     =    114.981204    -0.000000    -0.000004   114.981200
	   65 B(19,18,20)     =    106.250227     0.000000    -0.000029   106.250198
	   66 B(19,18,21)     =    109.592443    -0.000000     0.000028   109.592471
	   67 B(20,18,21)     =    108.677258    -0.000000    -0.000023   108.677234
	   68 B(21,24,25)     =    109.360110    -0.000000     0.000014   109.360124
	   69 B(21,24,26)     =    107.839745    -0.000000    -0.000013   107.839732
	   70 B(22,21,23)     =    106.143144    -0.000000     0.000004   106.143148
	   71 B(22,21,24)     =    108.937502     0.000000    -0.000023   108.937479
	   72 B(23,21,24)     =    108.799832     0.000000    -0.000004   108.799828
	   73 B(25,24,26)     =    106.237044    -0.000000    -0.000018   106.237025
	   74 D(1,9,15,16)    =    178.207773     0.000000     0.000211   178.207985
	   75 D(1,9,15,17)    =     62.870261     0.000000     0.000216    62.870477
	   76 D(1,9,15,18)    =    -59.542907     0.000000     0.000214   -59.542693
	   77 D(2,1,9,10)     =    -59.208160     0.000000    -0.000100   -59.208260
	   78 D(2,1,9,11)     =   -175.194004     0.000000    -0.000068  -175.194072
	   79 D(2,1,9,15)     =     62.539121    -0.000000    -0.000076    62.539044
	   80 D(3,1,9,10)     =   -179.465946     0.000000    -0.000113  -179.466059
	   81 D(3,1,9,11)     =     64.548210    -0.000000    -0.000081    64.548129
	   82 D(3,1,9,15)     =    -57.718665    -0.000000    -0.000089   -57.718754
	   83 D(4,1,9,10)     =     60.615668     0.000000    -0.000103    60.615565
	   84 D(4,1,9,11)     =    -55.370176    -0.000000    -0.000070   -55.370247
	   85 D(4,1,9,15)     =   -177.637052    -0.000000    -0.000079  -177.637130
	   86 D(5,12,24,21)   =     93.627964    -0.000000    -0.000256    93.627708
	   87 D(5,12,24,25)   =    -29.378989    -0.000000    -0.000293   -29.379282
	   88 D(5,12,24,26)   =   -145.203335    -0.000000    -0.000259  -145.203594
	   89 D(6,5,12,13)    =    -56.931581    -0.000000     0.000115   -56.931467
	   90 D(6,5,12,14)    =     58.533873    -0.000000     0.000095    58.533967
	   91 D(6,5,12,24)    =   -179.755639    -0.000000     0.000077  -179.755562
	   92 D(7,5,12,13)    =   -176.420375     0.000000     0.000145  -176.420231
	   93 D(7,5,12,14)    =    -60.954922     0.000000     0.000125   -60.954797
	   94 D(7,5,12,24)    =     60.755566     0.000000     0.000107    60.755673
	   95 D(8,5,12,13)    =     63.900198    -0.000000     0.000130    63.900328
	   96 D(8,5,12,14)    =    179.365652    -0.000000     0.000110   179.365762
	   97 D(8,5,12,24)    =    -58.923860    -0.000000     0.000092   -58.923768
	   98 D(9,15,18,19)   =    -24.903540    -0.000000     0.000030   -24.903510
	   99 D(9,15,18,20)   =   -140.945477     0.000000     0.000083  -140.945395
	  100 D(9,15,18,21)   =     97.598865     0.000000     0.000097    97.598962
	  101 D(10,9,15,16)   =    -59.684381     0.000000     0.000232   -59.684149
	  102 D(10,9,15,17)   =   -175.021893    -0.000000     0.000236  -175.021657
	  103 D(10,9,15,18)   =     62.564939    -0.000000     0.000234    62.565174
	  104 D(11,9,15,16)   =     55.793411     0.000000     0.000209    55.793620
	  105 D(11,9,15,17)   =    -59.544101    -0.000000     0.000213   -59.543888
	  106 D(11,9,15,18)   =    178.042731    -0.000000     0.000212   178.042942
	  107 D(12,24,21,18)  =    -59.602076     0.000000     0.000058   -59.602018
	  108 D(12,24,21,22)  =    177.245657     0.000000     0.000039   177.245696
	  109 D(12,24,21,23)  =     61.948259     0.000000     0.000049    61.948308
	  110 D(13,12,24,21)  =    -29.640689    -0.000000    -0.000300   -29.640989
	  111 D(13,12,24,25)  =   -152.647642    -0.000000    -0.000337  -152.647979
	  112 D(13,12,24,26)  =     91.528012    -0.000000    -0.000303    91.527709
	  113 D(14,12,24,21)  =   -145.250714    -0.000000    -0.000286  -145.251001
	  114 D(14,12,24,25)  =     91.742333    -0.000000    -0.000324    91.742009
	  115 D(14,12,24,26)  =    -24.082013    -0.000000    -0.000290   -24.082303
	  116 D(15,18,21,22)  =    -49.891927     0.000000    -0.000261   -49.892188
	  117 D(15,18,21,23)  =     65.334391     0.000000    -0.000243    65.334148
	  118 D(15,18,21,24)  =   -172.808320     0.000000    -0.000252  -172.808572
	  119 D(16,15,18,19)  =     96.427164    -0.000000     0.000038    96.427202
	  120 D(16,15,18,20)  =    -19.614774     0.000000     0.000091   -19.614683
	  121 D(16,15,18,21)  =   -141.070432     0.000000     0.000106  -141.070326
	  122 D(17,15,18,19)  =   -147.422520    -0.000000     0.000035  -147.422485
	  123 D(17,15,18,20)  =     96.535543     0.000000     0.000088    96.535631
	  124 D(17,15,18,21)  =    -24.920115     0.000000     0.000103   -24.920013
	  125 D(18,21,24,25)  =     63.293391     0.000000     0.000084    63.293475
	  126 D(18,21,24,26)  =    178.407555     0.000000     0.000062   178.407617
	  127 D(19,18,21,22)  =     72.468971     0.000000    -0.000213    72.468758
	  128 D(19,18,21,23)  =   -172.304711     0.000000    -0.000194  -172.304905
	  129 D(19,18,21,24)  =    -50.447421    -0.000000    -0.000204   -50.447625
	  130 D(20,18,21,22)  =   -171.818104    -0.000000    -0.000245  -171.818349
	  131 D(20,18,21,23)  =    -56.591787    -0.000000    -0.000226   -56.592012
	  132 D(20,18,21,24)  =     65.265503    -0.000000    -0.000236    65.265268
	  133 D(22,21,24,25)  =    -59.858876    -0.000000     0.000065   -59.858811
	  134 D(22,21,24,26)  =     55.255287    -0.000000     0.000044    55.255331
	  135 D(23,21,24,25)  =   -175.156273     0.000000     0.000075  -175.156199
	  136 D(23,21,24,26)  =    -60.042110    -0.000000     0.000053   -60.042057
	  137 R(1,21)         =      3.404799     0.000003     0.000002     3.404801
	  138 R(5,18)         =      3.382909     0.000001    -0.000003     3.382906
	 ---------------------------------------------------------------------------

  ==> Convergence Check <==

  Measures of convergence in internal coordinates in au.
  Criteria marked as inactive (o), active & met (*), and active & unmet ( ).
  ---------------------------------------------------------------------------------------------
   Step     Total Energy     Delta E     MAX Force     RMS Force      MAX Disp      RMS Disp   
  ---------------------------------------------------------------------------------------------
    Convergence Criteria             o    2.00e-06 *    1.00e-06 *    6.00e-06 *    4.00e-06 *
  ---------------------------------------------------------------------------------------------
     41    -314.97732236   -8.10e-10 o    1.77e-06 *    4.49e-07 *    5.89e-06 *    2.19e-06 *  ~
  ---------------------------------------------------------------------------------------------


  **** Optimization is complete! (in 41 steps) ****

  ==> Optimization Summary <==

  Measures of convergence in internal coordinates in au.
  --------------------------------------------------------------------------------------------------------------- ~
   Step         Total Energy             Delta E       MAX Force       RMS Force        MAX Disp        RMS Disp  ~
  --------------------------------------------------------------------------------------------------------------- ~
      1    -314.977322355383   -314.977322355383      0.00000154      0.00000041      0.00007970      0.00002154  ~
      2    -314.977322361486     -0.000000006102      0.00000158      0.00000044      0.00005344      0.00001880  ~
      3    -314.977322361969     -0.000000000483      0.00000075      0.00000021      0.00004545      0.00001747  ~
      4    -314.977322362311     -0.000000000342      0.00000154      0.00000046      0.00002226      0.00000791  ~
      5    -314.977322359595      0.000000002716      0.00000166      0.00000038      0.00031094      0.00009666  ~
      6    -314.977322352793      0.000000006802      0.00001468      0.00000334      0.00032820      0.00009964  ~
      7    -314.977322357234     -0.000000004442      0.00000227      0.00000052      0.00004422      0.00001437  ~
      8    -314.977322360813     -0.000000003579      0.00000091      0.00000020      0.00003562      0.00001307  ~
      9    -314.977322355604      0.000000005209      0.00000284      0.00000067      0.00003117      0.00001175  ~
     10    -314.977322360932     -0.000000005328      0.00000156      0.00000035      0.00015302      0.00004210  ~
     11    -314.977322359164      0.000000001767      0.00000619      0.00000126      0.00015010      0.00003992  ~
     12    -314.977322358031      0.000000001134      0.00000071      0.00000015      0.00002913      0.00001009  ~
     13    -314.977322359587     -0.000000001556      0.00000054      0.00000016      0.00002078      0.00000809  ~
     14    -314.977322360739     -0.000000001153      0.00000116      0.00000030      0.00005219      0.00001960  ~
     15    -314.977322359683      0.000000001057      0.00000149      0.00000034      0.00004571      0.00001579  ~
     16    -314.977322360622     -0.000000000939      0.00000094      0.00000021      0.00001857      0.00000544  ~
     17    -314.977322361909     -0.000000001288      0.00000101      0.00000021      0.00005361      0.00001536  ~
     18    -314.977322357561      0.000000004348      0.00000110      0.00000026      0.00002785      0.00000827  ~
     19    -314.977322358672     -0.000000001111      0.00000111      0.00000027      0.00002994      0.00000904  ~
     20    -314.977322361686     -0.000000003014      0.00000306      0.00000085      0.00003871      0.00001399  ~
     21    -314.977322359755      0.000000001930      0.00000087      0.00000021      0.00000696      0.00000209  ~
     22    -314.977322359113      0.000000000642      0.00000109      0.00000024      0.00020105      0.00005706  ~
     23    -314.977322356055      0.000000003058      0.00000647      0.00000145      0.00019194      0.00005500  ~
     24    -314.977322361596     -0.000000005541      0.00000099      0.00000025      0.00000816      0.00000324  ~
     25    -314.977322359861      0.000000001735      0.00000098      0.00000022      0.00006605      0.00001694  ~
     26    -314.977322357317      0.000000002544      0.00000177      0.00000039      0.00005162      0.00001341  ~
     27    -314.977322357384     -0.000000000067      0.00000033      0.00000007      0.00000939      0.00000242  ~
     28    -314.977322360680     -0.000000003296      0.00000042      0.00000011      0.00000777      0.00000255  ~
     29    -314.977322359206      0.000000001475      0.00000079      0.00000021      0.00001533      0.00000500  ~
     30    -314.977322359278     -0.000000000072      0.00000100      0.00000019      0.00001033      0.00000281  ~
     31    -314.977322360180     -0.000000000902      0.00000139      0.00000035      0.00002071      0.00000659  ~
     32    -314.977322362162     -0.000000001982      0.00000073      0.00000016      0.00001957      0.00000561  ~
     33    -314.977322361309      0.000000000853      0.00000178      0.00000045      0.00005398      0.00001691  ~
     34    -314.977322362988     -0.000000001679      0.00000210      0.00000041      0.00005802      0.00001717  ~
     35    -314.977322361375      0.000000001613      0.00000118      0.00000029      0.00003106      0.00000911  ~
     36    -314.977322358368      0.000000003007      0.00000127      0.00000028      0.00003959      0.00001103  ~
     37    -314.977322360614     -0.000000002246      0.00000095      0.00000024      0.00001391      0.00000460  ~
     38    -314.977322359741      0.000000000873      0.00000094      0.00000023      0.00000837      0.00000308  ~
     39    -314.977322363793     -0.000000004052      0.00000051      0.00000012      0.00001102      0.00000379  ~
     40    -314.977322362302      0.000000001492      0.00000238      0.00000059      0.00002670      0.00000804  ~
     41    -314.977322363112     -0.000000000810      0.00000177      0.00000045      0.00000589      0.00000219  ~
  --------------------------------------------------------------------------------------------------------------- ~

	Writing optimization data to binary file.
	Final energy is   -314.9773223631115
	Final (previous) structure:
	Cartesian Geometry (in Angstrom)
	    C    -2.8260227582   0.9026168523  -0.7267519834
	    H    -1.9091448055   1.1654782461  -1.2544955644
	    H    -2.9336903344   1.5844132292   0.1182398346
	    H    -3.6591553239   1.0781549344  -1.4072591793
	    C     2.9315178733  -0.9197370273  -0.8018799462
	    H     3.7519555444  -1.5969705396  -0.5632900798
	    H     3.1540662980  -0.4519011722  -1.7618761583
	    H     2.0296476914  -1.5160448061  -0.9272347608
	    C    -2.8028880577  -0.5475975311  -0.2574055893
	    H    -2.6847334859  -1.2041547735  -1.1239311233
	    H    -3.7685498010  -0.7963311038   0.1890122825
	    C     2.7626517831   0.1463514358   0.2775786950
	    H     2.6028152569  -0.3289312235   1.2499271192
	    H     3.7005549934   0.6988225168   0.3612463359
	    C    -1.6954637106  -0.8648331253   0.7473556846
	    H    -1.7909676126  -1.9131069018   1.0379195366
	    H    -1.8526036158  -0.2779303152   1.6581153343
	    C    -0.2791198168  -0.6003538265   0.2149157067
	    H    -0.2854059040  -0.6617368466  -0.8789922463
	    H     0.3935225883  -1.3873424760   0.5611755614
	    C     0.2848577071   0.7509713156   0.6487783592
	    H    -0.4469853401   1.5336185867   0.4379574157
	    H     0.4104322383   0.7365633936   1.7365254421
	    C     1.6170232612   1.1311663908   0.0043173933
	    H     1.4810123393   1.2328677650  -1.0774906436
	    H     1.8958603559   2.1213857909   0.3715118427
	Saving final (previous) structure.
			--------------------------
			 OPTKING Finished Execution 
			--------------------------

    Final optimized geometry and variables:
    Molecular point group: c1
    Full point group: C1

    Geometry (in Angstrom), charge = 0, multiplicity = 1:

    C           -2.826022758174     0.902616852252    -0.726751983363
    H           -1.909144805488     1.165478246063    -1.254495564379
    H           -2.933690334428     1.584413229221     0.118239834641
    H           -3.659155323926     1.078154934350    -1.407259179266
    C            2.931517873296    -0.919737027335    -0.801879946206
    H            3.751955544433    -1.596970539641    -0.563290079759
    H            3.154066298003    -0.451901172173    -1.761876158254
    H            2.029647691352    -1.516044806149    -0.927234760794
    C           -2.802888057688    -0.547597531081    -0.257405589267
    H           -2.684733485904    -1.204154773541    -1.123931123333
    H           -3.768549801046    -0.796331103789     0.189012282539
    C            2.762651783076     0.146351435780     0.277578694951
    H            2.602815256934    -0.328931223535     1.249927119177
    H            3.700554993441     0.698822516843     0.361246335863
    C           -1.695463710624    -0.864833125322     0.747355684619
    H           -1.790967612575    -1.913106901835     1.037919536614
    H           -1.852603615778    -0.277930315226     1.658115334301
    C           -0.279119816814    -0.600353826476     0.214915706749
    H           -0.285405904017    -0.661736846606    -0.878992246337
    H            0.393522588261    -1.387342475957     0.561175561352
    C            0.284857707111     0.750971315563     0.648778359154
    H           -0.446985340113     1.533618586668     0.437957415722
    H            0.410432238323     0.736563393606     1.736525442071
    C            1.617023261175     1.131166390807     0.004317393325
    H            1.481012339296     1.232867765037    -1.077490643555
    H            1.895860355883     2.121385790937     0.371511842747

	Cleaning optimization helper files.

*** Psi4 exiting successfully. Buy a developer a beer!
