    -----------------------------------------------------------------------
          Psi4: An Open-Source Ab Initio Electronic Structure Package
                              Psi4 1.0.0 Driver

                          Git: Rev {master} 6a9a71b dirty

    J. M. Turney, A. C. Simmonett, R. M. Parrish, E. G. Hohenstein,
    F. A. Evangelista, J. T. Fermann, B. J. Mintz, L. A. Burns, J. J. Wilke,
    M. L. Abrams, N. J. Russ, M. L. Leininger, C. L. Janssen, E. T. Seidl,
    W. D. Allen, H. F. Schaefer, R. A. King, E. F. Valeev, C. D. Sherrill,
    and T. D. Crawford, WIREs Comput. Mol. Sci. 2, 556-565 (2012)
    (doi: 10.1002/wcms.93)

                         Additional Contributions by
    A. E. DePrince, U. Bozkaya, A. Yu. Sokolov, D. G. A. Smith, R. Di Remigio,
    R. M. Richard, J. F. Gonthier, H. R. McAlexander, M. Saitow, and
    B. P. Pritchard
    -----------------------------------------------------------------------


    Psi4 started on: Wed Sep 21 04:57:33 2016

    Process ID:   5218
    PSI4DATADIR: /usr/local/hpc5/psi4conda/share/psi4
    Memory level set to 256.000 MB

  ==> Input File <==

--------------------------------------------------------------------------
memory 60 Gb

molecule molecule_69_psi {
0 1
C            3.264715947128     0.823041225220    -0.520789199605
H            4.140741406936     0.471079038836    -1.065057412673
H            3.610933078470     1.333492207059     0.378891478265
H            2.755799272526     1.559463829969    -1.144124995293
C           -2.060026501075     1.607246523050     0.554400171837
H           -1.190137387811     1.425009118108     1.181848544517
H           -2.948624340445     1.392795917209     1.149961583019
H           -2.074477566282     2.668853782839     0.305973509735
C            2.325280431925    -0.322379160009    -0.164208292235
H            2.857967326883    -1.067013821755     0.433543277630
H            2.006038396826    -0.830229049636    -1.077349675938
C           -2.055031191414     0.748192211619    -0.707642095905
H           -2.939191564063     1.008902713659    -1.293620045351
H           -1.194847226238     0.998859513729    -1.334693641471
C            1.105021160555     0.155675002742     0.615551908735
H            0.605735725137     0.941892606551     0.044083939061
H            1.447628498421     0.618855839390     1.545829630624
C            0.122569631746    -0.973921938068     0.934321236074
H           -0.551955334779    -0.675904840610     1.740957942796
H            0.702543879197    -1.815783291040     1.323142895371
C           -0.710784518946    -1.441886267212    -0.266737952074
H           -0.130835585951    -1.311826176341    -1.185436607542
H           -0.892665148637    -2.515546200904    -0.177803350483
C           -2.071140835979    -0.762681002522    -0.443759646247
H           -2.572488375240    -1.256974453764    -1.279638997929
H           -2.686811960518    -0.960898778553     0.439964213484
}

set globals {
  reference rhf
  g_convergence gau_verytight
  basis aug-cc-pvtz
  freeze_core true
  scf_type df
  mp_type df
}
optimize('mp2')
--------------------------------------------------------------------------
/usr/local/hpc5/psi4conda/lib/python2.7/site-packages/v2rdm_casscf/v2rdm_casscf.so loaded.

  Memory set to  60.000 GiB by Python script.
gradient() will perform analytic gradient computation.

*** tstart() called on wr38
*** at Wed Sep 21 04:57:34 2016


         ---------------------------------------------------------
                                   SCF
            by Justin Turney, Rob Parrish, and Andy Simmonett
                              RHF Reference
                       12 Threads,  60000 MiB Core
         ---------------------------------------------------------

  ==> Geometry <==

    Molecular point group: c1
    Full point group: C1

    Geometry (in Angstrom), charge = 0, multiplicity = 1:

       Center              X                  Y                   Z               Mass       
    ------------   -----------------  -----------------  -----------------  -----------------
           C          3.264715947128     0.823041225220    -0.520789199605    12.000000000000
           H          4.140741406936     0.471079038836    -1.065057412673     1.007825032070
           H          3.610933078470     1.333492207059     0.378891478265     1.007825032070
           H          2.755799272526     1.559463829969    -1.144124995293     1.007825032070
           C         -2.060026501075     1.607246523050     0.554400171837    12.000000000000
           H         -1.190137387811     1.425009118108     1.181848544517     1.007825032070
           H         -2.948624340445     1.392795917209     1.149961583019     1.007825032070
           H         -2.074477566282     2.668853782839     0.305973509735     1.007825032070
           C          2.325280431925    -0.322379160009    -0.164208292235    12.000000000000
           H          2.857967326883    -1.067013821755     0.433543277630     1.007825032070
           H          2.006038396826    -0.830229049636    -1.077349675938     1.007825032070
           C         -2.055031191414     0.748192211619    -0.707642095905    12.000000000000
           H         -2.939191564063     1.008902713659    -1.293620045351     1.007825032070
           H         -1.194847226238     0.998859513729    -1.334693641471     1.007825032070
           C          1.105021160555     0.155675002742     0.615551908735    12.000000000000
           H          0.605735725137     0.941892606551     0.044083939061     1.007825032070
           H          1.447628498421     0.618855839390     1.545829630624     1.007825032070
           C          0.122569631746    -0.973921938068     0.934321236074    12.000000000000
           H         -0.551955334779    -0.675904840610     1.740957942796     1.007825032070
           H          0.702543879197    -1.815783291040     1.323142895371     1.007825032070
           C         -0.710784518946    -1.441886267212    -0.266737952074    12.000000000000
           H         -0.130835585951    -1.311826176341    -1.185436607542     1.007825032070
           H         -0.892665148637    -2.515546200904    -0.177803350483     1.007825032070
           C         -2.071140835979    -0.762681002522    -0.443759646247    12.000000000000
           H         -2.572488375240    -1.256974453764    -1.279638997929     1.007825032070
           H         -2.686811960518    -0.960898778553     0.439964213484     1.007825032070

  Running in c1 symmetry.

  Rotational constants: A =      0.09460  B =      0.03291  C =      0.02878 [cm^-1]
  Rotational constants: A =   2836.07843  B =    986.69334  C =    862.77231 [MHz]
  Nuclear repulsion =  402.805785324852422

  Charge       = 0
  Multiplicity = 1
  Electrons    = 66
  Nalpha       = 33
  Nbeta        = 33

  ==> Algorithm <==

  SCF Algorithm Type is DF.
  DIIS enabled.
  MOM disabled.
  Fractional occupation disabled.
  Guess Type is SAD.
  Energy threshold   = 1.00e-10
  Density threshold  = 1.00e-10
  Integral threshold = 0.00e+00

  ==> Primary Basis <==

  Basis Set: AUG-CC-PVTZ
    Number of shells: 274
    Number of basis function: 782
    Number of Cartesian functions: 890
    Spherical Harmonics?: true
    Max angular momentum: 3

  ==> Pre-Iterations <==

   -------------------------------------------------------
    Irrep   Nso     Nmo     Nalpha   Nbeta   Ndocc  Nsocc
   -------------------------------------------------------
     A        782     782       0       0       0       0
   -------------------------------------------------------
    Total     782     782      33      33      33       0
   -------------------------------------------------------

  ==> Integral Setup <==

  ==> DFJK: Density-Fitted J/K Matrices <==

    J tasked:                  Yes
    K tasked:                  Yes
    wK tasked:                  No
    OpenMP threads:             12
    Integrals threads:          12
    Memory (MB):             42915
    Algorithm:                Core
    Integral Cache:           NONE
    Schwarz Cutoff:          1E-12
    Fitting Condition:       1E-12

   => Auxiliary Basis Set <=

  Basis Set: 
    Number of shells: 492
    Number of basis function: 1660
    Number of Cartesian functions: 2038
    Spherical Harmonics?: true
    Max angular momentum: 4

  Minimum eigenvalue in the overlap matrix is 1.8990676027E-06.
  Using Symmetric Orthogonalization.
  SCF Guess: Superposition of Atomic Densities via on-the-fly atomic UHF.

  ==> Iterations <==

                           Total Energy        Delta E     RMS |[F,P]|

   @DF-RHF iter   0:  -317.05173071710624   -3.17052e+02   7.05846e-03 
   @DF-RHF iter   1:  -313.29950163960507    3.75223e+00   6.84232e-04 
   @DF-RHF iter   2:  -313.50194162399202   -2.02440e-01   2.53925e-04 DIIS
   @DF-RHF iter   3:  -313.52790534534256   -2.59637e-02   1.04809e-04 DIIS
   @DF-RHF iter   4:  -313.53313821014501   -5.23286e-03   1.53982e-05 DIIS
   @DF-RHF iter   5:  -313.53329299081372   -1.54781e-04   4.67260e-06 DIIS
   @DF-RHF iter   6:  -313.53330431544600   -1.13246e-05   1.27123e-06 DIIS
   @DF-RHF iter   7:  -313.53330517408278   -8.58637e-07   2.42838e-07 DIIS
   @DF-RHF iter   8:  -313.53330521288854   -3.88058e-08   7.13401e-08 DIIS
   @DF-RHF iter   9:  -313.53330521585667   -2.96814e-09   1.89915e-08 DIIS
   @DF-RHF iter  10:  -313.53330521611088   -2.54204e-10   5.19328e-09 DIIS
   @DF-RHF iter  11:  -313.53330521613134   -2.04636e-11   1.24903e-09 DIIS
   @DF-RHF iter  12:  -313.53330521613270   -1.36424e-12   3.14489e-10 DIIS
   @DF-RHF iter  13:  -313.53330521613350   -7.95808e-13   9.75706e-11 DIIS

  ==> Post-Iterations <==

    Orbital Energies (a.u.)
    -----------------------

    Doubly Occupied:                                                      

       1A    -11.213320     2A    -11.212158     3A    -11.211277  
       4A    -11.210742     5A    -11.210266     6A    -11.209684  
       7A    -11.207255     8A    -11.205726     9A     -1.093330  
      10A     -1.057439    11A     -1.006791    12A     -0.953442  
      13A     -0.881996    14A     -0.827378    15A     -0.790559  
      16A     -0.760364    17A     -0.646070    18A     -0.621599  
      19A     -0.610178    20A     -0.595186    21A     -0.575136  
      22A     -0.558477    23A     -0.555817    24A     -0.536045  
      25A     -0.507307    26A     -0.500763    27A     -0.492795  
      28A     -0.473595    29A     -0.464790    30A     -0.463224  
      31A     -0.443632    32A     -0.434611    33A     -0.433932  

    Virtual:                                                              

      34A      0.028986    35A      0.033209    36A      0.034444  
      37A      0.035299    38A      0.047302    39A      0.048594  
      40A      0.049757    41A      0.053149    42A      0.053694  
      43A      0.068981    44A      0.069138    45A      0.071383  
      46A      0.074271    47A      0.079239    48A      0.083817  
      49A      0.088654    50A      0.097191    51A      0.099668  
      52A      0.114622    53A      0.117837    54A      0.118912  
      55A      0.123821    56A      0.130039    57A      0.133610  
      58A      0.134635    59A      0.135959    60A      0.138154  
      61A      0.146278    62A      0.149370    63A      0.150012  
      64A      0.152431    65A      0.158292    66A      0.162189  
      67A      0.167391    68A      0.169750    69A      0.174904  
      70A      0.175855    71A      0.177865    72A      0.181614  
      73A      0.184256    74A      0.190047    75A      0.199668  
      76A      0.203379    77A      0.208243    78A      0.216017  
      79A      0.224169    80A      0.232846    81A      0.239005  
      82A      0.243973    83A      0.252897    84A      0.257038  
      85A      0.268254    86A      0.276019    87A      0.277835  
      88A      0.281844    89A      0.294012    90A      0.298792  
      91A      0.301265    92A      0.310464    93A      0.312072  
      94A      0.316923    95A      0.318217    96A      0.321577  
      97A      0.327577    98A      0.331848    99A      0.334595  
     100A      0.337532   101A      0.341903   102A      0.348412  
     103A      0.351034   104A      0.356161   105A      0.358709  
     106A      0.361347   107A      0.364015   108A      0.365119  
     109A      0.369768   110A      0.370966   111A      0.377177  
     112A      0.381240   113A      0.384542   114A      0.386345  
     115A      0.390133   116A      0.394679   117A      0.398590  
     118A      0.402544   119A      0.407330   120A      0.412085  
     121A      0.412661   122A      0.418990   123A      0.427419  
     124A      0.433673   125A      0.434595   126A      0.441265  
     127A      0.443151   128A      0.445658   129A      0.453768  
     130A      0.455548   131A      0.457843   132A      0.462771  
     133A      0.463597   134A      0.470816   135A      0.471932  
     136A      0.474551   137A      0.480273   138A      0.484043  
     139A      0.488157   140A      0.492191   141A      0.496672  
     142A      0.500936   143A      0.506606   144A      0.507359  
     145A      0.510402   146A      0.520171   147A      0.522481  
     148A      0.524562   149A      0.525851   150A      0.533222  
     151A      0.535364   152A      0.540173   153A      0.545004  
     154A      0.546606   155A      0.553445   156A      0.560742  
     157A      0.563821   158A      0.565214   159A      0.572472  
     160A      0.582846   161A      0.584311   162A      0.589191  
     163A      0.591266   164A      0.595500   165A      0.599812  
     166A      0.605607   167A      0.609093   168A      0.611884  
     169A      0.620514   170A      0.623852   171A      0.625700  
     172A      0.631598   173A      0.635549   174A      0.638930  
     175A      0.640781   176A      0.647744   177A      0.655202  
     178A      0.661647   179A      0.664054   180A      0.669861  
     181A      0.677202   182A      0.682479   183A      0.687391  
     184A      0.692081   185A      0.697651   186A      0.703275  
     187A      0.706818   188A      0.713876   189A      0.717872  
     190A      0.722776   191A      0.728509   192A      0.732470  
     193A      0.746243   194A      0.751806   195A      0.756415  
     196A      0.761131   197A      0.766917   198A      0.772498  
     199A      0.782352   200A      0.788793   201A      0.794301  
     202A      0.806749   203A      0.818046   204A      0.829824  
     205A      0.835613   206A      0.842150   207A      0.846768  
     208A      0.852226   209A      0.857750   210A      0.865741  
     211A      0.866826   212A      0.875888   213A      0.878249  
     214A      0.879524   215A      0.886987   216A      0.893449  
     217A      0.898653   218A      0.909795   219A      0.912517  
     220A      0.914843   221A      0.918545   222A      0.925791  
     223A      0.937779   224A      0.939555   225A      0.944208  
     226A      0.947822   227A      0.955924   228A      0.958771  
     229A      0.960271   230A      0.965463   231A      0.971628  
     232A      0.980514   233A      0.983623   234A      0.990978  
     235A      0.991511   236A      0.997897   237A      1.000877  
     238A      1.003143   239A      1.013870   240A      1.015577  
     241A      1.023487   242A      1.027727   243A      1.034597  
     244A      1.037574   245A      1.042417   246A      1.045608  
     247A      1.049041   248A      1.055963   249A      1.058197  
     250A      1.063245   251A      1.076536   252A      1.081749  
     253A      1.087993   254A      1.094158   255A      1.100421  
     256A      1.101322   257A      1.108631   258A      1.112585  
     259A      1.116684   260A      1.120769   261A      1.130714  
     262A      1.143077   263A      1.146880   264A      1.149289  
     265A      1.152963   266A      1.157586   267A      1.159287  
     268A      1.172700   269A      1.175864   270A      1.183311  
     271A      1.188394   272A      1.189327   273A      1.192162  
     274A      1.200441   275A      1.206731   276A      1.211782  
     277A      1.218384   278A      1.220775   279A      1.227353  
     280A      1.230066   281A      1.236066   282A      1.244811  
     283A      1.252418   284A      1.259634   285A      1.263344  
     286A      1.265194   287A      1.272415   288A      1.273649  
     289A      1.277537   290A      1.279877   291A      1.287411  
     292A      1.298471   293A      1.311373   294A      1.312927  
     295A      1.322938   296A      1.324687   297A      1.327573  
     298A      1.332775   299A      1.339479   300A      1.342546  
     301A      1.352587   302A      1.358988   303A      1.367312  
     304A      1.375657   305A      1.380540   306A      1.390718  
     307A      1.392536   308A      1.397998   309A      1.401902  
     310A      1.407436   311A      1.414255   312A      1.423242  
     313A      1.434548   314A      1.439026   315A      1.443208  
     316A      1.449909   317A      1.463051   318A      1.466524  
     319A      1.476173   320A      1.489599   321A      1.496272  
     322A      1.507383   323A      1.510616   324A      1.517267  
     325A      1.523939   326A      1.529965   327A      1.536631  
     328A      1.541173   329A      1.545971   330A      1.549104  
     331A      1.557587   332A      1.571777   333A      1.580374  
     334A      1.583400   335A      1.597218   336A      1.603192  
     337A      1.607003   338A      1.609642   339A      1.627875  
     340A      1.631697   341A      1.636203   342A      1.644896  
     343A      1.648557   344A      1.650326   345A      1.665185  
     346A      1.673406   347A      1.680716   348A      1.686887  
     349A      1.692865   350A      1.698767   351A      1.706368  
     352A      1.712076   353A      1.714279   354A      1.722069  
     355A      1.727107   356A      1.733226   357A      1.739807  
     358A      1.742894   359A      1.751718   360A      1.756938  
     361A      1.763477   362A      1.769009   363A      1.775677  
     364A      1.779067   365A      1.785450   366A      1.788339  
     367A      1.792344   368A      1.797946   369A      1.806520  
     370A      1.815397   371A      1.819339   372A      1.827769  
     373A      1.835875   374A      1.837258   375A      1.840542  
     376A      1.856479   377A      1.859872   378A      1.861845  
     379A      1.866650   380A      1.875796   381A      1.878985  
     382A      1.889100   383A      1.892380   384A      1.895096  
     385A      1.906552   386A      1.909733   387A      1.922074  
     388A      1.932323   389A      1.935178   390A      1.945014  
     391A      1.948845   392A      1.949251   393A      1.954932  
     394A      1.960239   395A      1.974475   396A      1.978581  
     397A      1.987421   398A      1.994278   399A      1.996172  
     400A      1.998998   401A      2.015938   402A      2.026293  
     403A      2.027905   404A      2.034655   405A      2.046351  
     406A      2.050930   407A      2.058145   408A      2.069800  
     409A      2.071312   410A      2.073981   411A      2.084177  
     412A      2.097724   413A      2.101342   414A      2.107115  
     415A      2.112339   416A      2.126563   417A      2.129567  
     418A      2.141648   419A      2.147456   420A      2.171851  
     421A      2.178539   422A      2.181777   423A      2.192663  
     424A      2.201394   425A      2.204439   426A      2.211969  
     427A      2.217954   428A      2.231542   429A      2.236141  
     430A      2.245271   431A      2.257561   432A      2.259415  
     433A      2.268394   434A      2.273479   435A      2.294076  
     436A      2.301218   437A      2.309099   438A      2.317786  
     439A      2.322199   440A      2.330338   441A      2.336812  
     442A      2.349853   443A      2.354746   444A      2.358649  
     445A      2.366273   446A      2.373650   447A      2.386890  
     448A      2.394394   449A      2.405102   450A      2.408969  
     451A      2.421942   452A      2.432397   453A      2.446026  
     454A      2.457457   455A      2.460652   456A      2.474042  
     457A      2.481831   458A      2.483221   459A      2.498062  
     460A      2.501711   461A      2.514977   462A      2.520432  
     463A      2.530656   464A      2.540919   465A      2.559830  
     466A      2.571879   467A      2.582636   468A      2.604136  
     469A      2.609090   470A      2.620867   471A      2.624707  
     472A      2.630130   473A      2.635728   474A      2.659030  
     475A      2.675137   476A      2.678087   477A      2.696387  
     478A      2.713991   479A      2.730853   480A      2.756245  
     481A      2.786415   482A      2.803169   483A      2.844730  
     484A      2.861501   485A      2.959141   486A      2.973933  
     487A      3.017226   488A      3.067400   489A      3.122193  
     490A      3.171752   491A      3.197356   492A      3.250016  
     493A      3.283995   494A      3.322614   495A      3.374252  
     496A      3.379925   497A      3.437277   498A      3.455459  
     499A      3.468016   500A      3.480983   501A      3.499797  
     502A      3.508653   503A      3.514860   504A      3.539467  
     505A      3.549702   506A      3.562853   507A      3.579877  
     508A      3.589985   509A      3.595961   510A      3.600676  
     511A      3.611236   512A      3.621542   513A      3.638457  
     514A      3.644086   515A      3.653937   516A      3.672641  
     517A      3.677752   518A      3.688310   519A      3.700698  
     520A      3.713588   521A      3.717252   522A      3.724473  
     523A      3.736552   524A      3.743639   525A      3.749649  
     526A      3.763172   527A      3.767079   528A      3.781911  
     529A      3.784349   530A      3.796183   531A      3.806188  
     532A      3.815489   533A      3.821001   534A      3.827714  
     535A      3.848915   536A      3.856060   537A      3.861623  
     538A      3.866943   539A      3.875527   540A      3.887147  
     541A      3.891661   542A      3.901574   543A      3.910660  
     544A      3.922758   545A      3.926268   546A      3.931048  
     547A      3.939962   548A      3.947380   549A      3.959940  
     550A      3.962016   551A      3.966984   552A      3.969071  
     553A      3.977936   554A      3.989758   555A      3.994443  
     556A      4.002286   557A      4.008337   558A      4.016352  
     559A      4.019766   560A      4.023337   561A      4.038615  
     562A      4.046971   563A      4.054420   564A      4.061441  
     565A      4.066594   566A      4.078611   567A      4.081267  
     568A      4.093096   569A      4.098285   570A      4.103128  
     571A      4.113409   572A      4.120061   573A      4.126828  
     574A      4.139564   575A      4.150735   576A      4.159672  
     577A      4.169765   578A      4.184055   579A      4.195818  
     580A      4.201954   581A      4.207410   582A      4.217438  
     583A      4.221339   584A      4.239737   585A      4.251021  
     586A      4.263247   587A      4.269010   588A      4.271821  
     589A      4.276631   590A      4.281706   591A      4.298475  
     592A      4.314123   593A      4.316609   594A      4.322070  
     595A      4.337430   596A      4.346970   597A      4.353568  
     598A      4.363532   599A      4.371357   600A      4.379435  
     601A      4.391993   602A      4.407176   603A      4.412459  
     604A      4.425003   605A      4.431409   606A      4.447392  
     607A      4.458851   608A      4.468548   609A      4.474108  
     610A      4.500278   611A      4.516997   612A      4.521000  
     613A      4.540306   614A      4.544407   615A      4.547919  
     616A      4.563268   617A      4.592368   618A      4.597795  
     619A      4.608745   620A      4.619298   621A      4.630318  
     622A      4.641694   623A      4.655487   624A      4.668810  
     625A      4.684675   626A      4.694374   627A      4.716079  
     628A      4.719891   629A      4.734100   630A      4.745282  
     631A      4.762525   632A      4.770311   633A      4.778766  
     634A      4.794934   635A      4.800036   636A      4.802769  
     637A      4.812301   638A      4.840427   639A      4.843149  
     640A      4.856371   641A      4.867774   642A      4.877692  
     643A      4.881252   644A      4.888910   645A      4.893547  
     646A      4.902170   647A      4.916866   648A      4.925740  
     649A      4.938776   650A      4.947659   651A      4.958094  
     652A      4.971504   653A      4.981265   654A      4.993764  
     655A      4.997095   656A      5.010038   657A      5.034065  
     658A      5.048211   659A      5.060825   660A      5.090240  
     661A      5.102690   662A      5.106490   663A      5.114744  
     664A      5.123861   665A      5.126992   666A      5.135546  
     667A      5.147527   668A      5.153850   669A      5.172989  
     670A      5.190724   671A      5.201110   672A      5.206928  
     673A      5.215047   674A      5.231518   675A      5.239929  
     676A      5.250795   677A      5.259380   678A      5.270922  
     679A      5.284957   680A      5.289879   681A      5.303177  
     682A      5.312396   683A      5.324756   684A      5.332502  
     685A      5.359925   686A      5.365136   687A      5.371237  
     688A      5.396006   689A      5.404327   690A      5.406663  
     691A      5.425595   692A      5.437618   693A      5.442059  
     694A      5.457689   695A      5.467814   696A      5.469661  
     697A      5.482905   698A      5.484824   699A      5.495447  
     700A      5.515933   701A      5.521868   702A      5.531881  
     703A      5.546898   704A      5.564885   705A      5.570934  
     706A      5.599681   707A      5.609487   708A      5.625583  
     709A      5.636275   710A      5.655900   711A      5.666052  
     712A      5.667799   713A      5.679331   714A      5.688057  
     715A      5.709452   716A      5.722884   717A      5.725518  
     718A      5.735910   719A      5.738379   720A      5.746064  
     721A      5.765943   722A      5.767840   723A      5.786607  
     724A      5.804303   725A      5.807849   726A      5.831633  
     727A      5.860274   728A      5.881592   729A      5.893632  
     730A      5.907633   731A      5.914734   732A      5.970547  
     733A      5.991882   734A      6.010673   735A      6.024691  
     736A      6.068136   737A      6.087579   738A      6.091003  
     739A      6.111464   740A      6.121043   741A      6.145980  
     742A      6.157244   743A      6.218723   744A      6.222880  
     745A      6.240835   746A      6.260362   747A      6.271389  
     748A      6.275118   749A      6.303348   750A      6.311411  
     751A      6.328674   752A      6.335030   753A      6.355005  
     754A      6.376480   755A      6.396201   756A      6.444103  
     757A      6.454917   758A      6.484082   759A      6.555621  
     760A      6.624497   761A      6.687026   762A      6.735612  
     763A      6.774513   764A      6.792713   765A      6.808781  
     766A      6.894116   767A      6.920299   768A      6.931166  
     769A      6.966612   770A      6.981756   771A      7.057134  
     772A      7.099498   773A      7.110091   774A      7.155644  
     775A     18.124199   776A     18.168978   777A     18.570215  
     778A     18.612009   779A     18.854980   780A     19.386317  
     781A     19.622481   782A     19.794298  

    Final Occupation by Irrep:
              A 
    DOCC [    33 ]

  Energy converged.

  @DF-RHF Final Energy:  -313.53330521613350

   => Energetics <=

    Nuclear Repulsion Energy =            402.8057853248524225
    One-Electron Energy =               -1220.7484130046223072
    Two-Electron Energy =                 504.4093224636366131
    DFT Exchange-Correlation Energy =       0.0000000000000000
    Empirical Dispersion Energy =           0.0000000000000000
    PCM Polarization Energy =               0.0000000000000000
    EFP Energy =                            0.0000000000000000
    Total Energy =                       -313.5333052161332716


  Saving occupied orbitals to File 180.

*** tstop() called on wr38 at Wed Sep 21 04:59:03 2016
Module time:
	user time   =     977.26 seconds =      16.29 minutes
	system time =      11.37 seconds =       0.19 minutes
	total time  =         89 seconds =       1.48 minutes
Total time:
	user time   =     977.26 seconds =      16.29 minutes
	system time =      11.37 seconds =       0.19 minutes
	total time  =         89 seconds =       1.48 minutes


Properties will be evaluated at   0.000000,   0.000000,   0.000000 Bohr

Properties computed using the SCF density matrix

  Nuclear Dipole Moment: (a.u.)
     X:     0.8862      Y:     1.8609      Z:    -0.0127

  Electronic Dipole Moment: (a.u.)
     X:    -0.9006      Y:    -1.9040      Z:    -0.0047

  Dipole Moment: (a.u.)
     X:    -0.0143      Y:    -0.0431      Z:    -0.0174     Total:     0.0486

  Dipole Moment: (Debye)
     X:    -0.0364      Y:    -0.1095      Z:    -0.0442     Total:     0.1235


  //>>>>>>>>>>>>>>>>>>>>>>>>>>>>>>>>>>>//
  //               DFMP2               //
  //<<<<<<<<<<<<<<<<<<<<<<<<<<<<<<<<<<<//


*** tstart() called on wr38
*** at Wed Sep 21 04:59:03 2016


*** tstop() called on wr38 at Wed Sep 21 04:59:04 2016
Module time:
	user time   =       3.70 seconds =       0.06 minutes
	system time =       0.19 seconds =       0.00 minutes
	total time  =          1 seconds =       0.02 minutes
Total time:
	user time   =     981.39 seconds =      16.36 minutes
	system time =      11.57 seconds =       0.19 minutes
	total time  =         90 seconds =       1.50 minutes
	 --------------------------------------------------------
	                          DF-MP2                         
	      2nd-Order Density-Fitted Moller-Plesset Theory     
	              RMP2 Wavefunction,  12 Threads             
	                                                         
	        Rob Parrish, Justin Turney, Andy Simmonett,      
	           Ed Hohenstein, and C. David Sherrill          
	 --------------------------------------------------------

   => Auxiliary Basis Set <=

  Basis Set: 
    Number of shells: 476
    Number of basis function: 1676
    Number of Cartesian functions: 2078
    Spherical Harmonics?: true
    Max angular momentum: 4

	 --------------------------------------------------------
	                 NBF =   782, NAUX =  1676
	 --------------------------------------------------------
	   CLASS    FOCC     OCC    AOCC    AVIR     VIR    FVIR
	   PAIRS       8      33      25     749     749       0
	 --------------------------------------------------------

DGAS Warning! /src/lib/libfock/apps.cc:80 is not currently checking restricted

         ------------------------------------------------------------
                                     CPHF                           
                                  Rob Parrish                       
         ------------------------------------------------------------

  ==> Geometry <==

    Molecular point group: c1
    Full point group: C1

    Geometry (in Angstrom), charge = 0, multiplicity = 1:

       Center              X                  Y                   Z               Mass       
    ------------   -----------------  -----------------  -----------------  -----------------
           C          3.264715947128     0.823041225220    -0.520789199605    12.000000000000
           H          4.140741406936     0.471079038836    -1.065057412673     1.007825032070
           H          3.610933078470     1.333492207059     0.378891478265     1.007825032070
           H          2.755799272526     1.559463829969    -1.144124995293     1.007825032070
           C         -2.060026501075     1.607246523050     0.554400171837    12.000000000000
           H         -1.190137387811     1.425009118108     1.181848544517     1.007825032070
           H         -2.948624340445     1.392795917209     1.149961583019     1.007825032070
           H         -2.074477566282     2.668853782839     0.305973509735     1.007825032070
           C          2.325280431925    -0.322379160009    -0.164208292235    12.000000000000
           H          2.857967326883    -1.067013821755     0.433543277630     1.007825032070
           H          2.006038396826    -0.830229049636    -1.077349675938     1.007825032070
           C         -2.055031191414     0.748192211619    -0.707642095905    12.000000000000
           H         -2.939191564063     1.008902713659    -1.293620045351     1.007825032070
           H         -1.194847226238     0.998859513729    -1.334693641471     1.007825032070
           C          1.105021160555     0.155675002742     0.615551908735    12.000000000000
           H          0.605735725137     0.941892606551     0.044083939061     1.007825032070
           H          1.447628498421     0.618855839390     1.545829630624     1.007825032070
           C          0.122569631746    -0.973921938068     0.934321236074    12.000000000000
           H         -0.551955334779    -0.675904840610     1.740957942796     1.007825032070
           H          0.702543879197    -1.815783291040     1.323142895371     1.007825032070
           C         -0.710784518946    -1.441886267212    -0.266737952074    12.000000000000
           H         -0.130835585951    -1.311826176341    -1.185436607542     1.007825032070
           H         -0.892665148637    -2.515546200904    -0.177803350483     1.007825032070
           C         -2.071140835979    -0.762681002522    -0.443759646247    12.000000000000
           H         -2.572488375240    -1.256974453764    -1.279638997929     1.007825032070
           H         -2.686811960518    -0.960898778553     0.439964213484     1.007825032070

  Nuclear repulsion =  402.805785324852422
  Reference energy  = -313.533305216133499

  ==> Basis Set <==

  Basis Set: AUG-CC-PVTZ
    Number of shells: 274
    Number of basis function: 782
    Number of Cartesian functions: 890
    Spherical Harmonics?: true
    Max angular momentum: 3

  ==> CGRSolver (by Rob Parrish) <==

   Number of roots    =         1
   Preconditioning    =    JACOBI
   Convergence cutoff =     1E-06
   Maximum iterations =       100

  ==> CPHFRHamiltonian (by Rob Parrish) <== 

  ==> DFJK: Density-Fitted J/K Matrices <==

    J tasked:                  Yes
    K tasked:                  Yes
    wK tasked:                  No
    OpenMP threads:             12
    Integrals threads:          12
    Memory (MB):             42915
    Algorithm:                Core
    Integral Cache:           NONE
    Schwarz Cutoff:          1E-12
    Fitting Condition:       1E-12

   => Auxiliary Basis Set <=

  Basis Set: 
    Number of shells: 492
    Number of basis function: 1660
    Number of Cartesian functions: 2038
    Spherical Harmonics?: true
    Max angular momentum: 4

  ==> CPHF Iterations <==

  => Iterations <=

             Iter  Converged  Remaining    Residual
  CGR           1          0          1   9.270E-02
  CGR           2          0          1   1.360E-02
  CGR           3          0          1   4.095E-03
  CGR           4          0          1   9.001E-04
  CGR           5          0          1   2.312E-04
  CGR           6          0          1   4.942E-05
  CGR           7          0          1   1.401E-05
  CGR           8          0          1   3.591E-06
  CGR           9          1          0   9.311E-07

    CGRSolver converged.

  ==> DFCorrGrad: Density-Fitted Correlated Gradients <==

    OpenMP threads:             12
    Integrals threads:          12
    Memory (MB):             42915
    Schwarz Cutoff:          0E+00
    Fitting Condition:       1E-12

   => Auxiliary Basis Set <=

  Basis Set: 
    Number of shells: 492
    Number of basis function: 1660
    Number of Cartesian functions: 2038
    Spherical Harmonics?: true
    Max angular momentum: 4

	-----------------------------------------------------------
	 ==================> DF-MP2 Energies <==================== 
	-----------------------------------------------------------
	 Reference Energy          =    -313.5333052161334990 [Eh]
	 Singles Energy            =      -0.0000000000000004 [Eh]
	 Same-Spin Energy          =      -0.3171682258377093 [Eh]
	 Opposite-Spin Energy      =      -1.1269838795369411 [Eh]
	 Correlation Energy        =      -1.4441521053746509 [Eh]
	 Total Energy              =    -314.9774573215081546 [Eh]
	-----------------------------------------------------------
	 ================> DF-SCS-MP2 Energies <================== 
	-----------------------------------------------------------
	 SCS Same-Spin Scale       =       0.3333333333333333 [-]
	 SCS Opposite-Spin Scale   =       1.2000000000000000 [-]
	 SCS Same-Spin Energy      =      -0.1057227419459031 [Eh]
	 SCS Opposite-Spin Energy  =      -1.3523806554443294 [Eh]
	 SCS Correlation Energy    =      -1.4581033973902329 [Eh]
	 SCS Total Energy          =    -314.9914086135237312 [Eh]
	-----------------------------------------------------------


  -Total Gradient:
     Atom            X                  Y                   Z
    ------   -----------------  -----------------  -----------------
       1       -0.000000101909    -0.000000280188     0.000000140750
       2        0.000000342493    -0.000000071619    -0.000000190929
       3        0.000000151228     0.000000210014     0.000000319780
       4       -0.000000129849     0.000000295715    -0.000000192152
       5        0.000000249968    -0.000000161545    -0.000000062607
       6       -0.000000023144    -0.000000014476     0.000000106090
       7        0.000000025726    -0.000000012644    -0.000000018508
       8        0.000000045440     0.000000056621     0.000000067506
       9        0.000000071707     0.000000784389    -0.000000123959
      10        0.000000404601    -0.000000437818     0.000000240148
      11       -0.000000167404    -0.000000341167    -0.000000425541
      12       -0.000000218504     0.000000101984     0.000000154456
      13        0.000000012509     0.000000004362    -0.000000020505
      14       -0.000000050019    -0.000000003613     0.000000006846
      15       -0.000000445511    -0.000000745614    -0.000000171268
      16       -0.000000285431     0.000000458658    -0.000000085691
      17        0.000000060337     0.000000046588     0.000000455198
      18       -0.000000134379    -0.000000046193    -0.000000226590
      19       -0.000000220902    -0.000000033385     0.000000080501
      20       -0.000000080084    -0.000000293667     0.000000013487
      21       -0.000000026122     0.000000436707     0.000000218200
      22        0.000000207552     0.000000046222    -0.000000214764
      23        0.000000016508    -0.000000126841     0.000000092856
      24        0.000000395479     0.000000258806    -0.000000105595
      25       -0.000000000261    -0.000000210293    -0.000000141018
      26       -0.000000100028     0.000000078994     0.000000083309


			-----------------------------------------
			 OPTKING 2.0: for geometry optimizations 
			  - R.A. King,  Bethel University        
			-----------------------------------------

	Internal coordinates to be generated automatically.
	Detected frag 1 with atoms:  1 2 3 4 5 6 7 8 9 10 11 12 13 14 15 16 17 18 19 20
	 21 22 23 24 25 26
	---Fragment 1 Bond Connectivity---
	 1 : 2 3 4 9
	 2 : 1
	 3 : 1
	 4 : 1
	 5 : 6 7 8 12
	 6 : 5
	 7 : 5
	 8 : 5
	 9 : 1 10 11 15
	 10 : 9
	 11 : 9
	 12 : 5 13 14 24
	 13 : 12
	 14 : 12
	 15 : 9 16 17 18
	 16 : 15
	 17 : 15
	 18 : 15 19 20 21
	 19 : 18
	 20 : 18
	 21 : 18 22 23 24
	 22 : 21
	 23 : 21
	 24 : 12 21 25 26
	 25 : 24
	 26 : 24

	---Fragment 1 Geometry and Gradient---
	 C           6.1694190417        1.5553225117       -0.9841489602
	 H           7.8248672462        0.8902103703       -2.0126668258
	 H           6.8236746025        2.5199350717        0.7160011280
	 H           5.2077059023        2.9469595528       -2.1620829029
	 C          -3.8928859135        3.0372557566        1.0476644928
	 H          -2.2490337235        2.6928769701        2.2333700797
	 H          -5.5720924722        2.6320028425        2.1731124552
	 H          -3.9201944691        5.0434027383        0.5782061373
	 C           4.3941431985       -0.6092083234       -0.3103087011
	 H           5.4007755445       -2.0163639031        0.8192780615
	 H           3.7908631821       -1.5689055314       -2.0358958369
	 C          -3.8834461463        1.4138783747       -1.3372497614
	 H          -5.5542671082        1.9065498235       -2.4445876057
	 H          -2.2579340282        1.8875709262       -2.5222054537
	 C           2.0881873645        0.2941831209        1.1632245281
	 H           1.1446746294        1.7799190730        0.0833065717
	 H           2.7356214042        1.1694680522        2.9211946500
	 C           0.2316230362       -1.8404457378        1.7656112563
	 H          -1.0430444203       -1.2772750406        3.2899337208
	 H           1.3276155280       -3.4313331367        2.5003777069
	 C          -1.3431880803       -2.7247701598       -0.5040616787
	 H          -0.2472434259       -2.4789922072       -2.2401505362
	 H          -1.6868926593       -4.7536933943       -0.3359996379
	 C          -3.9138889626       -1.4412582215       -0.8385842002
	 H          -4.8612985092       -2.3753374736       -2.4181672550
	 H          -5.0773387759       -1.8158355329        0.8314118718
	            -0.0000001019       -0.0000002802        0.0000001407
	             0.0000003425       -0.0000000716       -0.0000001909
	             0.0000001512        0.0000002100        0.0000003198
	            -0.0000001298        0.0000002957       -0.0000001922
	             0.0000002500       -0.0000001615       -0.0000000626
	            -0.0000000231       -0.0000000145        0.0000001061
	             0.0000000257       -0.0000000126       -0.0000000185
	             0.0000000454        0.0000000566        0.0000000675
	             0.0000000717        0.0000007844       -0.0000001240
	             0.0000004046       -0.0000004378        0.0000002401
	            -0.0000001674       -0.0000003412       -0.0000004255
	            -0.0000002185        0.0000001020        0.0000001545
	             0.0000000125        0.0000000044       -0.0000000205
	            -0.0000000500       -0.0000000036        0.0000000068
	            -0.0000004455       -0.0000007456       -0.0000001713
	            -0.0000002854        0.0000004587       -0.0000000857
	             0.0000000603        0.0000000466        0.0000004552
	            -0.0000001344       -0.0000000462       -0.0000002266
	            -0.0000002209       -0.0000000334        0.0000000805
	            -0.0000000801       -0.0000002937        0.0000000135
	            -0.0000000261        0.0000004367        0.0000002182
	             0.0000002076        0.0000000462       -0.0000002148
	             0.0000000165       -0.0000001268        0.0000000929
	             0.0000003955        0.0000002588       -0.0000001056
	            -0.0000000003       -0.0000002103       -0.0000001410
	            -0.0000001000        0.0000000790        0.0000000833

	Previous optimization step data not found.  Starting new optimization.

	---Fragment 1 Intrafragment Coordinates---
	 - Coordinate -           - BOHR/RAD -       - ANG/DEG -
	 R(1,2)           =         2.059304	       1.089737
	 R(1,3)           =         2.061319	       1.090803
	 R(1,4)           =         2.061328	       1.090808
	 R(1,9)           =         2.879385	       1.523705
	 R(5,6)           =         2.055905	       1.087938
	 R(5,7)           =         2.061698	       1.091003
	 R(5,8)           =         2.060525	       1.090383
	 R(5,12)          =         2.885006	       1.526679
	 R(9,10)          =         2.066243	       1.093409
	 R(9,11)          =         2.064610	       1.092545
	 R(9,15)          =         2.881813	       1.524990
	 R(12,13)         =         2.064114	       1.092282
	 R(12,14)         =         2.066590	       1.093592
	 R(12,24)         =         2.898517	       1.533829
	 R(15,16)         =         2.064909	       1.092703
	 R(15,17)         =         2.067790	       1.094227
	 R(15,18)         =         2.892463	       1.530625
	 R(18,19)         =         2.065308	       1.092914
	 R(18,20)         =         2.066883	       1.093747
	 R(18,21)         =         2.900599	       1.534931
	 R(21,22)         =         2.067730	       1.094195
	 R(21,23)         =         2.064681	       1.092582
	 R(21,24)         =         2.892717	       1.530760
	 R(24,25)         =         2.065229	       1.092872
	 R(24,26)         =         2.069495	       1.095130
	 B(1,9,10)        =         1.917197	     109.847272
	 B(1,9,11)        =         1.911331	     109.511192
	 B(1,9,15)        =         1.957732	     112.169789
	 B(2,1,3)         =         1.883812	     107.934488
	 B(2,1,4)         =         1.883566	     107.920376
	 B(2,1,9)         =         1.949506	     111.698484
	 B(3,1,4)         =         1.879133	     107.666408
	 B(3,1,9)         =         1.933124	     110.759838
	 B(4,1,9)         =         1.932201	     110.706963
	 B(5,12,13)       =         1.882335	     107.849851
	 B(5,12,14)       =         1.925797	     110.340036
	 B(5,12,24)       =         1.995465	     114.331738
	 B(6,5,7)         =         1.879142	     107.666884
	 B(6,5,8)         =         1.880822	     107.763149
	 B(6,5,12)        =         1.960472	     112.326778
	 B(7,5,8)         =         1.880684	     107.755281
	 B(7,5,12)        =         1.921246	     110.079265
	 B(8,5,12)        =         1.938579	     111.072388
	 B(9,15,16)       =         1.900499	     108.890585
	 B(9,15,17)       =         1.893219	     108.473486
	 B(9,15,18)       =         1.970064	     112.876342
	 B(10,9,11)       =         1.857415	     106.422025
	 B(10,9,15)       =         1.900522	     108.891895
	 B(11,9,15)       =         1.916930	     109.831985
	 B(12,24,21)      =         2.034905	     116.591454
	 B(12,24,25)      =         1.895209	     108.587470
	 B(12,24,26)      =         1.899721	     108.845993
	 B(13,12,14)      =         1.848742	     105.925102
	 B(13,12,24)      =         1.895371	     108.596763
	 B(14,12,24)      =         1.909953	     109.432235
	 B(15,18,19)      =         1.926891	     110.402705
	 B(15,18,20)      =         1.877291	     107.560838
	 B(15,18,21)      =         1.993822	     114.237581
	 B(16,15,17)      =         1.857846	     106.446761
	 B(16,15,18)      =         1.924776	     110.281566
	 B(17,15,18)      =         1.913785	     109.651831
	 B(18,21,22)      =         1.910259	     109.449765
	 B(18,21,23)      =         1.903166	     109.043353
	 B(18,21,24)      =         2.023837	     115.957324
	 B(19,18,20)      =         1.849152	     105.948613
	 B(19,18,21)      =         1.902412	     109.000202
	 B(20,18,21)      =         1.908582	     109.353686
	 B(21,24,25)      =         1.870715	     107.184082
	 B(21,24,26)      =         1.902842	     109.024839
	 B(22,21,23)      =         1.847702	     105.865524
	 B(22,21,24)      =         1.897778	     108.734645
	 B(23,21,24)      =         1.872865	     107.307270
	 B(25,24,26)      =         1.851919	     106.107135
	 D(1,9,15,16)     =         0.958302	      54.906675
	 D(1,9,15,17)     =        -1.056787	     -60.549435
	 D(1,9,15,18)     =         3.101943	     177.728247
	 D(2,1,9,10)      =         1.011004	      57.926286
	 D(2,1,9,11)      =        -1.022948	     -58.610632
	 D(2,1,9,15)      =         3.127238	     179.177547
	 D(3,1,9,10)      =        -1.089474	     -62.422281
	 D(3,1,9,11)      =        -3.123427	    -178.959199
	 D(3,1,9,15)      =         1.026759	      58.828980
	 D(4,1,9,10)      =         3.110541	     178.220873
	 D(4,1,9,11)      =         1.076588	      61.683956
	 D(4,1,9,15)      =        -1.056411	     -60.527865
	 D(5,12,24,21)    =        -1.537101	     -88.069389
	 D(5,12,24,25)    =         2.632046	     150.805139
	 D(5,12,24,26)    =         0.623318	      35.713467
	 D(6,5,12,13)     =        -3.113751	    -178.404767
	 D(6,5,12,14)     =        -1.102001	     -63.139993
	 D(6,5,12,24)     =         1.059603	      60.710795
	 D(7,5,12,13)     =         1.075701	      61.633156
	 D(7,5,12,14)     =         3.087451	     176.897930
	 D(7,5,12,24)     =        -1.034130	     -59.251283
	 D(8,5,12,13)     =        -1.005812	     -57.628769
	 D(8,5,12,14)     =         1.005938	      57.636005
	 D(8,5,12,24)     =        -3.115643	    -178.513207
	 D(9,15,18,19)    =         2.827117	     161.981887
	 D(9,15,18,20)    =         0.817130	      46.818127
	 D(9,15,18,21)    =        -1.304825	     -74.760981
	 D(10,9,15,16)    =         3.084093	     176.705500
	 D(10,9,15,17)    =         1.069004	      61.249390
	 D(10,9,15,18)    =        -1.055452	     -60.472929
	 D(11,9,15,16)    =        -1.171508	     -67.122474
	 D(11,9,15,17)    =         3.096588	     177.421416
	 D(11,9,15,18)    =         0.972133	      55.699098
	 D(12,24,21,18)   =         1.096332	      62.815209
	 D(12,24,21,22)   =        -1.064228	     -60.975746
	 D(12,24,21,23)   =        -3.055339	    -175.058027
	 D(13,12,24,21)   =         2.643488	     151.460711
	 D(13,12,24,25)   =         0.529450	      30.335239
	 D(13,12,24,26)   =        -1.479279	     -84.756433
	 D(14,12,24,21)   =         0.632970	      36.266529
	 D(14,12,24,25)   =        -1.481068	     -84.858943
	 D(14,12,24,26)   =         2.793389	     160.049385
	 D(15,18,21,22)   =         0.535445	      30.678750
	 D(15,18,21,23)   =         2.549188	     146.057700
	 D(15,18,21,24)   =        -1.618613	     -92.739715
	 D(16,15,18,19)   =        -1.326022	     -75.975480
	 D(16,15,18,20)   =         2.947176	     168.860760
	 D(16,15,18,21)   =         0.825221	      47.281652
	 D(17,15,18,19)   =         0.714310	      40.926948
	 D(17,15,18,20)   =        -1.295677	     -74.236812
	 D(17,15,18,21)   =         2.865553	     164.184080
	 D(18,21,24,25)   =        -3.059913	    -175.320089
	 D(18,21,24,26)   =        -1.062483	     -60.875776
	 D(19,18,21,22)   =         2.699864	     154.690804
	 D(19,18,21,23)   =        -1.569579	     -89.930246
	 D(19,18,21,24)   =         0.545805	      31.272339
	 D(20,18,21,22)   =        -1.569185	     -89.907662
	 D(20,18,21,23)   =         0.444558	      25.471288
	 D(20,18,21,24)   =         2.559942	     146.673873
	 D(22,21,24,25)   =         1.062713	      60.888956
	 D(22,21,24,26)   =         3.060143	     175.333269
	 D(23,21,24,25)   =        -0.928399	     -53.193325
	 D(23,21,24,26)   =         1.069031	      61.250988
	 R(5,15)          =         6.581112	       3.482575
	 R(5,18)          =         6.427985	       3.401543
	 R(12,15)         =         6.570121	       3.476759

	Current energy   :      -314.9774573215

	Generating empirical Hessian (Schlegel '84) for each fragment.
	Taking RFO optimization step.
	Going to follow RFO solution 1.
	Using RFO vector 1.
	Norm of target step-size    0.00025
	Projected energy change by RFO approximation:        -0.0000000008

	Back-transformation to cartesian coordinates...
	Successfully converged to displaced geometry.

	--- Internal Coordinate Step in ANG or DEG, aJ/ANG or AJ/DEG ---
	 ---------------------------------------------------------------------------
	   Coordinate                Previous        Force       Change         New 
	   ----------                --------       ------       ------       ------
	    1 R(1,2)          =      1.089737    -0.000003    -0.000001     1.089736
	    2 R(1,3)          =      1.090803    -0.000003    -0.000001     1.090803
	    3 R(1,4)          =      1.090808    -0.000003    -0.000001     1.090807
	    4 R(1,9)          =      1.523705    -0.000002    -0.000000     1.523705
	    5 R(5,6)          =      1.087938    -0.000000    -0.000000     1.087938
	    6 R(5,7)          =      1.091003     0.000000     0.000000     1.091004
	    7 R(5,8)          =      1.090383    -0.000000    -0.000000     1.090383
	    8 R(5,12)         =      1.526679     0.000001     0.000000     1.526680
	    9 R(9,10)         =      1.093409    -0.000005    -0.000001     1.093408
	   10 R(9,11)         =      1.092545    -0.000005    -0.000001     1.092544
	   11 R(9,15)         =      1.524990    -0.000005    -0.000001     1.524989
	   12 R(12,13)        =      1.092282    -0.000000    -0.000000     1.092282
	   13 R(12,14)        =      1.093592     0.000000     0.000000     1.093592
	   14 R(12,24)        =      1.533829     0.000001     0.000000     1.533829
	   15 R(15,16)        =      1.092703    -0.000004    -0.000001     1.092702
	   16 R(15,17)        =      1.094227    -0.000004    -0.000001     1.094226
	   17 R(15,18)        =      1.530625    -0.000000    -0.000000     1.530625
	   18 R(18,19)        =      1.092914    -0.000002    -0.000000     1.092914
	   19 R(18,20)        =      1.093747    -0.000002    -0.000000     1.093747
	   20 R(18,21)        =      1.534931     0.000004     0.000001     1.534932
	   21 R(21,22)        =      1.094195    -0.000002    -0.000000     1.094195
	   22 R(21,23)        =      1.092582    -0.000001    -0.000000     1.092582
	   23 R(21,24)        =      1.530760     0.000001     0.000000     1.530760
	   24 R(24,25)        =      1.092872    -0.000002    -0.000000     1.092872
	   25 R(24,26)        =      1.095130    -0.000001    -0.000000     1.095129
	   26 B(1,9,10)       =    109.847272     0.000000     0.000037   109.847309
	   27 B(1,9,11)       =    109.511192     0.000000     0.000001   109.511193
	   28 B(1,9,15)       =    112.169789    -0.000000    -0.000061   112.169728
	   29 B(2,1,3)        =    107.934488     0.000000     0.000011   107.934499
	   30 B(2,1,4)        =    107.920376     0.000000     0.000032   107.920408
	   31 B(2,1,9)        =    111.698484    -0.000000    -0.000011   111.698473
	   32 B(3,1,4)        =    107.666408     0.000000     0.000017   107.666425
	   33 B(3,1,9)        =    110.759838    -0.000000    -0.000041   110.759797
	   34 B(4,1,9)        =    110.706963    -0.000000    -0.000005   110.706959
	   35 B(5,12,13)      =    107.849851    -0.000000    -0.000037   107.849815
	   36 B(5,12,14)      =    110.340036     0.000000    -0.000016   110.340020
	   37 B(5,12,24)      =    114.331738     0.000000     0.000014   114.331752
	   38 B(6,5,7)        =    107.666884     0.000000     0.000015   107.666899
	   39 B(6,5,8)        =    107.763149     0.000000     0.000009   107.763158
	   40 B(6,5,12)       =    112.326778    -0.000000    -0.000035   112.326742
	   41 B(7,5,8)        =    107.755281    -0.000000     0.000001   107.755282
	   42 B(7,5,12)       =    110.079265     0.000000     0.000019   110.079284
	   43 B(8,5,12)       =    111.072388    -0.000000    -0.000008   111.072380
	   44 B(9,15,16)      =    108.890585     0.000000     0.000019   108.890604
	   45 B(9,15,17)      =    108.473486     0.000000    -0.000043   108.473443
	   46 B(9,15,18)      =    112.876342    -0.000000    -0.000174   112.876168
	   47 B(10,9,11)      =    106.422025     0.000000     0.000053   106.422078
	   48 B(10,9,15)      =    108.891895    -0.000000    -0.000046   108.891849
	   49 B(11,9,15)      =    109.831985     0.000000     0.000023   109.832008
	   50 B(12,24,21)     =    116.591454    -0.000000    -0.000069   116.591385
	   51 B(12,24,25)     =    108.587470    -0.000000    -0.000065   108.587405
	   52 B(12,24,26)     =    108.845993     0.000000     0.000059   108.846052
	   53 B(13,12,14)     =    105.925102     0.000000     0.000011   105.925113
	   54 B(13,12,24)     =    108.596763    -0.000000    -0.000005   108.596759
	   55 B(14,12,24)     =    109.432235     0.000000     0.000032   109.432267
	   56 B(15,18,19)     =    110.402705    -0.000000    -0.000061   110.402643
	   57 B(15,18,20)     =    107.560838    -0.000000    -0.000082   107.560757
	   58 B(15,18,21)     =    114.237581     0.000000     0.000038   114.237619
	   59 B(16,15,17)     =    106.446761    -0.000000     0.000063   106.446824
	   60 B(16,15,18)     =    110.281566     0.000000     0.000079   110.281645
	   61 B(17,15,18)     =    109.651831     0.000000     0.000068   109.651899
	   62 B(18,21,22)     =    109.449765    -0.000000    -0.000018   109.449747
	   63 B(18,21,23)     =    109.043353     0.000000     0.000150   109.043503
	   64 B(18,21,24)     =    115.957324    -0.000000    -0.000075   115.957250
	   65 B(19,18,20)     =    105.948613     0.000000     0.000007   105.948620
	   66 B(19,18,21)     =    109.000202    -0.000000    -0.000017   109.000185
	   67 B(20,18,21)     =    109.353686     0.000000     0.000115   109.353801
	   68 B(21,24,25)     =    107.184082     0.000000     0.000083   107.184165
	   69 B(21,24,26)     =    109.024839     0.000000    -0.000007   109.024832
	   70 B(22,21,23)     =    105.865524    -0.000000    -0.000014   105.865510
	   71 B(22,21,24)     =    108.734645     0.000000    -0.000071   108.734574
	   72 B(23,21,24)     =    107.307270    -0.000000     0.000033   107.307303
	   73 B(25,24,26)     =    106.107135    -0.000000     0.000005   106.107140
	   74 D(1,9,15,16)    =     54.906675     0.000000     0.001361    54.908036
	   75 D(1,9,15,17)    =    -60.549435     0.000000     0.001300   -60.548135
	   76 D(1,9,15,18)    =    177.728247     0.000000     0.001358   177.729605
	   77 D(2,1,9,10)     =     57.926286     0.000000     0.000199    57.926485
	   78 D(2,1,9,11)     =    -58.610632    -0.000000     0.000114   -58.610518
	   79 D(2,1,9,15)     =    179.177547    -0.000000     0.000126   179.177673
	   80 D(3,1,9,10)     =    -62.422281     0.000000     0.000221   -62.422060
	   81 D(3,1,9,11)     =   -178.959199    -0.000000     0.000136  -178.959063
	   82 D(3,1,9,15)     =     58.828980    -0.000000     0.000147    58.829127
	   83 D(4,1,9,10)     =    178.220873     0.000000     0.000230   178.221103
	   84 D(4,1,9,11)     =     61.683956    -0.000000     0.000144    61.684100
	   85 D(4,1,9,15)     =    -60.527865    -0.000000     0.000156   -60.527709
	   86 D(5,12,24,21)   =    -88.069389    -0.000000    -0.000210   -88.069599
	   87 D(5,12,24,25)   =    150.805139    -0.000000    -0.000220   150.804920
	   88 D(5,12,24,26)   =     35.713467    -0.000000    -0.000222    35.713245
	   89 D(6,5,12,13)    =   -178.404767     0.000000     0.000772  -178.403995
	   90 D(6,5,12,14)    =    -63.139993    -0.000000     0.000755   -63.139238
	   91 D(6,5,12,24)    =     60.710795     0.000000     0.000796    60.711590
	   92 D(7,5,12,13)    =     61.633156     0.000000     0.000763    61.633918
	   93 D(7,5,12,14)    =    176.897930    -0.000000     0.000746   176.898676
	   94 D(7,5,12,24)    =    -59.251283     0.000000     0.000786   -59.250496
	   95 D(8,5,12,13)    =    -57.628769     0.000000     0.000754   -57.628015
	   96 D(8,5,12,14)    =     57.636005    -0.000000     0.000737    57.636742
	   97 D(8,5,12,24)    =   -178.513207     0.000000     0.000778  -178.512430
	   98 D(9,15,18,19)   =    161.981887    -0.000000    -0.004212   161.977674
	   99 D(9,15,18,20)   =     46.818127    -0.000000    -0.004143    46.813984
	  100 D(9,15,18,21)   =    -74.760981    -0.000000    -0.004255   -74.765237
	  101 D(10,9,15,16)   =    176.705500     0.000000     0.001335   176.706835
	  102 D(10,9,15,17)   =     61.249390     0.000000     0.001274    61.250664
	  103 D(10,9,15,18)   =    -60.472929     0.000000     0.001332   -60.471596
	  104 D(11,9,15,16)   =    -67.122474     0.000000     0.001385   -67.121089
	  105 D(11,9,15,17)   =    177.421416     0.000000     0.001324   177.422741
	  106 D(11,9,15,18)   =     55.699098     0.000000     0.001382    55.700480
	  107 D(12,24,21,18)  =     62.815209    -0.000000    -0.001500    62.813709
	  108 D(12,24,21,22)  =    -60.975746    -0.000000    -0.001364   -60.977110
	  109 D(12,24,21,23)  =   -175.058027     0.000000    -0.001329  -175.059357
	  110 D(13,12,24,21)  =    151.460711     0.000000    -0.000168   151.460542
	  111 D(13,12,24,25)  =     30.335239    -0.000000    -0.000178    30.335061
	  112 D(13,12,24,26)  =    -84.756433     0.000000    -0.000181   -84.756614
	  113 D(14,12,24,21)  =     36.266529    -0.000000    -0.000196    36.266333
	  114 D(14,12,24,25)  =    -84.858943    -0.000000    -0.000205   -84.859148
	  115 D(14,12,24,26)  =    160.049385    -0.000000    -0.000208   160.049177
	  116 D(15,18,21,22)  =     30.678750    -0.000000    -0.000776    30.677974
	  117 D(15,18,21,23)  =    146.057700    -0.000000    -0.000720   146.056980
	  118 D(15,18,21,24)  =    -92.739715    -0.000000    -0.000611   -92.740326
	  119 D(16,15,18,19)  =    -75.975480    -0.000000    -0.004252   -75.979732
	  120 D(16,15,18,20)  =    168.860760    -0.000000    -0.004183   168.856578
	  121 D(16,15,18,21)  =     47.281652    -0.000000    -0.004295    47.277357
	  122 D(17,15,18,19)  =     40.926948     0.000000    -0.004089    40.922859
	  123 D(17,15,18,20)  =    -74.236812     0.000000    -0.004019   -74.240831
	  124 D(17,15,18,21)  =    164.184080     0.000000    -0.004132   164.179948
	  125 D(18,21,24,25)  =   -175.320089    -0.000000    -0.001567  -175.321657
	  126 D(18,21,24,26)  =    -60.875776    -0.000000    -0.001522   -60.877298
	  127 D(19,18,21,22)  =    154.690804    -0.000000    -0.000843   154.689961
	  128 D(19,18,21,23)  =    -89.930246    -0.000000    -0.000786   -89.931033
	  129 D(19,18,21,24)  =     31.272339    -0.000000    -0.000678    31.271661
	  130 D(20,18,21,22)  =    -89.907662    -0.000000    -0.000781   -89.908443
	  131 D(20,18,21,23)  =     25.471288     0.000000    -0.000724    25.470564
	  132 D(20,18,21,24)  =    146.673873     0.000000    -0.000616   146.673258
	  133 D(22,21,24,25)  =     60.888956    -0.000000    -0.001431    60.887525
	  134 D(22,21,24,26)  =    175.333269    -0.000000    -0.001385   175.331884
	  135 D(23,21,24,25)  =    -53.193325    -0.000000    -0.001397   -53.194722
	  136 D(23,21,24,26)  =     61.250988     0.000000    -0.001351    61.249637
	  137 R(5,15)         =      3.482575     0.000001     0.000021     3.482596
	  138 R(5,18)         =      3.401543    -0.000001    -0.000011     3.401532
	  139 R(12,15)        =      3.476759     0.000001    -0.000003     3.476756
	 ---------------------------------------------------------------------------

  ==> Convergence Check <==

  Measures of convergence in internal coordinates in au.
  Criteria marked as inactive (o), active & met (*), and active & unmet ( ).
  --------------------------------------------------------------------------------------------- ~
   Step     Total Energy     Delta E     MAX Force     RMS Force      MAX Disp      RMS Disp    ~
  --------------------------------------------------------------------------------------------- ~
    Convergence Criteria             o    2.00e-06 *    1.00e-06 *    6.00e-06 *    4.00e-06 *  ~
  --------------------------------------------------------------------------------------------- ~
      1    -314.97745732   -3.15e+02 o    6.25e-07 *    1.62e-07 *    7.50e-05      2.14e-05    ~
  ---------------------------------------------------------------------------------------------

	Writing optimization data to binary file.
	Structure for next step:
	Cartesian Geometry (in Angstrom)
	    C     3.2647709634   0.8230146625  -0.5207749194
	    H     4.1408214522   0.4710303046  -1.0649872628
	    H     3.6109454870   1.3335017428   0.3789009748
	    H     2.7558833806   1.5594113136  -1.1441640830
	    C    -2.0600662287   1.6072315285   0.5544399797
	    H    -1.1901666540   1.4250017228   1.1818759962
	    H    -2.9486534923   1.3927532391   1.1500073289
	    H    -2.0745416269   2.6688423572   0.3060303496
	    C     2.3253193088  -0.3223909258  -0.1641910451
	    H     2.8579763551  -1.0669988821   0.4336186317
	    H     2.0061220532  -0.8302793370  -1.0773256286
	    C    -2.0550660611   0.7481974704  -0.7076162206
	    H    -2.9392307369   1.0089093077  -1.2935870689
	    H    -1.1948862493   0.9988836074  -1.3346660672
	    C     1.1050232150   0.1556966477   0.6154890183
	    H     0.6057518638   0.9418722727   0.0439525288
	    H     1.4475874338   0.6189378762   1.5457517707
	    C     0.1225749752  -0.9738952560   0.9342859348
	    H    -0.5519387387  -0.6758659542   1.7409271057
	    H     0.7025545934  -1.8157503633   1.3231123151
	    C    -0.7107965627  -1.4418752322  -0.2667562783
	    H    -0.1308653037  -1.3118148180  -1.1854655699
	    H    -0.8926673232  -2.5155359775  -0.1778139720
	    C    -2.0711609479  -0.7626804106  -0.4437583381
	    H    -2.5725094912  -1.2569633096  -1.2796429535
	    H    -2.6868244465  -0.9609190373   0.4399658915
			--------------------------
			 OPTKING Finished Execution 
			--------------------------

    Structure for next step:
    Molecular point group: c1
    Full point group: C1

    Geometry (in Angstrom), charge = 0, multiplicity = 1:

    C            3.264771489437     0.823013517482    -0.520773186022
    H            4.140821978194     0.471029159579    -1.064985529408
    H            3.610946013007     1.333500597807     0.378902708202
    H            2.755883906624     1.559410168546    -1.144162349592
    C           -2.060065702670     1.607230383499     0.554441713110
    H           -1.190166127964     1.425000577740     1.181877729606
    H           -2.948652966336     1.392752094069     1.150009062271
    H           -2.074541100867     2.668841212182     0.306032082996
    C            2.325319834779    -0.322392070801    -0.164189311656
    H            2.857976881068    -1.067000027169     0.433620365064
    H            2.006122579169    -0.830280482036    -1.077323895170
    C           -2.055065535056     0.748196325390    -0.707614487231
    H           -2.939230210943     1.008908162663    -1.293585335521
    H           -1.194885723267     0.998882462409    -1.334664333792
    C            1.105023741026     0.155695502687     0.615490751673
    H            0.605752389778     0.941871127668     0.043954262239
    H            1.447587959752     0.618936731120     1.545753504122
    C            0.122575501172    -0.973896401049     0.934287668154
    H           -0.551938212657    -0.675867099269     1.740928839115
    H            0.702555119404    -1.815751508342     1.323114048518
    C           -0.710796036718    -1.441876377184    -0.266754544899
    H           -0.130864777663    -1.311815963066    -1.185463836473
    H           -0.892666797229    -2.515537122507    -0.177812238651
    C           -2.071160421919    -0.762681555648    -0.443756604675
    H           -2.572508965240    -1.256964454631    -1.279641220071
    H           -2.686823920541    -0.960920182358     0.439967624856

gradient() will perform analytic gradient computation.

*** tstart() called on wr38
*** at Wed Sep 21 05:04:44 2016


         ---------------------------------------------------------
                                   SCF
            by Justin Turney, Rob Parrish, and Andy Simmonett
                              RHF Reference
                       12 Threads,  60000 MiB Core
         ---------------------------------------------------------

  ==> Geometry <==

    Molecular point group: c1
    Full point group: C1

    Geometry (in Angstrom), charge = 0, multiplicity = 1:

       Center              X                  Y                   Z               Mass       
    ------------   -----------------  -----------------  -----------------  -----------------
           C          3.264771489437     0.823013517482    -0.520773186022    12.000000000000
           H          4.140821978194     0.471029159579    -1.064985529408     1.007825032070
           H          3.610946013007     1.333500597807     0.378902708202     1.007825032070
           H          2.755883906624     1.559410168546    -1.144162349592     1.007825032070
           C         -2.060065702670     1.607230383499     0.554441713110    12.000000000000
           H         -1.190166127964     1.425000577740     1.181877729606     1.007825032070
           H         -2.948652966336     1.392752094069     1.150009062271     1.007825032070
           H         -2.074541100867     2.668841212182     0.306032082996     1.007825032070
           C          2.325319834779    -0.322392070801    -0.164189311656    12.000000000000
           H          2.857976881068    -1.067000027169     0.433620365064     1.007825032070
           H          2.006122579169    -0.830280482036    -1.077323895170     1.007825032070
           C         -2.055065535056     0.748196325390    -0.707614487231    12.000000000000
           H         -2.939230210943     1.008908162663    -1.293585335521     1.007825032070
           H         -1.194885723267     0.998882462409    -1.334664333792     1.007825032070
           C          1.105023741026     0.155695502687     0.615490751673    12.000000000000
           H          0.605752389778     0.941871127668     0.043954262239     1.007825032070
           H          1.447587959752     0.618936731120     1.545753504122     1.007825032070
           C          0.122575501172    -0.973896401049     0.934287668154    12.000000000000
           H         -0.551938212657    -0.675867099269     1.740928839115     1.007825032070
           H          0.702555119404    -1.815751508342     1.323114048518     1.007825032070
           C         -0.710796036718    -1.441876377184    -0.266754544899    12.000000000000
           H         -0.130864777663    -1.311815963066    -1.185463836473     1.007825032070
           H         -0.892666797229    -2.515537122507    -0.177812238651     1.007825032070
           C         -2.071160421919    -0.762681555648    -0.443756604675    12.000000000000
           H         -2.572508965240    -1.256964454631    -1.279641220071     1.007825032070
           H         -2.686823920541    -0.960920182358     0.439967624856     1.007825032070

  Running in c1 symmetry.

  Rotational constants: A =      0.09460  B =      0.03291  C =      0.02878 [cm^-1]
  Rotational constants: A =   2836.14962  B =    986.67037  C =    862.75517 [MHz]
  Nuclear repulsion =  402.805024329641071

  Charge       = 0
  Multiplicity = 1
  Electrons    = 66
  Nalpha       = 33
  Nbeta        = 33

  ==> Algorithm <==

  SCF Algorithm Type is DF.
  DIIS enabled.
  MOM disabled.
  Fractional occupation disabled.
  Guess Type is READ.
  Energy threshold   = 1.00e-10
  Density threshold  = 1.00e-10
  Integral threshold = 0.00e+00

  ==> Primary Basis <==

  Basis Set: AUG-CC-PVTZ
    Number of shells: 274
    Number of basis function: 782
    Number of Cartesian functions: 890
    Spherical Harmonics?: true
    Max angular momentum: 3

  ==> Pre-Iterations <==

   -------------------------------------------------------
    Irrep   Nso     Nmo     Nalpha   Nbeta   Ndocc  Nsocc
   -------------------------------------------------------
     A        782     782       0       0       0       0
   -------------------------------------------------------
    Total     782     782      33      33      33       0
   -------------------------------------------------------

  ==> Integral Setup <==

  ==> DFJK: Density-Fitted J/K Matrices <==

    J tasked:                  Yes
    K tasked:                  Yes
    wK tasked:                  No
    OpenMP threads:             12
    Integrals threads:          12
    Memory (MB):             42915
    Algorithm:                Core
    Integral Cache:           NONE
    Schwarz Cutoff:          1E-12
    Fitting Condition:       1E-12

   => Auxiliary Basis Set <=

  Basis Set: 
    Number of shells: 492
    Number of basis function: 1660
    Number of Cartesian functions: 2038
    Spherical Harmonics?: true
    Max angular momentum: 4

  Minimum eigenvalue in the overlap matrix is 1.8989770685E-06.
  Using Symmetric Orthogonalization.
  SCF Guess: Reading in previously saved MOs, projecting if necessary.

  Using orbitals from previous SCF, no projection.
  Recomputing DOCC and SOCC from number of alpha and beta electrons from previous calculation.
              A 
    DOCC [    33 ]

  ==> Iterations <==

                           Total Energy        Delta E     RMS |[F,P]|

   @DF-RHF iter   0:  -313.53333651435418   -3.13533e+02   1.70858e-07 
   @DF-RHF iter   1:  -313.53330556801228    3.09463e-05   3.55377e-08 
   @DF-RHF iter   2:  -313.53330556874681   -7.34531e-10   1.44856e-08 DIIS
   @DF-RHF iter   3:  -313.53330556885527   -1.08457e-10   6.29480e-09 DIIS
   @DF-RHF iter   4:  -313.53330556887983   -2.45564e-11   7.08022e-10 DIIS
   @DF-RHF iter   5:  -313.53330556888039   -5.68434e-13   2.12419e-10 DIIS
   @DF-RHF iter   6:  -313.53330556888051   -1.13687e-13   5.56733e-11 DIIS

  ==> Post-Iterations <==

    Orbital Energies (a.u.)
    -----------------------

    Doubly Occupied:                                                      

       1A    -11.213320     2A    -11.212158     3A    -11.211277  
       4A    -11.210742     5A    -11.210266     6A    -11.209684  
       7A    -11.207255     8A    -11.205726     9A     -1.093330  
      10A     -1.057440    11A     -1.006791    12A     -0.953442  
      13A     -0.881997    14A     -0.827377    15A     -0.790558  
      16A     -0.760365    17A     -0.646069    18A     -0.621601  
      19A     -0.610178    20A     -0.595185    21A     -0.575136  
      22A     -0.558477    23A     -0.555817    24A     -0.536044  
      25A     -0.507307    26A     -0.500763    27A     -0.492795  
      28A     -0.473595    29A     -0.464792    30A     -0.463224  
      31A     -0.443632    32A     -0.434611    33A     -0.433931  

    Virtual:                                                              

      34A      0.028986    35A      0.033209    36A      0.034444  
      37A      0.035299    38A      0.047302    39A      0.048594  
      40A      0.049757    41A      0.053149    42A      0.053694  
      43A      0.068981    44A      0.069138    45A      0.071383  
      46A      0.074271    47A      0.079239    48A      0.083818  
      49A      0.088654    50A      0.097190    51A      0.099667  
      52A      0.114622    53A      0.117837    54A      0.118912  
      55A      0.123820    56A      0.130039    57A      0.133609  
      58A      0.134635    59A      0.135959    60A      0.138154  
      61A      0.146279    62A      0.149370    63A      0.150012  
      64A      0.152431    65A      0.158295    66A      0.162190  
      67A      0.167390    68A      0.169751    69A      0.174904  
      70A      0.175855    71A      0.177864    72A      0.181614  
      73A      0.184256    74A      0.190047    75A      0.199669  
      76A      0.203380    77A      0.208244    78A      0.216016  
      79A      0.224169    80A      0.232845    81A      0.239004  
      82A      0.243974    83A      0.252897    84A      0.257037  
      85A      0.268255    86A      0.276019    87A      0.277835  
      88A      0.281844    89A      0.294013    90A      0.298793  
      91A      0.301265    92A      0.310465    93A      0.312072  
      94A      0.316923    95A      0.318217    96A      0.321576  
      97A      0.327577    98A      0.331847    99A      0.334595  
     100A      0.337532   101A      0.341903   102A      0.348412  
     103A      0.351033   104A      0.356160   105A      0.358710  
     106A      0.361348   107A      0.364016   108A      0.365120  
     109A      0.369768   110A      0.370965   111A      0.377176  
     112A      0.381242   113A      0.384542   114A      0.386343  
     115A      0.390133   116A      0.394678   117A      0.398590  
     118A      0.402544   119A      0.407331   120A      0.412085  
     121A      0.412662   122A      0.418991   123A      0.427417  
     124A      0.433672   125A      0.434595   126A      0.441264  
     127A      0.443150   128A      0.445659   129A      0.453767  
     130A      0.455547   131A      0.457845   132A      0.462770  
     133A      0.463596   134A      0.470815   135A      0.471932  
     136A      0.474549   137A      0.480274   138A      0.484042  
     139A      0.488156   140A      0.492190   141A      0.496671  
     142A      0.500934   143A      0.506605   144A      0.507361  
     145A      0.510402   146A      0.520171   147A      0.522483  
     148A      0.524562   149A      0.525851   150A      0.533221  
     151A      0.535361   152A      0.540173   153A      0.545003  
     154A      0.546608   155A      0.553446   156A      0.560740  
     157A      0.563823   158A      0.565214   159A      0.572467  
     160A      0.582843   161A      0.584310   162A      0.589189  
     163A      0.591266   164A      0.595500   165A      0.599813  
     166A      0.605607   167A      0.609091   168A      0.611882  
     169A      0.620517   170A      0.623852   171A      0.625700  
     172A      0.631596   173A      0.635548   174A      0.638933  
     175A      0.640781   176A      0.647745   177A      0.655201  
     178A      0.661645   179A      0.664051   180A      0.669861  
     181A      0.677198   182A      0.682478   183A      0.687391  
     184A      0.692083   185A      0.697652   186A      0.703275  
     187A      0.706818   188A      0.713876   189A      0.717869  
     190A      0.722776   191A      0.728509   192A      0.732470  
     193A      0.746242   194A      0.751802   195A      0.756415  
     196A      0.761133   197A      0.766916   198A      0.772497  
     199A      0.782355   200A      0.788791   201A      0.794296  
     202A      0.806747   203A      0.818047   204A      0.829827  
     205A      0.835610   206A      0.842146   207A      0.846769  
     208A      0.852222   209A      0.857750   210A      0.865741  
     211A      0.866828   212A      0.875889   213A      0.878248  
     214A      0.879525   215A      0.886985   216A      0.893447  
     217A      0.898652   218A      0.909793   219A      0.912515  
     220A      0.914842   221A      0.918545   222A      0.925789  
     223A      0.937777   224A      0.939553   225A      0.944208  
     226A      0.947821   227A      0.955924   228A      0.958770  
     229A      0.960270   230A      0.965462   231A      0.971627  
     232A      0.980511   233A      0.983621   234A      0.990974  
     235A      0.991506   236A      0.997898   237A      1.000878  
     238A      1.003142   239A      1.013872   240A      1.015577  
     241A      1.023483   242A      1.027726   243A      1.034597  
     244A      1.037575   245A      1.042419   246A      1.045609  
     247A      1.049040   248A      1.055963   249A      1.058197  
     250A      1.063246   251A      1.076537   252A      1.081743  
     253A      1.087993   254A      1.094154   255A      1.100421  
     256A      1.101319   257A      1.108630   258A      1.112580  
     259A      1.116686   260A      1.120770   261A      1.130713  
     262A      1.143075   263A      1.146883   264A      1.149287  
     265A      1.152964   266A      1.157586   267A      1.159285  
     268A      1.172699   269A      1.175862   270A      1.183311  
     271A      1.188392   272A      1.189325   273A      1.192161  
     274A      1.200438   275A      1.206732   276A      1.211780  
     277A      1.218380   278A      1.220779   279A      1.227348  
     280A      1.230071   281A      1.236066   282A      1.244807  
     283A      1.252416   284A      1.259634   285A      1.263343  
[...]
	 Skipping Hessian update for step 10.
	Denominators (dg)(dq) or (dq)(dq) are very small.
	 Skipping Hessian update for step 9.
	Denominators (dg)(dq) or (dq)(dq) are very small.
	 Skipping Hessian update for step 8.
	Denominators (dg)(dq) or (dq)(dq) are very small.
	 Skipping Hessian update for step 7.
	Denominators (dg)(dq) or (dq)(dq) are very small.
	 Skipping Hessian update for step 6.
	Denominators (dg)(dq) or (dq)(dq) are very small.
	 Skipping Hessian update for step 5.
	Denominators (dg)(dq) or (dq)(dq) are very small.
	 Skipping Hessian update for step 4.
	Denominators (dg)(dq) or (dq)(dq) are very small.
	 Skipping Hessian update for step 3.
	Denominators (dg)(dq) or (dq)(dq) are very small.
	 Skipping Hessian update for step 2.
	Steps to be used in Hessian update: 1
	Taking RFO optimization step.
	Going to follow RFO solution 1.
	Rejecting RFO root 1 because normalization gives large value.
	Rejecting RFO root 2 because normalization gives large value.
	Rejecting RFO root 3 because normalization gives large value.
	Rejecting RFO root 4 because normalization gives large value.
	Using RFO vector 5.
	Norm of target step-size    0.00002
	Projected energy change by RFO approximation:        -0.0000000000

	Back-transformation to cartesian coordinates...
	Successfully converged to displaced geometry.

	--- Internal Coordinate Step in ANG or DEG, aJ/ANG or AJ/DEG ---
	 ---------------------------------------------------------------------------
	   Coordinate                Previous        Force       Change         New 
	   ----------                --------       ------       ------       ------
	    1 R(1,2)          =      1.089736     0.000003     0.000000     1.089737
	    2 R(1,3)          =      1.090803     0.000002    -0.000000     1.090803
	    3 R(1,4)          =      1.090808     0.000004    -0.000000     1.090808
	    4 R(1,9)          =      1.523705     0.000001    -0.000000     1.523705
	    5 R(5,6)          =      1.087938     0.000002     0.000000     1.087938
	    6 R(5,7)          =      1.091004     0.000001    -0.000000     1.091004
	    7 R(5,8)          =      1.090383     0.000001    -0.000000     1.090383
	    8 R(5,12)         =      1.526680    -0.000001     0.000000     1.526680
	    9 R(9,10)         =      1.093408     0.000006     0.000000     1.093409
	   10 R(9,11)         =      1.092544     0.000004     0.000001     1.092545
	   11 R(9,15)         =      1.524990     0.000001     0.000001     1.524990
	   12 R(12,13)        =      1.092282    -0.000000    -0.000000     1.092282
	   13 R(12,14)        =      1.093593    -0.000002     0.000000     1.093593
	   14 R(12,24)        =      1.533829    -0.000001    -0.000000     1.533829
	   15 R(15,16)        =      1.092703     0.000003    -0.000000     1.092703
	   16 R(15,17)        =      1.094227     0.000002    -0.000000     1.094227
	   17 R(15,18)        =      1.530626     0.000000     0.000000     1.530626
	   18 R(18,19)        =      1.092915    -0.000001    -0.000000     1.092915
	   19 R(18,20)        =      1.093747     0.000001    -0.000000     1.093747
	   20 R(18,21)        =      1.534932     0.000002     0.000000     1.534932
	   21 R(21,22)        =      1.094196     0.000001    -0.000000     1.094196
	   22 R(21,23)        =      1.092582     0.000001     0.000000     1.092583
	   23 R(21,24)        =      1.530760    -0.000001    -0.000000     1.530760
	   24 R(24,25)        =      1.092873    -0.000001     0.000000     1.092873
	   25 R(24,26)        =      1.095130     0.000003     0.000000     1.095130
	   26 B(1,9,10)       =    109.847302    -0.000000     0.000002   109.847304
	   27 B(1,9,11)       =    109.511183    -0.000000    -0.000005   109.511179
	   28 B(1,9,15)       =    112.169719     0.000000     0.000013   112.169732
	   29 B(2,1,3)        =    107.934495    -0.000000    -0.000002   107.934493
	   30 B(2,1,4)        =    107.920370    -0.000000     0.000003   107.920373
	   31 B(2,1,9)        =    111.698462     0.000000    -0.000000   111.698461
	   32 B(3,1,4)        =    107.666402    -0.000000     0.000002   107.666404
	   33 B(3,1,9)        =    110.759844     0.000000    -0.000009   110.759835
	   34 B(4,1,9)        =    110.706985     0.000000     0.000007   110.706992
	   35 B(5,12,13)      =    107.849765     0.000000     0.000006   107.849771
	   36 B(5,12,14)      =    110.340056    -0.000000    -0.000004   110.340052
	   37 B(5,12,24)      =    114.331847    -0.000000    -0.000021   114.331827
	   38 B(6,5,7)        =    107.666901     0.000000    -0.000005   107.666897
	   39 B(6,5,8)        =    107.763145     0.000000     0.000012   107.763156
	   40 B(6,5,12)       =    112.326854    -0.000000    -0.000028   112.326827
	   41 B(7,5,8)        =    107.755270    -0.000000     0.000002   107.755272
	   42 B(7,5,12)       =    110.079282    -0.000000    -0.000001   110.079281
	   43 B(8,5,12)       =    111.072290     0.000000     0.000021   111.072311
	   44 B(9,15,16)      =    108.890629    -0.000000     0.000002   108.890631
	   45 B(9,15,17)      =    108.473486     0.000000    -0.000006   108.473480
	   46 B(9,15,18)      =    112.876230     0.000000    -0.000001   112.876229
	   47 B(10,9,11)      =    106.422032     0.000000     0.000015   106.422047
	   48 B(10,9,15)      =    108.891924    -0.000000    -0.000028   108.891896
	   49 B(11,9,15)      =    109.832003    -0.000000     0.000002   109.832005
	   50 B(12,24,21)     =    116.591414    -0.000000    -0.000018   116.591396
	   51 B(12,24,25)     =    108.587384     0.000000     0.000011   108.587395
	   52 B(12,24,26)     =    108.846051     0.000000     0.000011   108.846062
	   53 B(13,12,14)     =    105.925110    -0.000000    -0.000001   105.925109
	   54 B(13,12,24)     =    108.596698     0.000000     0.000013   108.596711
	   55 B(14,12,24)     =    109.432240     0.000000     0.000008   109.432248
	   56 B(15,18,19)     =    110.402718    -0.000000    -0.000017   110.402701
	   57 B(15,18,20)     =    107.560664     0.000000     0.000011   107.560675
	   58 B(15,18,21)     =    114.237666    -0.000000    -0.000011   114.237656
	   59 B(16,15,17)     =    106.446786     0.000000     0.000016   106.446802
	   60 B(16,15,18)     =    110.281508     0.000000    -0.000011   110.281497
	   61 B(17,15,18)     =    109.651942    -0.000000     0.000000   109.651942
	   62 B(18,21,22)     =    109.449772    -0.000000     0.000004   109.449776
	   63 B(18,21,23)     =    109.043396    -0.000000     0.000003   109.043399
	   64 B(18,21,24)     =    115.957244     0.000000     0.000019   115.957263
	   65 B(19,18,20)     =    105.948632    -0.000000     0.000001   105.948633
	   66 B(19,18,21)     =    109.000164     0.000000     0.000019   109.000183
	   67 B(20,18,21)     =    109.353778    -0.000000    -0.000003   109.353775
	   68 B(21,24,25)     =    107.184131    -0.000000    -0.000010   107.184122
	   69 B(21,24,26)     =    109.024863     0.000000     0.000007   109.024870
	   70 B(22,21,23)     =    105.865540     0.000000    -0.000010   105.865530
	   71 B(22,21,24)     =    108.734639    -0.000000    -0.000009   108.734630
	   72 B(23,21,24)     =    107.307299    -0.000000    -0.000010   107.307289
	   73 B(25,24,26)     =    106.107133    -0.000000    -0.000001   106.107132
	   74 D(1,9,15,16)    =     54.906705    -0.000000     0.000076    54.906781
	   75 D(1,9,15,17)    =    -60.549457    -0.000000     0.000059   -60.549398
	   76 D(1,9,15,18)    =    177.728158    -0.000000     0.000063   177.728221
	   77 D(2,1,9,10)     =     57.926112     0.000000     0.000122    57.926234
	   78 D(2,1,9,11)     =    -58.610825    -0.000000     0.000105   -58.610720
	   79 D(2,1,9,15)     =    179.177384    -0.000000     0.000097   179.177481
	   80 D(3,1,9,10)     =    -62.422453     0.000000     0.000131   -62.422321
	   81 D(3,1,9,11)     =   -178.959390     0.000000     0.000114  -178.959276
	   82 D(3,1,9,15)     =     58.828819     0.000000     0.000106    58.828925
	   83 D(4,1,9,10)     =    178.220691     0.000000     0.000130   178.220822
	   84 D(4,1,9,11)     =     61.683754     0.000000     0.000113    61.683867
	   85 D(4,1,9,15)     =    -60.528037     0.000000     0.000105   -60.527932
	   86 D(5,12,24,21)   =    -88.069445    -0.000000    -0.000091   -88.069536
	   87 D(5,12,24,25)   =    150.805115     0.000000    -0.000075   150.805040
	   88 D(5,12,24,26)   =     35.713461     0.000000    -0.000086    35.713375
	   89 D(6,5,12,13)    =   -178.404077    -0.000000    -0.000139  -178.404216
	   90 D(6,5,12,14)    =    -63.139332    -0.000000    -0.000139   -63.139471
	   91 D(6,5,12,24)    =     60.711559     0.000000    -0.000147    60.711412
	   92 D(7,5,12,13)    =     61.633761     0.000000    -0.000114    61.633647
	   93 D(7,5,12,14)    =    176.898506     0.000000    -0.000114   176.898393
	   94 D(7,5,12,24)    =    -59.250603     0.000000    -0.000122   -59.250724
	   95 D(8,5,12,13)    =    -57.628100    -0.000000    -0.000129   -57.628229
	   96 D(8,5,12,14)    =     57.636645    -0.000000    -0.000128    57.636517
	   97 D(8,5,12,24)    =   -178.512464     0.000000    -0.000137  -178.512600
	   98 D(9,15,18,19)   =    161.981920     0.000000     0.000134   161.982054
	   99 D(9,15,18,20)   =     46.818228     0.000000     0.000136    46.818364
	  100 D(9,15,18,21)   =    -74.760926     0.000000     0.000138   -74.760788
	  101 D(10,9,15,16)   =    176.705542    -0.000000     0.000068   176.705610
	  102 D(10,9,15,17)   =     61.249380    -0.000000     0.000051    61.249430
	  103 D(10,9,15,18)   =    -60.473005    -0.000000     0.000055   -60.472950
	  104 D(11,9,15,16)   =    -67.122397    -0.000000     0.000072   -67.122326
	  105 D(11,9,15,17)   =    177.421440    -0.000000     0.000055   177.421495
	  106 D(11,9,15,18)   =     55.699055    -0.000000     0.000059    55.699114
	  107 D(12,24,21,18)  =     62.815004    -0.000000     0.000119    62.815123
	  108 D(12,24,21,22)  =    -60.975896    -0.000000     0.000108   -60.975789
	  109 D(12,24,21,23)  =   -175.058208     0.000000     0.000129  -175.058079
	  110 D(13,12,24,21)  =    151.460741    -0.000000    -0.000095   151.460645
	  111 D(13,12,24,25)  =     30.335301     0.000000    -0.000079    30.335222
	  112 D(13,12,24,26)  =    -84.756354     0.000000    -0.000090   -84.756443
	  113 D(14,12,24,21)  =     36.266583    -0.000000    -0.000106    36.266477
	  114 D(14,12,24,25)  =    -84.858857     0.000000    -0.000090   -84.858947
	  115 D(14,12,24,26)  =    160.049489    -0.000000    -0.000100   160.049388
	  116 D(15,18,21,22)  =     30.678650     0.000000    -0.000032    30.678618
	  117 D(15,18,21,23)  =    146.057646     0.000000    -0.000040   146.057606
	  118 D(15,18,21,24)  =    -92.739753     0.000000    -0.000037   -92.739790
	  119 D(16,15,18,19)  =    -75.975511     0.000000     0.000128   -75.975383
	  120 D(16,15,18,20)  =    168.860797     0.000000     0.000130   168.860927
	  121 D(16,15,18,21)  =     47.281643     0.000000     0.000133    47.281775
	  122 D(17,15,18,19)  =     40.926979    -0.000000     0.000142    40.927121
	  123 D(17,15,18,20)  =    -74.236713     0.000000     0.000143   -74.236569
	  124 D(17,15,18,21)  =    164.184133     0.000000     0.000146   164.184279
	  125 D(18,21,24,25)  =   -175.320396    -0.000000     0.000115  -175.320282
	  126 D(18,21,24,26)  =    -60.876048    -0.000000     0.000112   -60.875936
	  127 D(19,18,21,22)  =    154.690753     0.000000    -0.000048   154.690705
	  128 D(19,18,21,23)  =    -89.930251     0.000000    -0.000056   -89.930306
	  129 D(19,18,21,24)  =     31.272350     0.000000    -0.000053    31.272297
	  130 D(20,18,21,22)  =    -89.907662     0.000000    -0.000037   -89.907699
	  131 D(20,18,21,23)  =     25.471335    -0.000000    -0.000045    25.471290
	  132 D(20,18,21,24)  =    146.673935     0.000000    -0.000042   146.673893
	  133 D(22,21,24,25)  =     60.888703    -0.000000     0.000103    60.888806
	  134 D(22,21,24,26)  =    175.333052    -0.000000     0.000100   175.333152
	  135 D(23,21,24,25)  =    -53.193609     0.000000     0.000124   -53.193484
	  136 D(23,21,24,26)  =     61.250740     0.000000     0.000121    61.250861
	  137 R(5,15)         =      3.482576    -0.000001     0.000002     3.482578
	  138 R(5,18)         =      3.401542    -0.000001     0.000002     3.401544
	  139 R(12,15)        =      3.476757     0.000000     0.000001     3.476758
	 ---------------------------------------------------------------------------

  ==> Convergence Check <==

  Measures of convergence in internal coordinates in au.
  Criteria marked as inactive (o), active & met (*), and active & unmet ( ).
  ---------------------------------------------------------------------------------------------
   Step     Total Energy     Delta E     MAX Force     RMS Force      MAX Disp      RMS Disp   
  ---------------------------------------------------------------------------------------------
    Convergence Criteria             o    2.00e-06 *    1.00e-06 *    6.00e-06 *    4.00e-06 *
  ---------------------------------------------------------------------------------------------
     19    -314.97745733   -3.61e-09 o    7.02e-07 *    1.18e-07 *    3.96e-06 *    1.34e-06 *  ~
  ---------------------------------------------------------------------------------------------


  **** Optimization is complete! (in 19 steps) ****

  ==> Optimization Summary <==

  Measures of convergence in internal coordinates in au.
  --------------------------------------------------------------------------------------------------------------- ~
   Step         Total Energy             Delta E       MAX Force       RMS Force        MAX Disp        RMS Disp  ~
  --------------------------------------------------------------------------------------------------------------- ~
      1    -314.977457321508   -314.977457321508      0.00000062      0.00000016      0.00007496      0.00002141  ~
      2    -314.977457324828     -0.000000003320      0.00000121      0.00000034      0.00006647      0.00001773  ~
      3    -314.977457325017     -0.000000000188      0.00000195      0.00000047      0.00002131      0.00000683  ~
      4    -314.977457325984     -0.000000000968      0.00000060      0.00000012      0.00001033      0.00000399  ~
      5    -314.977457323810      0.000000002174      0.00000199      0.00000046      0.00000835      0.00000246  ~
      6    -314.977457325308     -0.000000001497      0.00000052      0.00000012      0.00001249      0.00000455  ~
      7    -314.977457323183      0.000000002124      0.00000103      0.00000026      0.00001576      0.00000498  ~
      8    -314.977457328402     -0.000000005219      0.00000157      0.00000037      0.00001668      0.00000485  ~
      9    -314.977457322064      0.000000006338      0.00000181      0.00000042      0.00001583      0.00000520  ~
     10    -314.977457325568     -0.000000003503      0.00000168      0.00000049      0.00001278      0.00000477  ~
     11    -314.977457325303      0.000000000264      0.00000090      0.00000020      0.00000943      0.00000271  ~
     12    -314.977457327306     -0.000000002002      0.00000136      0.00000036      0.00003285      0.00001020  ~
     13    -314.977457323992      0.000000003313      0.00000170      0.00000033      0.00003374      0.00000970  ~
     14    -314.977457325355     -0.000000001363      0.00000081      0.00000019      0.00039816      0.00012165  ~
     15    -314.977457316562      0.000000008793      0.00001581      0.00000341      0.00039853      0.00012154  ~
     16    -314.977457324755     -0.000000008193      0.00000198      0.00000048      0.00006615      0.00002208  ~
     17    -314.977457327025     -0.000000002270      0.00000464      0.00000084      0.00015037      0.00004692  ~
     18    -314.977457324178      0.000000002847      0.00001177      0.00000207      0.00010235      0.00004340  ~
     19    -314.977457327790     -0.000000003612      0.00000070      0.00000012      0.00000396      0.00000134  ~
  --------------------------------------------------------------------------------------------------------------- ~

	Writing optimization data to binary file.
	Final energy is   -314.9774573277901
	Final (previous) structure:
	Cartesian Geometry (in Angstrom)
	    C     3.2647162049   0.8230382851  -0.5207895175
	    H     4.1407429892   0.4710739356  -1.0650539563
	    H     3.6109308502   1.3334929078   0.3788900112
	    H     2.7558014273   1.5594582945  -1.1441295195
	    C    -2.0600279668   1.6072469050   0.5544017088
	    H    -1.1901341498   1.4250197841   1.1818465469
	    H    -2.9486212669   1.3927880579   1.1499673104
	    H    -2.0744912971   2.6688536107   0.3059733182
	    C     2.3252803612  -0.3223807835  -0.1642067578
	    H     2.8579659594  -1.0670143138   0.4335461765
	    H     2.0060384046  -0.8302318954  -1.0773470820
	    C    -2.0550299897   0.7481925894  -0.7076406844
	    H    -2.9391901851   1.0089036128  -1.2936189914
	    H    -1.1948448772   0.9988608675  -1.3346918413
	    C     1.1050217519   0.1556770489   0.6155515369
	    H     0.6057366331   0.9418935735   0.0440815372
	    H     1.4476294010   0.6188596088   1.5458283663
	    C     0.1225690749  -0.9739195417   0.9343203840
	    H    -0.5519578982  -0.6759014054   1.7409565622
	    H     0.7025452222  -1.8157787559   1.3231446341
	    C    -0.7107843479  -1.4418867710  -0.2667390479
	    H    -0.1308350926  -1.3118269764  -1.1854381871
	    H    -0.8926646333  -2.5155468730  -0.1778034248
	    C    -2.0711407456  -0.7626813595  -0.4437611880
	    H    -2.5724872870  -1.2569717011  -1.2796435480
	    H    -2.6868137116  -0.9609017334   0.4399607613
	Saving final (previous) structure.
			--------------------------
			 OPTKING Finished Execution 
			--------------------------

    Final optimized geometry and variables:
    Molecular point group: c1
    Full point group: C1

    Geometry (in Angstrom), charge = 0, multiplicity = 1:

    C            3.264716204948     0.823038285097    -0.520789517536
    H            4.140742989221     0.471073935571    -1.065053956279
    H            3.610930850208     1.333492907802     0.378890011231
    H            2.755801427268     1.559458294472    -1.144129519510
    C           -2.060027966819     1.607246905019     0.554401708850
    H           -1.190134149799     1.425019784148     1.181846546925
    H           -2.948621266885     1.392788057906     1.149967310439
    H           -2.074491297109     2.668853610736     0.305973318220
    C            2.325280361160    -0.322380783454    -0.164206757770
    H            2.857965959403    -1.067014313764     0.433546176485
    H            2.006038404620    -0.830231895390    -1.077347082011
    C           -2.055029989729     0.748192589386    -0.707640684422
    H           -2.939190185114     1.008903612785    -1.293618991383
    H           -1.194844877174     0.998860867469    -1.334691841345
    C            1.105021751889     0.155677048877     0.615551536867
    H            0.605736633099     0.941893573540     0.044081537197
    H            1.447629401043     0.618859608752     1.545828366340
    C            0.122569074906    -0.973919541671     0.934320383996
    H           -0.551957898200    -0.675901405388     1.740956562203
    H            0.702545222241    -1.815778755896     1.323144634103
    C           -0.710784347938    -1.441886770975    -0.266739047884
    H           -0.130835092554    -1.311826976356    -1.185438187145
    H           -0.892664633277    -2.515546873017    -0.177803424786
    C           -2.071140745605    -0.762681359526    -0.443761188008
    H           -2.572487287045    -1.256971701137    -1.279643548009
    H           -2.686813711584    -0.960901733352     0.439960761281

	Cleaning optimization helper files.

*** Psi4 exiting successfully. Buy a developer a beer!
