    -----------------------------------------------------------------------
          Psi4: An Open-Source Ab Initio Electronic Structure Package
                              Psi4 1.0.0 Driver

                          Git: Rev {master} 6a9a71b dirty

    J. M. Turney, A. C. Simmonett, R. M. Parrish, E. G. Hohenstein,
    F. A. Evangelista, J. T. Fermann, B. J. Mintz, L. A. Burns, J. J. Wilke,
    M. L. Abrams, N. J. Russ, M. L. Leininger, C. L. Janssen, E. T. Seidl,
    W. D. Allen, H. F. Schaefer, R. A. King, E. F. Valeev, C. D. Sherrill,
    and T. D. Crawford, WIREs Comput. Mol. Sci. 2, 556-565 (2012)
    (doi: 10.1002/wcms.93)

                         Additional Contributions by
    A. E. DePrince, U. Bozkaya, A. Yu. Sokolov, D. G. A. Smith, R. Di Remigio,
    R. M. Richard, J. F. Gonthier, H. R. McAlexander, M. Saitow, and
    B. P. Pritchard
    -----------------------------------------------------------------------


    Psi4 started on: Wed Sep 21 07:41:28 2016

    Process ID:  28399
    PSI4DATADIR: /usr/local/hpc5/psi4conda/share/psi4
    Memory level set to 256.000 MB

  ==> Input File <==

--------------------------------------------------------------------------
memory 60 Gb

molecule molecule_53_psi {
0 1
C            3.393734654165    -0.183054533411     0.729314727226
H            4.454771885679    -0.422550643266     0.663298951584
H            3.002851320489    -0.641980993587     1.639206251222
H            3.305895635375     0.897301172169     0.836492226308
C           -3.383478715505    -0.656085238071    -0.413778136996
H           -3.126903410321    -0.202222500802    -1.371084064355
H           -4.159200463285    -0.042258444932     0.046409859927
H           -3.809344581157    -1.638294206494    -0.617687580299
C            2.637555759936    -0.689763387129    -0.494390814246
H            2.841375613364    -1.754800120068    -0.625568172836
H            3.012204283595    -0.188877615385    -1.391391127681
C           -2.168192615174    -0.756795925442     0.502007093120
H           -2.470346309072    -1.221714070430     1.443341991844
H           -1.424240028017    -1.417031179665     0.052879527935
C            1.127435775340    -0.480872595402    -0.398783824419
H            0.755247285631    -0.998692721545     0.490188464630
H            0.643250427069    -0.950587234037    -1.260484456739
C            0.722665425425     0.988673652655    -0.348872274277
H            1.192613620832     1.508348945569    -1.190202666242
H            1.117657844670     1.448877714478     0.560830086751
C           -0.786719932969     1.226321327663    -0.393054841281
H           -0.961751174570     2.303828675569    -0.419641634876
H           -1.184883505827     0.830666596410    -1.331980467343
C           -1.542231673383     0.608763563983     0.793951695381
H           -0.856079938777     0.527272406406     1.642293656092
H           -2.342271020984     1.281800016931     1.114176222891
}

set globals {
  reference rhf
  g_convergence gau_verytight
  basis aug-cc-pvtz
  freeze_core true
  scf_type df
  mp_type df
}
optimize('mp2')
--------------------------------------------------------------------------
/usr/local/hpc5/psi4conda/lib/python2.7/site-packages/v2rdm_casscf/v2rdm_casscf.so loaded.

  Memory set to  60.000 GiB by Python script.
gradient() will perform analytic gradient computation.

*** tstart() called on wr42
*** at Wed Sep 21 07:41:29 2016


         ---------------------------------------------------------
                                   SCF
            by Justin Turney, Rob Parrish, and Andy Simmonett
                              RHF Reference
                       12 Threads,  60000 MiB Core
         ---------------------------------------------------------

  ==> Geometry <==

    Molecular point group: c1
    Full point group: C1

    Geometry (in Angstrom), charge = 0, multiplicity = 1:

       Center              X                  Y                   Z               Mass       
    ------------   -----------------  -----------------  -----------------  -----------------
           C          3.393734654165    -0.183054533411     0.729314727226    12.000000000000
           H          4.454771885679    -0.422550643266     0.663298951584     1.007825032070
           H          3.002851320489    -0.641980993587     1.639206251222     1.007825032070
           H          3.305895635375     0.897301172169     0.836492226308     1.007825032070
           C         -3.383478715505    -0.656085238071    -0.413778136996    12.000000000000
           H         -3.126903410321    -0.202222500802    -1.371084064355     1.007825032070
           H         -4.159200463285    -0.042258444932     0.046409859927     1.007825032070
           H         -3.809344581157    -1.638294206494    -0.617687580299     1.007825032070
           C          2.637555759936    -0.689763387129    -0.494390814246    12.000000000000
           H          2.841375613364    -1.754800120068    -0.625568172836     1.007825032070
           H          3.012204283595    -0.188877615385    -1.391391127681     1.007825032070
           C         -2.168192615174    -0.756795925442     0.502007093120    12.000000000000
           H         -2.470346309072    -1.221714070430     1.443341991844     1.007825032070
           H         -1.424240028017    -1.417031179665     0.052879527935     1.007825032070
           C          1.127435775340    -0.480872595402    -0.398783824419    12.000000000000
           H          0.755247285631    -0.998692721545     0.490188464630     1.007825032070
           H          0.643250427069    -0.950587234037    -1.260484456739     1.007825032070
           C          0.722665425425     0.988673652655    -0.348872274277    12.000000000000
           H          1.192613620832     1.508348945569    -1.190202666242     1.007825032070
           H          1.117657844670     1.448877714478     0.560830086751     1.007825032070
           C         -0.786719932969     1.226321327663    -0.393054841281    12.000000000000
           H         -0.961751174570     2.303828675569    -0.419641634876     1.007825032070
           H         -1.184883505827     0.830666596410    -1.331980467343     1.007825032070
           C         -1.542231673383     0.608763563983     0.793951695381    12.000000000000
           H         -0.856079938777     0.527272406406     1.642293656092     1.007825032070
           H         -2.342271020984     1.281800016931     1.114176222891     1.007825032070

  Running in c1 symmetry.

  Rotational constants: A =      0.13218  B =      0.02634  C =      0.02505 [cm^-1]
  Rotational constants: A =   3962.54689  B =    789.58699  C =    750.87826 [MHz]
  Nuclear repulsion =  397.068318413454961

  Charge       = 0
  Multiplicity = 1
  Electrons    = 66
  Nalpha       = 33
  Nbeta        = 33

  ==> Algorithm <==

  SCF Algorithm Type is DF.
  DIIS enabled.
  MOM disabled.
  Fractional occupation disabled.
  Guess Type is SAD.
  Energy threshold   = 1.00e-10
  Density threshold  = 1.00e-10
  Integral threshold = 0.00e+00

  ==> Primary Basis <==

  Basis Set: AUG-CC-PVTZ
    Number of shells: 274
    Number of basis function: 782
    Number of Cartesian functions: 890
    Spherical Harmonics?: true
    Max angular momentum: 3

  ==> Pre-Iterations <==

   -------------------------------------------------------
    Irrep   Nso     Nmo     Nalpha   Nbeta   Ndocc  Nsocc
   -------------------------------------------------------
     A        782     782       0       0       0       0
   -------------------------------------------------------
    Total     782     782      33      33      33       0
   -------------------------------------------------------

  ==> Integral Setup <==

  ==> DFJK: Density-Fitted J/K Matrices <==

    J tasked:                  Yes
    K tasked:                  Yes
    wK tasked:                  No
    OpenMP threads:             12
    Integrals threads:          12
    Memory (MB):             42915
    Algorithm:                Core
    Integral Cache:           NONE
    Schwarz Cutoff:          1E-12
    Fitting Condition:       1E-12

   => Auxiliary Basis Set <=

  Basis Set: 
    Number of shells: 492
    Number of basis function: 1660
    Number of Cartesian functions: 2038
    Spherical Harmonics?: true
    Max angular momentum: 4

  Minimum eigenvalue in the overlap matrix is 1.9544982902E-06.
  Using Symmetric Orthogonalization.
  SCF Guess: Superposition of Atomic Densities via on-the-fly atomic UHF.

  ==> Iterations <==

                           Total Energy        Delta E     RMS |[F,P]|

   @DF-RHF iter   0:  -316.77360429626646   -3.16774e+02   6.90761e-03 
   @DF-RHF iter   1:  -313.27579644620681    3.49781e+00   7.54772e-04 
   @DF-RHF iter   2:  -313.50063875128245   -2.24842e-01   2.84683e-04 DIIS
   @DF-RHF iter   3:  -313.53145500278089   -3.08163e-02   1.01650e-04 DIIS
   @DF-RHF iter   4:  -313.53687063372462   -5.41563e-03   1.56292e-05 DIIS
   @DF-RHF iter   5:  -313.53703965774679   -1.69024e-04   4.74073e-06 DIIS
   @DF-RHF iter   6:  -313.53705258957217   -1.29318e-05   1.41873e-06 DIIS
   @DF-RHF iter   7:  -313.53705374721102   -1.15764e-06   2.63316e-07 DIIS
   @DF-RHF iter   8:  -313.53705380293201   -5.57210e-08   6.13122e-08 DIIS
   @DF-RHF iter   9:  -313.53705380574758   -2.81557e-09   1.74167e-08 DIIS
   @DF-RHF iter  10:  -313.53705380596904   -2.21462e-10   4.88496e-09 DIIS
   @DF-RHF iter  11:  -313.53705380598223   -1.31877e-11   1.29542e-09 DIIS
   @DF-RHF iter  12:  -313.53705380598348   -1.25056e-12   3.21952e-10 DIIS
   @DF-RHF iter  13:  -313.53705380598382   -3.41061e-13   8.91715e-11 DIIS

  ==> Post-Iterations <==

    Orbital Energies (a.u.)
    -----------------------

    Doubly Occupied:                                                      

       1A    -11.212952     2A    -11.211616     3A    -11.210586  
       4A    -11.210400     5A    -11.209994     6A    -11.209574  
       7A    -11.206761     8A    -11.206155     9A     -1.094209  
      10A     -1.059020    11A     -1.007737    12A     -0.942620  
      13A     -0.891483    14A     -0.831670    15A     -0.780229  
      16A     -0.760409    17A     -0.642098    18A     -0.626575  
      19A     -0.612965    20A     -0.600825    21A     -0.576332  
      22A     -0.564031    23A     -0.541441    24A     -0.531493  
      25A     -0.505687    26A     -0.500845    27A     -0.496002  
      28A     -0.476059    29A     -0.467389    30A     -0.458845  
      31A     -0.446563    32A     -0.435734    33A     -0.432868  

    Virtual:                                                              

      34A      0.029546    35A      0.033017    36A      0.033867  
      37A      0.035215    38A      0.045808    39A      0.047596  
      40A      0.050347    41A      0.054112    42A      0.055230  
      43A      0.064156    44A      0.068491    45A      0.071644  
      46A      0.073684    47A      0.079347    48A      0.088182  
      49A      0.089179    50A      0.092385    51A      0.102236  
      52A      0.115422    53A      0.118354    54A      0.120325  
      55A      0.123143    56A      0.128519    57A      0.131224  
      58A      0.133198    59A      0.136201    60A      0.139543  
      61A      0.142804    62A      0.148722    63A      0.149831  
      64A      0.152369    65A      0.158010    66A      0.160896  
      67A      0.164011    68A      0.165624    69A      0.172637  
      70A      0.176105    71A      0.180057    72A      0.180721  
      73A      0.190019    74A      0.191773    75A      0.196603  
      76A      0.209855    77A      0.212577    78A      0.216530  
      79A      0.225749    80A      0.236439    81A      0.242869  
      82A      0.245646    83A      0.252273    84A      0.257060  
      85A      0.263700    86A      0.272365    87A      0.280070  
      88A      0.287011    89A      0.290673    90A      0.295350  
      91A      0.300192    92A      0.306150    93A      0.308961  
      94A      0.313986    95A      0.315133    96A      0.319323  
      97A      0.326227    98A      0.329709    99A      0.334405  
     100A      0.338130   101A      0.340532   102A      0.343780  
     103A      0.346020   104A      0.347829   105A      0.354126  
     106A      0.355055   107A      0.363263   108A      0.364051  
     109A      0.367204   110A      0.371962   111A      0.373465  
     112A      0.377598   113A      0.380486   114A      0.386996  
     115A      0.393247   116A      0.394186   117A      0.401410  
     118A      0.406702   119A      0.410413   120A      0.413980  
     121A      0.419803   122A      0.420944   123A      0.427100  
     124A      0.428958   125A      0.431091   126A      0.434631  
     127A      0.441240   128A      0.447682   129A      0.451612  
     130A      0.454029   131A      0.456494   132A      0.458542  
     133A      0.463156   134A      0.469011   135A      0.472763  
     136A      0.475048   137A      0.478148   138A      0.479454  
     139A      0.484762   140A      0.489090   141A      0.490590  
     142A      0.495432   143A      0.499851   144A      0.501678  
     145A      0.511713   146A      0.513922   147A      0.517665  
     148A      0.519876   149A      0.524655   150A      0.527070  
     151A      0.534236   152A      0.536921   153A      0.543817  
     154A      0.545715   155A      0.548631   156A      0.555922  
     157A      0.563116   158A      0.565041   159A      0.566762  
     160A      0.574738   161A      0.577376   162A      0.578558  
     163A      0.586358   164A      0.593095   165A      0.597776  
     166A      0.599031   167A      0.601966   168A      0.612576  
     169A      0.612793   170A      0.617323   171A      0.620071  
     172A      0.624113   173A      0.630314   174A      0.636256  
     175A      0.639822   176A      0.650647   177A      0.653905  
     178A      0.657845   179A      0.665640   180A      0.667465  
     181A      0.671952   182A      0.677409   183A      0.679816  
     184A      0.682766   185A      0.690873   186A      0.698749  
     187A      0.706197   188A      0.711108   189A      0.717982  
     190A      0.722331   191A      0.725771   192A      0.728582  
     193A      0.734436   194A      0.737856   195A      0.752184  
     196A      0.760666   197A      0.770005   198A      0.777322  
     199A      0.785332   200A      0.792511   201A      0.800665  
     202A      0.803590   203A      0.809877   204A      0.823926  
     205A      0.827025   206A      0.836093   207A      0.838744  
     208A      0.847465   209A      0.854065   210A      0.859413  
     211A      0.864092   212A      0.872847   213A      0.876126  
     214A      0.880118   215A      0.889039   216A      0.892447  
     217A      0.895876   218A      0.901689   219A      0.907814  
     220A      0.913268   221A      0.920147   222A      0.924742  
     223A      0.930763   224A      0.933173   225A      0.936220  
     226A      0.941466   227A      0.947172   228A      0.951727  
     229A      0.960856   230A      0.963468   231A      0.974711  
     232A      0.975619   233A      0.980730   234A      0.984921  
     235A      0.989608   236A      0.990760   237A      0.999089  
     238A      1.004238   239A      1.009248   240A      1.013341  
     241A      1.015589   242A      1.019537   243A      1.026723  
     244A      1.032756   245A      1.036849   246A      1.042122  
     247A      1.053140   248A      1.061936   249A      1.064577  
     250A      1.066890   251A      1.071435   252A      1.074499  
     253A      1.077116   254A      1.082390   255A      1.089896  
     256A      1.099667   257A      1.103278   258A      1.109528  
     259A      1.112924   260A      1.117898   261A      1.119660  
     262A      1.126460   263A      1.130235   264A      1.138339  
     265A      1.139072   266A      1.144825   267A      1.151785  
     268A      1.155605   269A      1.161658   270A      1.165220  
     271A      1.172060   272A      1.179567   273A      1.182608  
     274A      1.188000   275A      1.191932   276A      1.203283  
     277A      1.213271   278A      1.215488   279A      1.216287  
     280A      1.220925   281A      1.223881   282A      1.230671  
     283A      1.235687   284A      1.245411   285A      1.251911  
     286A      1.258738   287A      1.259580   288A      1.269197  
     289A      1.272807   290A      1.276164   291A      1.281549  
     292A      1.291092   293A      1.292974   294A      1.297982  
     295A      1.304362   296A      1.312248   297A      1.315571  
     298A      1.321004   299A      1.322669   300A      1.331566  
     301A      1.338555   302A      1.346366   303A      1.352013  
     304A      1.363998   305A      1.367931   306A      1.381698  
     307A      1.391407   308A      1.396119   309A      1.398888  
     310A      1.409032   311A      1.410879   312A      1.415649  
     313A      1.419667   314A      1.431816   315A      1.441949  
     316A      1.448225   317A      1.453285   318A      1.456133  
     319A      1.466632   320A      1.477299   321A      1.483999  
     322A      1.491497   323A      1.501045   324A      1.511425  
     325A      1.516443   326A      1.524360   327A      1.527244  
     328A      1.536549   329A      1.543981   330A      1.553637  
     331A      1.558416   332A      1.561593   333A      1.570660  
     334A      1.575756   335A      1.586356   336A      1.598932  
     337A      1.602002   338A      1.611838   339A      1.619535  
     340A      1.621678   341A      1.626066   342A      1.638717  
     343A      1.641479   344A      1.649062   345A      1.650914  
     346A      1.667242   347A      1.674511   348A      1.679375  
     349A      1.686871   350A      1.695032   351A      1.700285  
     352A      1.708734   353A      1.711491   354A      1.712471  
     355A      1.717511   356A      1.723594   357A      1.732619  
     358A      1.735211   359A      1.742422   360A      1.750286  
     361A      1.752831   362A      1.760310   363A      1.762771  
     364A      1.767130   365A      1.775596   366A      1.778940  
     367A      1.791953   368A      1.793354   369A      1.806979  
     370A      1.809951   371A      1.812506   372A      1.822900  
     373A      1.830787   374A      1.833447   375A      1.844115  
     376A      1.848757   377A      1.850552   378A      1.855481  
     379A      1.861097   380A      1.867443   381A      1.870823  
     382A      1.875933   383A      1.883345   384A      1.890065  
     385A      1.899833   386A      1.909222   387A      1.919101  
     388A      1.922987   389A      1.929523   390A      1.934391  
     391A      1.939855   392A      1.944208   393A      1.954723  
     394A      1.957381   395A      1.973568   396A      1.980409  
     397A      1.989036   398A      1.990114   399A      1.998351  
     400A      2.002560   401A      2.013087   402A      2.020293  
     403A      2.025127   404A      2.027581   405A      2.032899  
     406A      2.045594   407A      2.047198   408A      2.056532  
     409A      2.063528   410A      2.071608   411A      2.074496  
     412A      2.075856   413A      2.087120   414A      2.099014  
     415A      2.104130   416A      2.112434   417A      2.114497  
     418A      2.125021   419A      2.130422   420A      2.141562  
     421A      2.157195   422A      2.163234   423A      2.165619  
     424A      2.179455   425A      2.187441   426A      2.188955  
     427A      2.194505   428A      2.208178   429A      2.220029  
     430A      2.233834   431A      2.240841   432A      2.248424  
     433A      2.254119   434A      2.269986   435A      2.274419  
     436A      2.278520   437A      2.284833   438A      2.301118  
     439A      2.310639   440A      2.320067   441A      2.324011  
     442A      2.331617   443A      2.338453   444A      2.342308  
     445A      2.343476   446A      2.357193   447A      2.376080  
     448A      2.380195   449A      2.381817   450A      2.396209  
     451A      2.397931   452A      2.414929   453A      2.428126  
     454A      2.437556   455A      2.445645   456A      2.461208  
     457A      2.468038   458A      2.479001   459A      2.488217  
     460A      2.492247   461A      2.502094   462A      2.522758  
     463A      2.531138   464A      2.535128   465A      2.558883  
     466A      2.560874   467A      2.570475   468A      2.588171  
     469A      2.593003   470A      2.595900   471A      2.609773  
     472A      2.633310   473A      2.653473   474A      2.664782  
     475A      2.685678   476A      2.688187   477A      2.704966  
     478A      2.716271   479A      2.730932   480A      2.769680  
     481A      2.784345   482A      2.801599   483A      2.835134  
     484A      2.869671   485A      2.899962   486A      2.959555  
     487A      3.012136   488A      3.022144   489A      3.070588  
     490A      3.147330   491A      3.178517   492A      3.205735  
     493A      3.278375   494A      3.312674   495A      3.332036  
     496A      3.421323   497A      3.432903   498A      3.438001  
     499A      3.453313   500A      3.468254   501A      3.484906  
     502A      3.494100   503A      3.515036   504A      3.526300  
     505A      3.542274   506A      3.553904   507A      3.569096  
     508A      3.577926   509A      3.587206   510A      3.596513  
     511A      3.611581   512A      3.629196   513A      3.644470  
     514A      3.647536   515A      3.654447   516A      3.659181  
     517A      3.671277   518A      3.672331   519A      3.681830  
     520A      3.689949   521A      3.705855   522A      3.713027  
     523A      3.718510   524A      3.736515   525A      3.742857  
     526A      3.745901   527A      3.751685   528A      3.756385  
     529A      3.774488   530A      3.777382   531A      3.790736  
     532A      3.808113   533A      3.809498   534A      3.820117  
     535A      3.828510   536A      3.837936   537A      3.843865  
     538A      3.850666   539A      3.854995   540A      3.868203  
     541A      3.873337   542A      3.903686   543A      3.910259  
     544A      3.911031   545A      3.920468   546A      3.927063  
     547A      3.933025   548A      3.939968   549A      3.947296  
     550A      3.956404   551A      3.958489   552A      3.965542  
     553A      3.970664   554A      3.986730   555A      3.993429  
     556A      3.997132   557A      3.998833   558A      4.004776  
     559A      4.015360   560A      4.021860   561A      4.028254  
     562A      4.028849   563A      4.039313   564A      4.052535  
     565A      4.057671   566A      4.061078   567A      4.069156  
     568A      4.083201   569A      4.090751   570A      4.092563  
     571A      4.100255   572A      4.112138   573A      4.122628  
     574A      4.124699   575A      4.131512   576A      4.149403  
     577A      4.153187   578A      4.166796   579A      4.172345  
     580A      4.177209   581A      4.186701   582A      4.199868  
     583A      4.210690   584A      4.216699   585A      4.227303  
     586A      4.231560   587A      4.244018   588A      4.261127  
     589A      4.264796   590A      4.275047   591A      4.288539  
     592A      4.300911   593A      4.303370   594A      4.313342  
     595A      4.316723   596A      4.340099   597A      4.346018  
     598A      4.362422   599A      4.367291   600A      4.382398  
     601A      4.387647   602A      4.400898   603A      4.406165  
     604A      4.413467   605A      4.429560   606A      4.435717  
     607A      4.438187   608A      4.449113   609A      4.454569  
     610A      4.469377   611A      4.499698   612A      4.521809  
     613A      4.531703   614A      4.536567   615A      4.560771  
     616A      4.568419   617A      4.580865   618A      4.598492  
     619A      4.609320   620A      4.634783   621A      4.637951  
     622A      4.644680   623A      4.663997   624A      4.689558  
     625A      4.697585   626A      4.700212   627A      4.709775  
     628A      4.725448   629A      4.739563   630A      4.744910  
     631A      4.748565   632A      4.768281   633A      4.770622  
     634A      4.781471   635A      4.795882   636A      4.809054  
     637A      4.818165   638A      4.828601   639A      4.835254  
     640A      4.842326   641A      4.846575   642A      4.859724  
     643A      4.878595   644A      4.884291   645A      4.896799  
     646A      4.899855   647A      4.908721   648A      4.918384  
     649A      4.931990   650A      4.944006   651A      4.948945  
     652A      4.960581   653A      4.966532   654A      4.976211  
     655A      4.996358   656A      4.996698   657A      5.010757  
     658A      5.026820   659A      5.046468   660A      5.066067  
     661A      5.067456   662A      5.097074   663A      5.107386  
     664A      5.113989   665A      5.130429   666A      5.137551  
     667A      5.141666   668A      5.153524   669A      5.172868  
     670A      5.180240   671A      5.187471   672A      5.192023  
     673A      5.222975   674A      5.224577   675A      5.236515  
     676A      5.239719   677A      5.253028   678A      5.271440  
     679A      5.275794   680A      5.309794   681A      5.316399  
     682A      5.329179   683A      5.340077   684A      5.344499  
     685A      5.355488   686A      5.362288   687A      5.363983  
     688A      5.375369   689A      5.393161   690A      5.398865  
     691A      5.419077   692A      5.421928   693A      5.429428  
     694A      5.448933   695A      5.456405   696A      5.465402  
     697A      5.478525   698A      5.494619   699A      5.500195  
     700A      5.506436   701A      5.523030   702A      5.532725  
     703A      5.537711   704A      5.563047   705A      5.573359  
     706A      5.597106   707A      5.602404   708A      5.625893  
     709A      5.627184   710A      5.644094   711A      5.658697  
     712A      5.662774   713A      5.666753   714A      5.688286  
     715A      5.700446   716A      5.713386   717A      5.720760  
     718A      5.727677   719A      5.747463   720A      5.749988  
     721A      5.757129   722A      5.780857   723A      5.790828  
     724A      5.799751   725A      5.809544   726A      5.828647  
     727A      5.840009   728A      5.849780   729A      5.865730  
     730A      5.896897   731A      5.903337   732A      5.952921  
     733A      5.974990   734A      6.026128   735A      6.036346  
     736A      6.047992   737A      6.059187   738A      6.062367  
     739A      6.094863   740A      6.125720   741A      6.146292  
     742A      6.163556   743A      6.177345   744A      6.221286  
     745A      6.233995   746A      6.237475   747A      6.267071  
     748A      6.280511   749A      6.295208   750A      6.303444  
     751A      6.309277   752A      6.335955   753A      6.351007  
     754A      6.355634   755A      6.374681   756A      6.399017  
     757A      6.422063   758A      6.468520   759A      6.589962  
     760A      6.661602   761A      6.685841   762A      6.708954  
     763A      6.731985   764A      6.788670   765A      6.805032  
     766A      6.827695   767A      6.891336   768A      6.907310  
     769A      6.932751   770A      7.003355   771A      7.017471  
     772A      7.043267   773A      7.099117   774A      7.124807  
     775A     17.977824   776A     18.169842   777A     18.432007  
     778A     18.604805   779A     18.641814   780A     18.945064  
     781A     19.444287   782A     19.836089  

    Final Occupation by Irrep:
              A 
    DOCC [    33 ]

  Energy converged.

  @DF-RHF Final Energy:  -313.53705380598382

   => Energetics <=

    Nuclear Repulsion Energy =            397.0683184134549606
    One-Electron Energy =               -1209.2884156770558093
    Two-Electron Energy =                 498.6830434576166908
    DFT Exchange-Correlation Energy =       0.0000000000000000
    Empirical Dispersion Energy =           0.0000000000000000
    PCM Polarization Energy =               0.0000000000000000
    EFP Energy =                            0.0000000000000000
    Total Energy =                       -313.5370538059841010


  Saving occupied orbitals to File 180.

*** tstop() called on wr42 at Wed Sep 21 07:42:28 2016
Module time:
	user time   =     634.25 seconds =      10.57 minutes
	system time =       7.46 seconds =       0.12 minutes
	total time  =         59 seconds =       0.98 minutes
Total time:
	user time   =     634.25 seconds =      10.57 minutes
	system time =       7.46 seconds =       0.12 minutes
	total time  =         59 seconds =       0.98 minutes


Properties will be evaluated at   0.000000,   0.000000,   0.000000 Bohr

Properties computed using the SCF density matrix

  Nuclear Dipole Moment: (a.u.)
     X:    -0.0086      Y:    -0.6383      Z:     0.2635

  Electronic Dipole Moment: (a.u.)
     X:     0.0273      Y:     0.6298      Z:    -0.2679

  Dipole Moment: (a.u.)
     X:     0.0188      Y:    -0.0085      Z:    -0.0044     Total:     0.0211

  Dipole Moment: (Debye)
     X:     0.0477      Y:    -0.0217      Z:    -0.0111     Total:     0.0535


  //>>>>>>>>>>>>>>>>>>>>>>>>>>>>>>>>>>>//
  //               DFMP2               //
  //<<<<<<<<<<<<<<<<<<<<<<<<<<<<<<<<<<<//


*** tstart() called on wr42
*** at Wed Sep 21 07:42:29 2016


*** tstop() called on wr42 at Wed Sep 21 07:42:29 2016
Module time:
	user time   =       2.98 seconds =       0.05 minutes
	system time =       0.12 seconds =       0.00 minutes
	total time  =          0 seconds =       0.00 minutes
Total time:
	user time   =     638.74 seconds =      10.65 minutes
	system time =       7.58 seconds =       0.13 minutes
	total time  =         60 seconds =       1.00 minutes
	 --------------------------------------------------------
	                          DF-MP2                         
	      2nd-Order Density-Fitted Moller-Plesset Theory     
	              RMP2 Wavefunction,  12 Threads             
	                                                         
	        Rob Parrish, Justin Turney, Andy Simmonett,      
	           Ed Hohenstein, and C. David Sherrill          
	 --------------------------------------------------------

   => Auxiliary Basis Set <=

  Basis Set: 
    Number of shells: 476
    Number of basis function: 1676
    Number of Cartesian functions: 2078
    Spherical Harmonics?: true
    Max angular momentum: 4

	 --------------------------------------------------------
	                 NBF =   782, NAUX =  1676
	 --------------------------------------------------------
	   CLASS    FOCC     OCC    AOCC    AVIR     VIR    FVIR
	   PAIRS       8      33      25     749     749       0
	 --------------------------------------------------------

DGAS Warning! /src/lib/libfock/apps.cc:80 is not currently checking restricted

         ------------------------------------------------------------
                                     CPHF                           
                                  Rob Parrish                       
         ------------------------------------------------------------

  ==> Geometry <==

    Molecular point group: c1
    Full point group: C1

    Geometry (in Angstrom), charge = 0, multiplicity = 1:

       Center              X                  Y                   Z               Mass       
    ------------   -----------------  -----------------  -----------------  -----------------
           C          3.393734654165    -0.183054533411     0.729314727226    12.000000000000
           H          4.454771885679    -0.422550643266     0.663298951584     1.007825032070
           H          3.002851320489    -0.641980993587     1.639206251222     1.007825032070
           H          3.305895635375     0.897301172169     0.836492226308     1.007825032070
           C         -3.383478715505    -0.656085238071    -0.413778136996    12.000000000000
           H         -3.126903410321    -0.202222500802    -1.371084064355     1.007825032070
           H         -4.159200463285    -0.042258444932     0.046409859927     1.007825032070
           H         -3.809344581157    -1.638294206494    -0.617687580299     1.007825032070
           C          2.637555759936    -0.689763387129    -0.494390814246    12.000000000000
           H          2.841375613364    -1.754800120068    -0.625568172836     1.007825032070
           H          3.012204283595    -0.188877615385    -1.391391127681     1.007825032070
           C         -2.168192615174    -0.756795925442     0.502007093120    12.000000000000
           H         -2.470346309072    -1.221714070430     1.443341991844     1.007825032070
           H         -1.424240028017    -1.417031179665     0.052879527935     1.007825032070
           C          1.127435775340    -0.480872595402    -0.398783824419    12.000000000000
           H          0.755247285631    -0.998692721545     0.490188464630     1.007825032070
           H          0.643250427069    -0.950587234037    -1.260484456739     1.007825032070
           C          0.722665425425     0.988673652655    -0.348872274277    12.000000000000
           H          1.192613620832     1.508348945569    -1.190202666242     1.007825032070
           H          1.117657844670     1.448877714478     0.560830086751     1.007825032070
           C         -0.786719932969     1.226321327663    -0.393054841281    12.000000000000
           H         -0.961751174570     2.303828675569    -0.419641634876     1.007825032070
           H         -1.184883505827     0.830666596410    -1.331980467343     1.007825032070
           C         -1.542231673383     0.608763563983     0.793951695381    12.000000000000
           H         -0.856079938777     0.527272406406     1.642293656092     1.007825032070
           H         -2.342271020984     1.281800016931     1.114176222891     1.007825032070

  Nuclear repulsion =  397.068318413454961
  Reference energy  = -313.537053805983817

  ==> Basis Set <==

  Basis Set: AUG-CC-PVTZ
    Number of shells: 274
    Number of basis function: 782
    Number of Cartesian functions: 890
    Spherical Harmonics?: true
    Max angular momentum: 3

  ==> CGRSolver (by Rob Parrish) <==

   Number of roots    =         1
   Preconditioning    =    JACOBI
   Convergence cutoff =     1E-06
   Maximum iterations =       100

  ==> CPHFRHamiltonian (by Rob Parrish) <== 

  ==> DFJK: Density-Fitted J/K Matrices <==

    J tasked:                  Yes
    K tasked:                  Yes
    wK tasked:                  No
    OpenMP threads:             12
    Integrals threads:          12
    Memory (MB):             42915
    Algorithm:                Core
    Integral Cache:           NONE
    Schwarz Cutoff:          1E-12
    Fitting Condition:       1E-12

   => Auxiliary Basis Set <=

  Basis Set: 
    Number of shells: 492
    Number of basis function: 1660
    Number of Cartesian functions: 2038
    Spherical Harmonics?: true
    Max angular momentum: 4

  ==> CPHF Iterations <==

  => Iterations <=

             Iter  Converged  Remaining    Residual
  CGR           1          0          1   9.194E-02
  CGR           2          0          1   1.301E-02
  CGR           3          0          1   3.594E-03
  CGR           4          0          1   8.739E-04
  CGR           5          0          1   2.051E-04
  CGR           6          0          1   4.214E-05
  CGR           7          0          1   1.245E-05
  CGR           8          0          1   3.277E-06
  CGR           9          1          0   8.038E-07

    CGRSolver converged.

  ==> DFCorrGrad: Density-Fitted Correlated Gradients <==

    OpenMP threads:             12
    Integrals threads:          12
    Memory (MB):             42915
    Schwarz Cutoff:          0E+00
    Fitting Condition:       1E-12

   => Auxiliary Basis Set <=

  Basis Set: 
    Number of shells: 492
    Number of basis function: 1660
    Number of Cartesian functions: 2038
    Spherical Harmonics?: true
    Max angular momentum: 4

	-----------------------------------------------------------
	 ==================> DF-MP2 Energies <==================== 
	-----------------------------------------------------------
	 Reference Energy          =    -313.5370538059838168 [Eh]
	 Singles Energy            =      -0.0000000000000004 [Eh]
	 Same-Spin Energy          =      -0.3166952380407549 [Eh]
	 Opposite-Spin Energy      =      -1.1261670088747369 [Eh]
	 Correlation Energy        =      -1.4428622469154921 [Eh]
	 Total Energy              =    -314.9799160528992843 [Eh]
	-----------------------------------------------------------
	 ================> DF-SCS-MP2 Energies <================== 
	-----------------------------------------------------------
	 SCS Same-Spin Scale       =       0.3333333333333333 [-]
	 SCS Opposite-Spin Scale   =       1.2000000000000000 [-]
	 SCS Same-Spin Energy      =      -0.1055650793469183 [Eh]
	 SCS Opposite-Spin Energy  =      -1.3514004106496842 [Eh]
	 SCS Correlation Energy    =      -1.4569654899966029 [Eh]
	 SCS Total Energy          =    -314.9940192959804222 [Eh]
	-----------------------------------------------------------


  -Total Gradient:
     Atom            X                  Y                   Z
    ------   -----------------  -----------------  -----------------
       1       -0.000000086123    -0.000000184011    -0.000000256072
       2        0.000000152476    -0.000000090075    -0.000000019284
       3       -0.000000062092    -0.000000074200     0.000000199572
       4       -0.000000068246     0.000000291795    -0.000000012741
       5       -0.000000122576     0.000000094167    -0.000000092244
       6       -0.000000135874    -0.000000162011     0.000000362236
       7        0.000000259489    -0.000000183616    -0.000000146900
       8        0.000000138771     0.000000278398     0.000000041602
       9        0.000000119565    -0.000000200699     0.000000252878
      10       -0.000000009354    -0.000000138230     0.000000028741
      11        0.000000118517     0.000000159116    -0.000000243211
      12        0.000000890303    -0.000000469283    -0.000000256873
      13        0.000000208900     0.000000186022    -0.000000362270
      14       -0.000000655156     0.000000398958     0.000000358093
      15        0.000000314973    -0.000000040044    -0.000000002841
      16       -0.000000229642    -0.000000093656     0.000000068830
      17       -0.000000050590    -0.000000092648    -0.000000062384
      18        0.000000084018     0.000000190404     0.000000236274
      19        0.000000145996     0.000000170213    -0.000000191359
      20       -0.000000021115     0.000000028262     0.000000136347
      21       -0.000000937868    -0.000000312138    -0.000000452134
      22       -0.000000183095    -0.000000404211     0.000000099622
      23        0.000000093348     0.000000179531     0.000000544466
      24       -0.000000083139     0.000000531915     0.000000420407
      25       -0.000000539413     0.000000001375    -0.000000489052
      26        0.000000657919    -0.000000065329    -0.000000161704


			-----------------------------------------
			 OPTKING 2.0: for geometry optimizations 
			  - R.A. King,  Bethel University        
			-----------------------------------------

	Previous internal coordinate definitions found.
	---Fragment 1 Geometry and Gradient---
	 C           6.4132290641       -0.3459229355        1.3782050991
	 H           8.4182988484       -0.7985049930        1.2534533627
	 H           5.6745666135       -1.2131682604        3.0976508901
	 H           6.2472373748        1.6956534741        1.5807412200
	 C          -6.3938481488       -1.2398214198       -0.7819273587
	 H          -5.9089910895       -0.3821451444       -2.5909733868
	 H          -7.8597498074       -0.0798568877        0.0877019251
	 H          -7.1986180042       -3.0959273754       -1.1672603624
	 C           4.9842580465       -1.3034638982       -0.9342632415
	 H           5.3694217499       -3.3160916449       -1.1821525241
	 H           5.6922411523       -0.3569269657       -2.6293481750
	 C          -4.0972902460       -1.4301370376        0.9486559228
	 H          -4.6682779775       -2.3087050058        2.7275210807
	 H          -2.6914236004       -2.6778008513        0.0999278258
	 C           2.1305448478       -0.9087175101       -0.7535922144
	 H           1.4272105324       -1.8872557346        0.9263219517
	 H           1.2155671420       -1.7963495377       -2.3819704180
	 C           1.3656397398        1.8683224383       -0.6592730537
	 H           2.2537131257        2.8503664200       -2.2491570818
	 H           2.1120672367        2.7379820804        1.0598152710
	 C          -1.4866852166        2.3174114602       -0.7427660052
	 H          -1.8174463279        4.3536052539       -0.7930077639
	 H          -2.2391053254        1.5697323750       -2.5170782976
	 C          -2.9143954962        1.1503964156        1.5003512670
	 H          -1.6177566321        0.9964004455        3.1034852398
	 H          -4.4262507587        2.4222509891        2.1054879250
	            -0.0000000861       -0.0000001840       -0.0000002561
	             0.0000001525       -0.0000000901       -0.0000000193
	            -0.0000000621       -0.0000000742        0.0000001996
	            -0.0000000682        0.0000002918       -0.0000000127
	            -0.0000001226        0.0000000942       -0.0000000922
	            -0.0000001359       -0.0000001620        0.0000003622
	             0.0000002595       -0.0000001836       -0.0000001469
	             0.0000001388        0.0000002784        0.0000000416
	             0.0000001196       -0.0000002007        0.0000002529
	            -0.0000000094       -0.0000001382        0.0000000287
	             0.0000001185        0.0000001591       -0.0000002432
	             0.0000008903       -0.0000004693       -0.0000002569
	             0.0000002089        0.0000001860       -0.0000003623
	            -0.0000006552        0.0000003990        0.0000003581
	             0.0000003150       -0.0000000400       -0.0000000028
	            -0.0000002296       -0.0000000937        0.0000000688
	            -0.0000000506       -0.0000000926       -0.0000000624
	             0.0000000840        0.0000001904        0.0000002363
	             0.0000001460        0.0000001702       -0.0000001914
	            -0.0000000211        0.0000000283        0.0000001363
	            -0.0000009379       -0.0000003121       -0.0000004521
	            -0.0000001831       -0.0000004042        0.0000000996
	             0.0000000933        0.0000001795        0.0000005445
	            -0.0000000831        0.0000005319        0.0000004204
	            -0.0000005394        0.0000000014       -0.0000004891
	             0.0000006579       -0.0000000653       -0.0000001617

	Previous optimization step data not found.  Starting new optimization.

	---Fragment 1 Intrafragment Coordinates---
	 - Coordinate -           - BOHR/RAD -       - ANG/DEG -
	 R(1,2)           =         2.059296	       1.089732
	 R(1,3)           =         2.062579	       1.091470
	 R(1,4)           =         2.058302	       1.089207
	 R(1,9)           =         2.882074	       1.525128
	 R(5,6)           =         2.059937	       1.090072
	 R(5,7)           =         2.061708	       1.091009
	 R(5,8)           =         2.059433	       1.089805
	 R(5,12)          =         2.881895	       1.525033
	 R(9,10)          =         2.064091	       1.092270
	 R(9,11)          =         2.066515	       1.093553
	 R(9,15)          =         2.886546	       1.527494
	 R(12,13)         =         2.064527	       1.092500
	 R(12,14)         =         2.062393	       1.091371
	 R(12,24)         =         2.891844	       1.530298
	 R(15,16)         =         2.067445	       1.094045
	 R(15,17)         =         2.068016	       1.094347
	 R(15,18)         =         2.882000	       1.525089
	 R(18,19)         =         2.069013	       1.094875
	 R(18,20)         =         2.066090	       1.093328
	 R(18,21)         =         2.888669	       1.528618
	 R(21,22)         =         2.063495	       1.091955
	 R(21,23)         =         2.067207	       1.093919
	 R(21,24)         =         2.903766	       1.536607
	 R(24,25)         =         2.067614	       1.094134
	 R(24,26)         =         2.066279	       1.093428
	 B(1,9,10)        =         1.904768	     109.135141
	 B(1,9,11)        =         1.913575	     109.639786
	 B(1,9,15)        =         1.976340	     113.235931
	 B(2,1,3)         =         1.882614	     107.865830
	 B(2,1,4)         =         1.878081	     107.606119
	 B(2,1,9)         =         1.940278	     111.169757
	 B(3,1,4)         =         1.881931	     107.826705
	 B(3,1,9)         =         1.930099	     110.586505
	 B(4,1,9)         =         1.948200	     111.623612
	 B(5,12,13)       =         1.901933	     108.972754
	 B(5,12,14)       =         1.913510	     109.636019
	 B(5,12,24)       =         1.962320	     112.432639
	 B(6,5,7)         =         1.879189	     107.669595
	 B(6,5,8)         =         1.878545	     107.632681
	 B(6,5,12)        =         1.946891	     111.548646
	 B(7,5,8)         =         1.884047	     107.947931
	 B(7,5,12)        =         1.928862	     110.515653
	 B(8,5,12)        =         1.943616	     111.360981
	 B(9,15,16)       =         1.899121	     108.811593
	 B(9,15,17)       =         1.906494	     109.234048
	 B(9,15,18)       =         1.978182	     113.341503
	 B(10,9,11)       =         1.858943	     106.509574
	 B(10,9,15)       =         1.902168	     108.986226
	 B(11,9,15)       =         1.904351	     109.111253
	 B(12,24,21)      =         1.995859	     114.354298
	 B(12,24,25)      =         1.915563	     109.753668
	 B(12,24,26)      =         1.881625	     107.809164
	 B(13,12,14)      =         1.860503	     106.598952
	 B(13,12,24)      =         1.905504	     109.177361
	 B(14,12,24)      =         1.917194	     109.847098
	 B(15,18,19)      =         1.894721	     108.559506
	 B(15,18,20)      =         1.914457	     109.690314
	 B(15,18,21)      =         1.994266	     114.263034
	 B(16,15,17)      =         1.860998	     106.627345
	 B(16,15,18)      =         1.916850	     109.827387
	 B(17,15,18)      =         1.898563	     108.779637
	 B(18,21,22)      =         1.888502	     108.203171
	 B(18,21,23)      =         1.904959	     109.146112
	 B(18,21,24)      =         1.983056	     113.620726
	 B(19,18,20)      =         1.859294	     106.529711
	 B(19,18,21)      =         1.904796	     109.136760
	 B(20,18,21)      =         1.891612	     108.381372
	 B(21,24,25)      =         1.897101	     108.695882
	 B(21,24,26)      =         1.916227	     109.791735
	 B(22,21,23)      =         1.852153	     106.120558
	 B(22,21,24)      =         1.914075	     109.668442
	 B(23,21,24)      =         1.916347	     109.798610
	 B(25,24,26)      =         1.852114	     106.118333
	 D(1,9,15,16)     =        -1.022658	     -58.594006
	 D(1,9,15,17)     =        -3.047962	    -174.635341
	 D(1,9,15,18)     =         1.115334	      63.903911
	 D(2,1,9,10)      =         0.937130	      53.693601
	 D(2,1,9,11)      =        -1.092827	     -62.614393
	 D(2,1,9,15)      =         3.059155	     175.276665
	 D(3,1,9,10)      =        -1.153681	     -66.101051
	 D(3,1,9,11)      =         3.099547	     177.590956
	 D(3,1,9,15)      =         0.968344	      55.482014
	 D(4,1,9,10)      =         3.034335	     173.854571
	 D(4,1,9,11)      =         1.004377	      57.546577
	 D(4,1,9,15)      =        -1.126826	     -64.562365
	 D(5,12,24,21)    =        -1.261934	     -72.303496
	 D(5,12,24,25)    =         2.884278	     165.256983
	 D(5,12,24,26)    =         0.874313	      50.094435
	 D(6,5,12,13)     =        -3.135250	    -179.636615
	 D(6,5,12,14)     =        -1.105068	     -63.315755
	 D(6,5,12,24)     =         1.032939	      59.183035
	 D(7,5,12,13)     =         1.057920	      60.614323
	 D(7,5,12,14)     =         3.088101	     176.935183
	 D(7,5,12,24)     =        -1.057077	     -60.566027
	 D(8,5,12,13)     =        -1.036062	     -59.361975
	 D(8,5,12,14)     =         0.994120	      56.958885
	 D(8,5,12,24)     =         3.132127	     179.457675
	 D(9,15,18,19)    =         0.910829	      52.186670
	 D(9,15,18,20)    =        -1.114354	     -63.847776
	 D(9,15,18,21)    =         3.040993	     174.236064
	 D(10,9,15,16)    =         1.100825	      63.072611
	 D(10,9,15,17)    =        -0.924479	     -52.968724
	 D(10,9,15,18)    =        -3.044369	    -174.429472
	 D(11,9,15,16)    =         3.124184	     179.002532
	 D(11,9,15,17)    =         1.098880	      62.961196
	 D(11,9,15,18)    =        -1.021010	     -58.499552
	 D(12,24,21,18)   =        -1.697471	     -97.257948
	 D(12,24,21,22)   =         2.469950	     141.517738
	 D(12,24,21,23)   =         0.441260	      25.282308
	 D(13,12,24,21)   =         2.908300	     166.633340
	 D(13,12,24,25)   =         0.771328	      44.193820
	 D(13,12,24,26)   =        -1.238638	     -70.968729
	 D(14,12,24,21)   =         0.873993	      50.076111
	 D(14,12,24,25)   =        -1.262980	     -72.363409
	 D(14,12,24,26)   =         3.010240	     172.474042
	 D(15,18,21,22)   =        -3.076493	    -176.270093
	 D(15,18,21,23)   =        -1.068314	     -61.209877
	 D(15,18,21,24)   =         1.076684	      61.689473
	 D(16,15,18,19)   =         3.038957	     174.119413
	 D(16,15,18,20)   =         1.013774	      58.084967
	 D(16,15,18,21)   =        -1.114064	     -63.831194
	 D(17,15,18,19)   =        -1.213503	     -69.528628
	 D(17,15,18,20)   =         3.044499	     174.436925
	 D(17,15,18,21)   =         0.916660	      52.520765
	 D(18,21,24,25)   =         0.449520	      25.755578
	 D(18,21,24,26)   =         2.468427	     141.430443
	 D(19,18,21,22)   =        -0.951857	     -54.537393
	 D(19,18,21,23)   =         1.056323	      60.522823
	 D(19,18,21,24)   =        -3.081864	    -176.577827
	 D(20,18,21,22)   =         1.066372	      61.098606
	 D(20,18,21,23)   =         3.074551	     176.158822
	 D(20,18,21,24)   =        -1.063636	     -60.941828
	 D(22,21,24,25)   =        -1.666244	     -95.468735
	 D(22,21,24,26)   =         0.352663	      20.206130
	 D(23,21,24,25)   =         2.588251	     148.295835
	 D(23,21,24,26)   =        -1.676027	     -96.029300
	 R(12,15)         =         6.477303	       3.427641

	Current energy   :      -314.9799160529

	Generating empirical Hessian (Schlegel '84) for each fragment.
	Taking RFO optimization step.
	Going to follow RFO solution 1.
	Using RFO vector 1.
	Norm of target step-size    0.00016
	Projected energy change by RFO approximation:        -0.0000000000

	Back-transformation to cartesian coordinates...
	Successfully converged to displaced geometry.

	--- Internal Coordinate Step in ANG or DEG, aJ/ANG or AJ/DEG ---
	 ---------------------------------------------------------------------------
	   Coordinate                Previous        Force       Change         New 
	   ----------                --------       ------       ------       ------
	    1 R(1,2)          =      1.089732    -0.000001    -0.000000     1.089732
	    2 R(1,3)          =      1.091470    -0.000002    -0.000000     1.091469
	    3 R(1,4)          =      1.089207    -0.000002    -0.000000     1.089206
	    4 R(1,9)          =      1.525128     0.000001     0.000000     1.525128
	    5 R(5,6)          =      1.090072     0.000003     0.000001     1.090073
	    6 R(5,7)          =      1.091009     0.000003     0.000001     1.091009
	    7 R(5,8)          =      1.089805     0.000003     0.000000     1.089806
	    8 R(5,12)         =      1.525033     0.000002     0.000000     1.525033
	    9 R(9,10)         =      1.092270    -0.000001    -0.000000     1.092270
	   10 R(9,11)         =      1.093553    -0.000003    -0.000000     1.093552
	   11 R(9,15)         =      1.527494    -0.000002    -0.000000     1.527494
	   12 R(12,13)        =      1.092500     0.000004     0.000001     1.092501
	   13 R(12,14)        =      1.091371     0.000007     0.000001     1.091373
	   14 R(12,24)        =      1.530298     0.000002     0.000001     1.530298
	   15 R(15,16)        =      1.094045    -0.000001    -0.000000     1.094044
	   16 R(15,17)        =      1.094347    -0.000001    -0.000000     1.094347
	   17 R(15,18)        =      1.525089    -0.000004    -0.000001     1.525088
	   18 R(18,19)        =      1.094875    -0.000002    -0.000000     1.094874
	   19 R(18,20)        =      1.093328    -0.000001    -0.000000     1.093327
	   20 R(18,21)        =      1.528618    -0.000005    -0.000001     1.528617
	   21 R(21,22)        =      1.091955     0.000003     0.000001     1.091955
	   22 R(21,23)        =      1.093919     0.000005     0.000001     1.093920
	   23 R(21,24)        =      1.536607     0.000005     0.000001     1.536608
	   24 R(24,25)        =      1.094134     0.000006     0.000001     1.094135
	   25 R(24,26)        =      1.093428     0.000005     0.000001     1.093429
	   26 B(1,9,10)       =    109.135141     0.000000     0.000014   109.135155
	   27 B(1,9,11)       =    109.639786     0.000000    -0.000000   109.639785
	   28 B(1,9,15)       =    113.235931    -0.000000    -0.000000   113.235931
	   29 B(2,1,3)        =    107.865830     0.000000     0.000007   107.865837
	   30 B(2,1,4)        =    107.606119    -0.000000    -0.000027   107.606092
	   31 B(2,1,9)        =    111.169757     0.000000     0.000013   111.169770
	   32 B(3,1,4)        =    107.826705    -0.000000    -0.000002   107.826703
	   33 B(3,1,9)        =    110.586505    -0.000000    -0.000014   110.586491
	   34 B(4,1,9)        =    111.623612     0.000000     0.000023   111.623635
	   35 B(5,12,13)      =    108.972754    -0.000000    -0.000001   108.972753
	   36 B(5,12,14)      =    109.636019    -0.000000    -0.000009   109.636010
	   37 B(5,12,24)      =    112.432639     0.000000     0.000031   112.432670
	   38 B(6,5,7)        =    107.669595     0.000000     0.000015   107.669610
	   39 B(6,5,8)        =    107.632681     0.000000     0.000008   107.632690
	   40 B(6,5,12)       =    111.548646    -0.000000    -0.000014   111.548632
	   41 B(7,5,8)        =    107.947931    -0.000000    -0.000010   107.947920
	   42 B(7,5,12)       =    110.515653     0.000000     0.000006   110.515659
	   43 B(8,5,12)       =    111.360981    -0.000000    -0.000005   111.360976
	   44 B(9,15,16)      =    108.811593     0.000000    -0.000025   108.811568
	   45 B(9,15,17)      =    109.234048     0.000000     0.000035   109.234083
	   46 B(9,15,18)      =    113.341503    -0.000000    -0.000167   113.341336
	   47 B(10,9,11)      =    106.509574    -0.000000    -0.000021   106.509553
	   48 B(10,9,15)      =    108.986226     0.000000     0.000028   108.986253
	   49 B(11,9,15)      =    109.111253    -0.000000    -0.000020   109.111233
	   50 B(12,24,21)     =    114.354298     0.000000     0.000131   114.354429
	   51 B(12,24,25)     =    109.753668     0.000000     0.000071   109.753739
	   52 B(12,24,26)     =    107.809164    -0.000000    -0.000246   107.808919
	   53 B(13,12,14)     =    106.598952     0.000000     0.000035   106.598988
	   54 B(13,12,24)     =    109.177361     0.000000     0.000025   109.177386
	   55 B(14,12,24)     =    109.847098    -0.000000    -0.000079   109.847019
	   56 B(15,18,19)     =    108.559506     0.000000    -0.000050   108.559457
	   57 B(15,18,20)     =    109.690314    -0.000000    -0.000013   109.690301
	   58 B(15,18,21)     =    114.263034    -0.000000     0.000107   114.263141
	   59 B(16,15,17)     =    106.627345    -0.000000     0.000087   106.627432
	   60 B(16,15,18)     =    109.827387     0.000000     0.000049   109.827436
	   61 B(17,15,18)     =    108.779637     0.000000     0.000037   108.779674
	   62 B(18,21,22)     =    108.203171    -0.000000    -0.000117   108.203054
	   63 B(18,21,23)     =    109.146112    -0.000000    -0.000110   109.146002
	   64 B(18,21,24)     =    113.620726     0.000000     0.000136   113.620862
	   65 B(19,18,20)     =    106.529711    -0.000000    -0.000026   106.529685
	   66 B(19,18,21)     =    109.136760    -0.000000    -0.000084   109.136676
	   67 B(20,18,21)     =    108.381372     0.000000     0.000056   108.381428
	   68 B(21,24,25)     =    108.695882    -0.000000    -0.000012   108.695869
	   69 B(21,24,26)     =    109.791735     0.000000     0.000018   109.791753
	   70 B(22,21,23)     =    106.120558     0.000000    -0.000022   106.120537
	   71 B(22,21,24)     =    109.668442     0.000000     0.000130   109.668572
	   72 B(23,21,24)     =    109.798610    -0.000000    -0.000029   109.798581
	   73 B(25,24,26)     =    106.118333     0.000000     0.000032   106.118365
	   74 D(1,9,15,16)    =    -58.594006     0.000000    -0.000021   -58.594028
	   75 D(1,9,15,17)    =   -174.635341    -0.000000    -0.000130  -174.635472
	   76 D(1,9,15,18)    =     63.903911    -0.000000    -0.000090    63.903820
	   77 D(2,1,9,10)     =     53.693601    -0.000000     0.000176    53.693777
	   78 D(2,1,9,11)     =    -62.614393     0.000000     0.000194   -62.614199
	   79 D(2,1,9,15)     =    175.276665     0.000000     0.000221   175.276886
	   80 D(3,1,9,10)     =    -66.101051    -0.000000     0.000168   -66.100883
	   81 D(3,1,9,11)     =    177.590956     0.000000     0.000186   177.591142
	   82 D(3,1,9,15)     =     55.482014     0.000000     0.000213    55.482226
	   83 D(4,1,9,10)     =    173.854571    -0.000000     0.000166   173.854736
	   84 D(4,1,9,11)     =     57.546577    -0.000000     0.000184    57.546761
	   85 D(4,1,9,15)     =    -64.562365     0.000000     0.000211   -64.562154
	   86 D(5,12,24,21)   =    -72.303496    -0.000000     0.001977   -72.301519
	   87 D(5,12,24,25)   =    165.256983     0.000000     0.001846   165.258829
	   88 D(5,12,24,26)   =     50.094435     0.000000     0.001905    50.096340
	   89 D(6,5,12,13)    =   -179.636615     0.000000     0.000328  -179.636287
	   90 D(6,5,12,14)    =    -63.315755     0.000000     0.000365   -63.315391
	   91 D(6,5,12,24)    =     59.183035    -0.000000     0.000278    59.183312
	   92 D(7,5,12,13)    =     60.614323     0.000000     0.000314    60.614636
	   93 D(7,5,12,14)    =    176.935183     0.000000     0.000350   176.935533
	   94 D(7,5,12,24)    =    -60.566027    -0.000000     0.000263   -60.565764
	   95 D(8,5,12,13)    =    -59.361975     0.000000     0.000326   -59.361650
	   96 D(8,5,12,14)    =     56.958885     0.000000     0.000363    56.959247
	   97 D(8,5,12,24)    =    179.457675    -0.000000     0.000275   179.457950
	   98 D(9,15,18,19)   =     52.186670     0.000000    -0.001111    52.185559
	   99 D(9,15,18,20)   =    -63.847776     0.000000    -0.001045   -63.848821
	  100 D(9,15,18,21)   =    174.236064    -0.000000    -0.001184   174.234880
	  101 D(10,9,15,16)   =     63.072611     0.000000     0.000016    63.072627
	  102 D(10,9,15,17)   =    -52.968724    -0.000000    -0.000094   -52.968817
	  103 D(10,9,15,18)   =   -174.429472     0.000000    -0.000053  -174.429525
	  104 D(11,9,15,16)   =    179.002532     0.000000    -0.000006   179.002526
	  105 D(11,9,15,17)   =     62.961196    -0.000000    -0.000115    62.961082
	  106 D(11,9,15,18)   =    -58.499552    -0.000000    -0.000074   -58.499626
	  107 D(12,24,21,18)  =    -97.257948     0.000000    -0.000504   -97.258452
	  108 D(12,24,21,22)  =    141.517738     0.000000    -0.000541   141.517197
	  109 D(12,24,21,23)  =     25.282308    -0.000000    -0.000573    25.281735
	  110 D(13,12,24,21)  =    166.633340    -0.000000     0.001941   166.635282
	  111 D(13,12,24,25)  =     44.193820     0.000000     0.001810    44.195630
	  112 D(13,12,24,26)  =    -70.968729     0.000000     0.001870   -70.966859
	  113 D(14,12,24,21)  =     50.076111    -0.000000     0.001930    50.078041
	  114 D(14,12,24,25)  =    -72.363409     0.000000     0.001798   -72.361611
	  115 D(14,12,24,26)  =    172.474042     0.000000     0.001858   172.475900
	  116 D(15,18,21,22)  =   -176.270093     0.000000    -0.001919  -176.272012
	  117 D(15,18,21,23)  =    -61.209877    -0.000000    -0.002066   -61.211942
	  118 D(15,18,21,24)  =     61.689473    -0.000000    -0.002091    61.687382
	  119 D(16,15,18,19)  =    174.119413    -0.000000    -0.001223   174.118190
	  120 D(16,15,18,20)  =     58.084967    -0.000000    -0.001158    58.083809
	  121 D(16,15,18,21)  =    -63.831194    -0.000000    -0.001297   -63.832490
	  122 D(17,15,18,19)  =    -69.528628     0.000000    -0.001071   -69.529699
	  123 D(17,15,18,20)  =    174.436925     0.000000    -0.001005   174.435920
	  124 D(17,15,18,21)  =     52.520765    -0.000000    -0.001144    52.519621
	  125 D(18,21,24,25)  =     25.755578     0.000000    -0.000330    25.755249
	  126 D(18,21,24,26)  =    141.430443     0.000000    -0.000289   141.430155
	  127 D(19,18,21,22)  =    -54.537393     0.000000    -0.001973   -54.539366
	  128 D(19,18,21,23)  =     60.522823    -0.000000    -0.002119    60.520704
	  129 D(19,18,21,24)  =   -176.577827    -0.000000    -0.002144  -176.579972
	  130 D(20,18,21,22)  =     61.098606     0.000000    -0.002018    61.096588
	  131 D(20,18,21,23)  =    176.158822    -0.000000    -0.002164   176.156658
	  132 D(20,18,21,24)  =    -60.941828    -0.000000    -0.002189   -60.944018
	  133 D(22,21,24,25)  =    -95.468735     0.000000    -0.000367   -95.469103
	  134 D(22,21,24,26)  =     20.206130     0.000000    -0.000326    20.205804
	  135 D(23,21,24,25)  =    148.295835    -0.000000    -0.000399   148.295436
	  136 D(23,21,24,26)  =    -96.029300     0.000000    -0.000358   -96.029658
	  137 R(12,15)        =      3.427641     0.000002     0.000002     3.427643
	 ---------------------------------------------------------------------------

  ==> Convergence Check <==

  Measures of convergence in internal coordinates in au.
  Criteria marked as inactive (o), active & met (*), and active & unmet ( ).
  --------------------------------------------------------------------------------------------- ~
   Step     Total Energy     Delta E     MAX Force     RMS Force      MAX Disp      RMS Disp    ~
  --------------------------------------------------------------------------------------------- ~
    Convergence Criteria             o    2.00e-06 *    1.00e-06 *    6.00e-06 *    4.00e-06 *  ~
  --------------------------------------------------------------------------------------------- ~
      1    -314.97991605   -3.15e+02 o    8.30e-07 *    2.00e-07 *    3.82e-05      1.38e-05    ~
  ---------------------------------------------------------------------------------------------

	Writing optimization data to binary file.
	Structure for next step:
	Cartesian Geometry (in Angstrom)
	    C     3.3937602009  -0.1830282956   0.7292842013
	    H     4.4547964960  -0.4225204476   0.6632432694
	    H     3.0029059926  -0.6419338651   1.6391983631
	    H     3.3059192365   0.8973292134   0.8364374551
	    C    -3.3834742954  -0.6560692647  -0.4138156744
	    H    -3.1268652648  -0.2022115850  -1.3711156694
	    H    -4.1591957824  -0.0422266257   0.0463528991
	    H    -3.8093549876  -1.6382701207  -0.6177357732
	    C     2.6375475943  -0.6897717446  -0.4943864470
	    H     2.8413663505  -1.7548112343  -0.6255415185
	    H     3.0121692152  -0.1889092564  -1.3914104041
	    C    -2.1682130665  -0.7568044232   0.5020004332
	    H    -2.4703988852  -1.2217219356   1.4433261390
	    H    -1.4242590378  -1.4170504723   0.0528880442
	    C     1.1274302405  -0.4808814990  -0.3987423556
	    H     0.7552684555  -0.9986787586   0.4902541003
	    H     0.6432211309  -0.9506180693  -1.2604174627
	    C     0.7226629658   0.9886655640  -0.3488570282
	    H     1.1926042476   1.5083218873  -1.1902024237
	    H     1.1176657556   1.4488875716   0.5608315201
	    C    -0.7867211279   1.2263175334  -0.3930317781
	    H    -0.9617476064   2.3038265895  -0.4196039280
	    H    -1.1848866096   0.8306774773  -1.3319638076
	    C    -1.5422351213   0.6087432953   0.7939666613
	    H    -0.8560806857   0.5272308270   1.6423058126
	    H    -2.3422692488   1.2817803012   1.1142060649
			--------------------------
			 OPTKING Finished Execution 
			--------------------------

    Structure for next step:
    Molecular point group: c1
    Full point group: C1

    Geometry (in Angstrom), charge = 0, multiplicity = 1:

    C            3.393761287947    -0.183026783727     0.729281852608
    H            4.454797583019    -0.422518935745     0.663240920764
    H            3.002907079612    -0.641932353162     1.639196014420
    H            3.305920323485     0.897330725313     0.836435106479
    C           -3.383473208360    -0.656067752799    -0.413818023040
    H           -3.126864177813    -0.202210073142    -1.371118018115
    H           -4.159194695444    -0.042225113825     0.046350550456
    H           -3.809353900615    -1.638268608806    -0.617738121848
    C            2.637548681280    -0.689770232655    -0.494388795700
    H            2.841367437487    -1.754809722443    -0.625543867157
    H            3.012170302212    -0.188907744470    -1.391412752725
    C           -2.168211979460    -0.756802911309     0.501998084574
    H           -2.470397798185    -1.221720423681     1.443323790309
    H           -1.424257950843    -1.417048960444     0.052885695487
    C            1.127431327550    -0.480879987125    -0.398744704228
    H            0.755269542492    -0.998677246681     0.490251751657
    H            0.643222217890    -0.950616557404    -1.260419811348
    C            0.722664052802     0.988667075849    -0.348859376834
    H            1.192605334624     1.508323399167    -1.190204772397
    H            1.117666842570     1.448889083524     0.560829171426
    C           -0.786720040882     1.226319045333    -0.393034126729
    H           -0.961746519393     2.303828101355    -0.419606276639
    H           -1.184885522553     0.830678989158    -1.331966156292
    C           -1.542234034272     0.608744807181     0.793964312675
    H           -0.856079598663     0.527232338849     1.642303463919
    H           -2.342268161833     1.281781813141     1.114203716271

gradient() will perform analytic gradient computation.

*** tstart() called on wr42
*** at Wed Sep 21 07:46:08 2016


         ---------------------------------------------------------
                                   SCF
            by Justin Turney, Rob Parrish, and Andy Simmonett
                              RHF Reference
                       12 Threads,  60000 MiB Core
         ---------------------------------------------------------

  ==> Geometry <==

    Molecular point group: c1
    Full point group: C1

    Geometry (in Angstrom), charge = 0, multiplicity = 1:

       Center              X                  Y                   Z               Mass       
    ------------   -----------------  -----------------  -----------------  -----------------
           C          3.393761287947    -0.183026783727     0.729281852608    12.000000000000
           H          4.454797583019    -0.422518935745     0.663240920764     1.007825032070
           H          3.002907079612    -0.641932353162     1.639196014420     1.007825032070
           H          3.305920323485     0.897330725313     0.836435106479     1.007825032070
           C         -3.383473208360    -0.656067752799    -0.413818023040    12.000000000000
           H         -3.126864177813    -0.202210073142    -1.371118018115     1.007825032070
           H         -4.159194695444    -0.042225113825     0.046350550456     1.007825032070
           H         -3.809353900615    -1.638268608806    -0.617738121848     1.007825032070
           C          2.637548681280    -0.689770232655    -0.494388795700    12.000000000000
           H          2.841367437487    -1.754809722443    -0.625543867157     1.007825032070
           H          3.012170302212    -0.188907744470    -1.391412752725     1.007825032070
           C         -2.168211979460    -0.756802911309     0.501998084574    12.000000000000
           H         -2.470397798185    -1.221720423681     1.443323790309     1.007825032070
           H         -1.424257950843    -1.417048960444     0.052885695487     1.007825032070
           C          1.127431327550    -0.480879987125    -0.398744704228    12.000000000000
           H          0.755269542492    -0.998677246681     0.490251751657     1.007825032070
           H          0.643222217890    -0.950616557404    -1.260419811348     1.007825032070
           C          0.722664052802     0.988667075849    -0.348859376834    12.000000000000
           H          1.192605334624     1.508323399167    -1.190204772397     1.007825032070
           H          1.117666842570     1.448889083524     0.560829171426     1.007825032070
           C         -0.786720040882     1.226319045333    -0.393034126729    12.000000000000
           H         -0.961746519393     2.303828101355    -0.419606276639     1.007825032070
           H         -1.184885522553     0.830678989158    -1.331966156292     1.007825032070
           C         -1.542234034272     0.608744807181     0.793964312675    12.000000000000
           H         -0.856079598663     0.527232338849     1.642303463919     1.007825032070
           H         -2.342268161833     1.281781813141     1.114203716271     1.007825032070

  Running in c1 symmetry.

  Rotational constants: A =      0.13218  B =      0.02634  C =      0.02505 [cm^-1]
  Rotational constants: A =   3962.59592  B =    789.58466  C =    750.87594 [MHz]
  Nuclear repulsion =  397.068301660188865

  Charge       = 0
  Multiplicity = 1
  Electrons    = 66
  Nalpha       = 33
  Nbeta        = 33

  ==> Algorithm <==

  SCF Algorithm Type is DF.
  DIIS enabled.
  MOM disabled.
  Fractional occupation disabled.
  Guess Type is READ.
  Energy threshold   = 1.00e-10
  Density threshold  = 1.00e-10
  Integral threshold = 0.00e+00

  ==> Primary Basis <==

  Basis Set: AUG-CC-PVTZ
    Number of shells: 274
    Number of basis function: 782
    Number of Cartesian functions: 890
    Spherical Harmonics?: true
    Max angular momentum: 3

  ==> Pre-Iterations <==

   -------------------------------------------------------
    Irrep   Nso     Nmo     Nalpha   Nbeta   Ndocc  Nsocc
   -------------------------------------------------------
     A        782     782       0       0       0       0
   -------------------------------------------------------
    Total     782     782      33      33      33       0
   -------------------------------------------------------

  ==> Integral Setup <==

  ==> DFJK: Density-Fitted J/K Matrices <==

    J tasked:                  Yes
    K tasked:                  Yes
    wK tasked:                  No
    OpenMP threads:             12
    Integrals threads:          12
    Memory (MB):             42915
    Algorithm:                Core
    Integral Cache:           NONE
    Schwarz Cutoff:          1E-12
    Fitting Condition:       1E-12

   => Auxiliary Basis Set <=

  Basis Set: 
    Number of shells: 492
    Number of basis function: 1660
    Number of Cartesian functions: 2038
    Spherical Harmonics?: true
    Max angular momentum: 4

  Minimum eigenvalue in the overlap matrix is 1.9545318278E-06.
  Using Symmetric Orthogonalization.
  SCF Guess: Reading in previously saved MOs, projecting if necessary.

  Using orbitals from previous SCF, no projection.
  Recomputing DOCC and SOCC from number of alpha and beta electrons from previous calculation.
              A 
    DOCC [    33 ]

  ==> Iterations <==

                           Total Energy        Delta E     RMS |[F,P]|

   @DF-RHF iter   0:  -313.53705465558636   -3.13537e+02   1.17483e-07 
   @DF-RHF iter   1:  -313.53705371736527    9.38221e-07   2.51425e-08 
   @DF-RHF iter   2:  -313.53705371770280   -3.37536e-10   1.04220e-08 DIIS
   @DF-RHF iter   3:  -313.53705371775112   -4.83169e-11   4.26736e-09 DIIS
   @DF-RHF iter   4:  -313.53705371776215   -1.10276e-11   4.51686e-10 DIIS
   @DF-RHF iter   5:  -313.53705371776249   -3.41061e-13   1.51624e-10 DIIS
   @DF-RHF iter   6:  -313.53705371776192    5.68434e-13   3.84252e-11 DIIS

  ==> Post-Iterations <==

    Orbital Energies (a.u.)
    -----------------------

    Doubly Occupied:                                                      

       1A    -11.212952     2A    -11.211616     3A    -11.210586  
       4A    -11.210400     5A    -11.209994     6A    -11.209574  
       7A    -11.206761     8A    -11.206155     9A     -1.094209  
      10A     -1.059020    11A     -1.007737    12A     -0.942620  
      13A     -0.891483    14A     -0.831670    15A     -0.780229  
      16A     -0.760408    17A     -0.642098    18A     -0.626575  
      19A     -0.612964    20A     -0.600825    21A     -0.576331  
      22A     -0.564031    23A     -0.541441    24A     -0.531493  
      25A     -0.505687    26A     -0.500844    27A     -0.496002  
      28A     -0.476059    29A     -0.467389    30A     -0.458846  
      31A     -0.446562    32A     -0.435734    33A     -0.432868  

    Virtual:                                                              

      34A      0.029546    35A      0.033017    36A      0.033867  
      37A      0.035215    38A      0.045808    39A      0.047596  
      40A      0.050347    41A      0.054112    42A      0.055230  
      43A      0.064156    44A      0.068491    45A      0.071644  
      46A      0.073684    47A      0.079346    48A      0.088182  
      49A      0.089179    50A      0.092385    51A      0.102235  
      52A      0.115422    53A      0.118353    54A      0.120325  
      55A      0.123143    56A      0.128520    57A      0.131224  
      58A      0.133198    59A      0.136201    60A      0.139543  
      61A      0.142805    62A      0.148721    63A      0.149831  
      64A      0.152369    65A      0.158010    66A      0.160895  
      67A      0.164011    68A      0.165624    69A      0.172638  
      70A      0.176106    71A      0.180057    72A      0.180721  
      73A      0.190018    74A      0.191774    75A      0.196603  
      76A      0.209855    77A      0.212577    78A      0.216532  
      79A      0.225749    80A      0.236439    81A      0.242869  
      82A      0.245646    83A      0.252273    84A      0.257060  
      85A      0.263701    86A      0.272366    87A      0.280069  
      88A      0.287011    89A      0.290673    90A      0.295350  
      91A      0.300192    92A      0.306149    93A      0.308961  
      94A      0.313985    95A      0.315133    96A      0.319323  
      97A      0.326227    98A      0.329709    99A      0.334405  
     100A      0.338131   101A      0.340532   102A      0.343779  
     103A      0.346020   104A      0.347829   105A      0.354125  
     106A      0.355056   107A      0.363262   108A      0.364051  
     109A      0.367204   110A      0.371962   111A      0.373465  
     112A      0.377598   113A      0.380486   114A      0.386997  
     115A      0.393246   116A      0.394186   117A      0.401409  
     118A      0.406702   119A      0.410413   120A      0.413980  
     121A      0.419803   122A      0.420944   123A      0.427098  
     124A      0.428958   125A      0.431091   126A      0.434631  
     127A      0.441239   128A      0.447682   129A      0.451613  
     130A      0.454030   131A      0.456494   132A      0.458543  
     133A      0.463157   134A      0.469012   135A      0.472764  
     136A      0.475047   137A      0.478147   138A      0.479454  
     139A      0.484763   140A      0.489091   141A      0.490589  
     142A      0.495430   143A      0.499851   144A      0.501678  
     145A      0.511713   146A      0.513922   147A      0.517665  
     148A      0.519877   149A      0.524655   150A      0.527069  
     151A      0.534237   152A      0.536921   153A      0.543817  
     154A      0.545716   155A      0.548632   156A      0.555922  
     157A      0.563115   158A      0.565040   159A      0.566763  
     160A      0.574738   161A      0.577376   162A      0.578560  
     163A      0.586357   164A      0.593095   165A      0.597777  
     166A      0.599031   167A      0.601966   168A      0.612576  
     169A      0.612794   170A      0.617324   171A      0.620072  
     172A      0.624114   173A      0.630314   174A      0.636255  
     175A      0.639820   176A      0.650646   177A      0.653904  
     178A      0.657843   179A      0.665640   180A      0.667466  
     181A      0.671952   182A      0.677411   183A      0.679820  
     184A      0.682764   185A      0.690875   186A      0.698749  
     187A      0.706196   188A      0.711105   189A      0.717981  
     190A      0.722331   191A      0.725772   192A      0.728580  
     193A      0.734437   194A      0.737856   195A      0.752185  
     196A      0.760665   197A      0.770004   198A      0.777321  
     199A      0.785333   200A      0.792510   201A      0.800664  
     202A      0.803589   203A      0.809877   204A      0.823926  
     205A      0.827023   206A      0.836093   207A      0.838745  
     208A      0.847464   209A      0.854065   210A      0.859412  
     211A      0.864094   212A      0.872849   213A      0.876125  
     214A      0.880121   215A      0.889040   216A      0.892448  
     217A      0.895877   218A      0.901690   219A      0.907814  
     220A      0.913267   221A      0.920147   222A      0.924742  
     223A      0.930764   224A      0.933173   225A      0.936221  
     226A      0.941468   227A      0.947173   228A      0.951729  
     229A      0.960857   230A      0.963466   231A      0.974712  
     232A      0.975616   233A      0.980727   234A      0.984920  
     235A      0.989609   236A      0.990762   237A      0.999089  
     238A      1.004237   239A      1.009249   240A      1.013338  
     241A      1.015590   242A      1.019536   243A      1.026724  
     244A      1.032757   245A      1.036847   246A      1.042121  
     247A      1.053141   248A      1.061934   249A      1.064580  
     250A      1.066890   251A      1.071433   252A      1.074500  
     253A      1.077116   254A      1.082390   255A      1.089894  
     256A      1.099664   257A      1.103278   258A      1.109528  
     259A      1.112924   260A      1.117898   261A      1.119658  
     262A      1.126460   263A      1.130237   264A      1.138338  
     265A      1.139070   266A      1.144828   267A      1.151784  
     268A      1.155606   269A      1.161657   270A      1.165218  
     271A      1.172059   272A      1.179571   273A      1.182606  
     274A      1.188001   275A      1.191931   276A      1.203282  
     277A      1.213272   278A      1.215488   279A      1.216287  
     280A      1.220926   281A      1.223883   282A      1.230668  
     283A      1.235689   284A      1.245408   285A      1.251915  
     286A      1.258738   287A      1.259580   288A      1.269198  
     289A      1.272806   290A      1.276162   291A      1.281549  
     292A      1.291090   293A      1.292973   294A      1.297982  
     295A      1.304360   296A      1.312247   297A      1.315576  
     298A      1.321003   299A      1.322671   300A      1.331564  
     301A      1.338553   302A      1.346364   303A      1.352011  
     304A      1.364001   305A      1.367931   306A      1.381699  
     307A      1.391411   308A      1.396120   309A      1.398887  
     310A      1.409031   311A      1.410882   312A      1.415651  
     313A      1.419671   314A      1.431818   315A      1.441948  
     316A      1.448226   317A      1.453282   318A      1.456133  
[...]
	Denominators (dg)(dq) or (dq)(dq) are very small.
	 Skipping Hessian update for step 13.
	Denominators (dg)(dq) or (dq)(dq) are very small.
	 Skipping Hessian update for step 12.
	Denominators (dg)(dq) or (dq)(dq) are very small.
	 Skipping Hessian update for step 11.
	Denominators (dg)(dq) or (dq)(dq) are very small.
	 Skipping Hessian update for step 10.
	Denominators (dg)(dq) or (dq)(dq) are very small.
	 Skipping Hessian update for step 9.
	Denominators (dg)(dq) or (dq)(dq) are very small.
	 Skipping Hessian update for step 8.
	Denominators (dg)(dq) or (dq)(dq) are very small.
	 Skipping Hessian update for step 7.
	Denominators (dg)(dq) or (dq)(dq) are very small.
	 Skipping Hessian update for step 6.
	Denominators (dg)(dq) or (dq)(dq) are very small.
	 Skipping Hessian update for step 5.
	Denominators (dg)(dq) or (dq)(dq) are very small.
	 Skipping Hessian update for step 4.
	Denominators (dg)(dq) or (dq)(dq) are very small.
	 Skipping Hessian update for step 3.
	Denominators (dg)(dq) or (dq)(dq) are very small.
	 Skipping Hessian update for step 2.
	Steps to be used in Hessian update: 1
	Taking RFO optimization step.
	Going to follow RFO solution 1.
	Using RFO vector 1.
	Norm of target step-size    0.00001
	Projected energy change by RFO approximation:        -0.0000000000

	Back-transformation to cartesian coordinates...
	Successfully converged to displaced geometry.

	--- Internal Coordinate Step in ANG or DEG, aJ/ANG or AJ/DEG ---
	 ---------------------------------------------------------------------------
	   Coordinate                Previous        Force       Change         New 
	   ----------                --------       ------       ------       ------
	    1 R(1,2)          =      1.089732    -0.000001    -0.000000     1.089732
	    2 R(1,3)          =      1.091469    -0.000001    -0.000000     1.091469
	    3 R(1,4)          =      1.089206    -0.000001    -0.000000     1.089206
	    4 R(1,9)          =      1.525128    -0.000000    -0.000000     1.525128
	    5 R(5,6)          =      1.090072     0.000001     0.000000     1.090073
	    6 R(5,7)          =      1.091010     0.000001     0.000000     1.091010
	    7 R(5,8)          =      1.089806     0.000000     0.000000     1.089806
	    8 R(5,12)         =      1.525033     0.000001     0.000000     1.525033
	    9 R(9,10)         =      1.092270    -0.000001    -0.000000     1.092269
	   10 R(9,11)         =      1.093552    -0.000001    -0.000000     1.093552
	   11 R(9,15)         =      1.527494     0.000001     0.000000     1.527494
	   12 R(12,13)        =      1.092501     0.000000     0.000000     1.092501
	   13 R(12,14)        =      1.091373     0.000000     0.000000     1.091373
	   14 R(12,24)        =      1.530298     0.000000     0.000000     1.530299
	   15 R(15,16)        =      1.094044     0.000000    -0.000000     1.094044
	   16 R(15,17)        =      1.094347     0.000000    -0.000000     1.094347
	   17 R(15,18)        =      1.525088    -0.000000    -0.000000     1.525088
	   18 R(18,19)        =      1.094874    -0.000000    -0.000000     1.094874
	   19 R(18,20)        =      1.093327    -0.000000    -0.000000     1.093327
	   20 R(18,21)        =      1.528617    -0.000001    -0.000000     1.528617
	   21 R(21,22)        =      1.091955     0.000001     0.000000     1.091955
	   22 R(21,23)        =      1.093919     0.000000    -0.000000     1.093919
	   23 R(21,24)        =      1.536607     0.000000    -0.000000     1.536607
	   24 R(24,25)        =      1.094135     0.000001     0.000000     1.094135
	   25 R(24,26)        =      1.093429     0.000001     0.000000     1.093429
	   26 B(1,9,10)       =    109.135128     0.000000     0.000023   109.135151
	   27 B(1,9,11)       =    109.639782     0.000000    -0.000004   109.639778
	   28 B(1,9,15)       =    113.235939    -0.000000    -0.000021   113.235918
	   29 B(2,1,3)        =    107.865842     0.000000     0.000005   107.865847
	   30 B(2,1,4)        =    107.606099    -0.000000    -0.000005   107.606094
	   31 B(2,1,9)        =    111.169758     0.000000     0.000012   111.169769
	   32 B(3,1,4)        =    107.826709     0.000000     0.000006   107.826716
	   33 B(3,1,9)        =    110.586487    -0.000000    -0.000018   110.586470
	   34 B(4,1,9)        =    111.623633     0.000000     0.000000   111.623633
	   35 B(5,12,13)      =    108.972726     0.000000    -0.000015   108.972711
	   36 B(5,12,14)      =    109.636009     0.000000     0.000011   109.636020
	   37 B(5,12,24)      =    112.432749    -0.000000     0.000002   112.432751
	   38 B(6,5,7)        =    107.669618     0.000000     0.000001   107.669619
	   39 B(6,5,8)        =    107.632692    -0.000000    -0.000003   107.632690
	   40 B(6,5,12)       =    111.548657    -0.000000    -0.000005   111.548652
	   41 B(7,5,8)        =    107.947911    -0.000000    -0.000004   107.947907
	   42 B(7,5,12)       =    110.515678     0.000000     0.000006   110.515684
	   43 B(8,5,12)       =    111.360931     0.000000     0.000005   111.360937
	   44 B(9,15,16)      =    108.811609    -0.000000    -0.000039   108.811569
	   45 B(9,15,17)      =    109.234065    -0.000000     0.000001   109.234065
	   46 B(9,15,18)      =    113.341351     0.000000     0.000001   113.341353
	   47 B(10,9,11)      =    106.509553    -0.000000     0.000003   106.509556
	   48 B(10,9,15)      =    108.986286     0.000000     0.000015   108.986302
	   49 B(11,9,15)      =    109.111221     0.000000    -0.000015   109.111206
	   50 B(12,24,21)     =    114.354503     0.000000     0.000037   114.354540
	   51 B(12,24,25)     =    109.753649     0.000000     0.000019   109.753668
	   52 B(12,24,26)     =    107.808975    -0.000000    -0.000043   107.808932
	   53 B(13,12,14)     =    106.598972    -0.000000     0.000004   106.598977
	   54 B(13,12,24)     =    109.177297     0.000000    -0.000020   109.177277
	   55 B(14,12,24)     =    109.847065     0.000000     0.000017   109.847082
	   56 B(15,18,19)     =    108.559450     0.000000     0.000011   108.559461
	   57 B(15,18,20)     =    109.690321    -0.000000    -0.000010   109.690311
	   58 B(15,18,21)     =    114.263156     0.000000     0.000011   114.263167
	   59 B(16,15,17)     =    106.627425     0.000000     0.000003   106.627428
	   60 B(16,15,18)     =    109.827429     0.000000     0.000019   109.827448
	   61 B(17,15,18)     =    108.779649     0.000000     0.000016   108.779665
	   62 B(18,21,22)     =    108.203109    -0.000000     0.000006   108.203115
	   63 B(18,21,23)     =    109.146041     0.000000    -0.000007   109.146033
	   64 B(18,21,24)     =    113.620822    -0.000000    -0.000016   113.620806
	   65 B(19,18,20)     =    106.529679     0.000000     0.000000   106.529679
	   66 B(19,18,21)     =    109.136668    -0.000000    -0.000003   109.136665
	   67 B(20,18,21)     =    108.381412    -0.000000    -0.000011   108.381401
	   68 B(21,24,25)     =    108.695849    -0.000000    -0.000000   108.695849
	   69 B(21,24,26)     =    109.791746     0.000000    -0.000005   109.791740
	   70 B(22,21,23)     =    106.120515    -0.000000    -0.000000   106.120514
	   71 B(22,21,24)     =    109.668466     0.000000     0.000018   109.668484
	   72 B(23,21,24)     =    109.798657    -0.000000     0.000000   109.798657
	   73 B(25,24,26)     =    106.118346     0.000000    -0.000011   106.118334
	   74 D(1,9,15,16)    =    -58.593976    -0.000000    -0.000136   -58.594112
	   75 D(1,9,15,17)    =   -174.635424     0.000000    -0.000118  -174.635543
	   76 D(1,9,15,18)    =     63.903902    -0.000000    -0.000140    63.903762
	   77 D(2,1,9,10)     =     53.693746     0.000000     0.000159    53.693905
	   78 D(2,1,9,11)     =    -62.614212    -0.000000     0.000145   -62.614068
	   79 D(2,1,9,15)     =    175.276884     0.000000     0.000181   175.277065
	   80 D(3,1,9,10)     =    -66.100909     0.000000     0.000157   -66.100753
	   81 D(3,1,9,11)     =    177.591132    -0.000000     0.000142   177.591274
	   82 D(3,1,9,15)     =     55.482229     0.000000     0.000179    55.482407
	   83 D(4,1,9,10)     =    173.854706     0.000000     0.000160   173.854866
	   84 D(4,1,9,11)     =     57.546747    -0.000000     0.000146    57.546893
	   85 D(4,1,9,15)     =    -64.562157     0.000000     0.000182   -64.561974
	   86 D(5,12,24,21)   =    -72.302916     0.000000     0.000095   -72.302821
	   87 D(5,12,24,25)   =    165.257475    -0.000000     0.000055   165.257530
	   88 D(5,12,24,26)   =     50.095024     0.000000     0.000082    50.095106
	   89 D(6,5,12,13)    =   -179.636314    -0.000000     0.000058  -179.636256
	   90 D(6,5,12,14)    =    -63.315451     0.000000     0.000061   -63.315390
	   91 D(6,5,12,24)    =     59.183366     0.000000     0.000092    59.183458
	   92 D(7,5,12,13)    =     60.614571    -0.000000     0.000057    60.614628
	   93 D(7,5,12,14)    =    176.935434     0.000000     0.000059   176.935494
	   94 D(7,5,12,24)    =    -60.565749     0.000000     0.000090   -60.565658
	   95 D(8,5,12,13)    =    -59.361686    -0.000000     0.000055   -59.361631
	   96 D(8,5,12,14)    =     56.959177     0.000000     0.000057    56.959234
	   97 D(8,5,12,24)    =    179.457994     0.000000     0.000089   179.458082
	   98 D(9,15,18,19)   =     52.185918     0.000000    -0.000065    52.185853
	   99 D(9,15,18,20)   =    -63.848463     0.000000    -0.000066   -63.848529
	  100 D(9,15,18,21)   =    174.235234     0.000000    -0.000053   174.235181
	  101 D(10,9,15,16)   =     63.072674    -0.000000    -0.000110    63.072564
	  102 D(10,9,15,17)   =    -52.968775     0.000000    -0.000092   -52.968866
	  103 D(10,9,15,18)   =   -174.429448    -0.000000    -0.000114  -174.429562
	  104 D(11,9,15,16)   =    179.002585    -0.000000    -0.000106   179.002478
	  105 D(11,9,15,17)   =     62.961136     0.000000    -0.000088    62.961048
	  106 D(11,9,15,18)   =    -58.499537     0.000000    -0.000110   -58.499647
	  107 D(12,24,21,18)  =    -97.257309    -0.000000    -0.000051   -97.257360
	  108 D(12,24,21,22)  =    141.518375    -0.000000    -0.000061   141.518314
	  109 D(12,24,21,23)  =     25.282957    -0.000000    -0.000071    25.282886
	  110 D(13,12,24,21)  =    166.633929     0.000000     0.000126   166.634055
	  111 D(13,12,24,25)  =     44.194320     0.000000     0.000086    44.194405
	  112 D(13,12,24,26)  =    -70.968131     0.000000     0.000113   -70.968018
	  113 D(14,12,24,21)  =     50.076731     0.000000     0.000123    50.076854
	  114 D(14,12,24,25)  =    -72.362878    -0.000000     0.000082   -72.362795
	  115 D(14,12,24,26)  =    172.474672     0.000000     0.000109   172.474781
	  116 D(15,18,21,22)  =   -176.270214    -0.000000    -0.000071  -176.270285
	  117 D(15,18,21,23)  =    -61.210121    -0.000000    -0.000072   -61.210192
	  118 D(15,18,21,24)  =     61.689303    -0.000000    -0.000088    61.689215
	  119 D(16,15,18,19)  =    174.118606    -0.000000    -0.000101   174.118505
	  120 D(16,15,18,20)  =     58.084225    -0.000000    -0.000103    58.084123
	  121 D(16,15,18,21)  =    -63.832078    -0.000000    -0.000089   -63.832167
	  122 D(17,15,18,19)  =    -69.529309     0.000000    -0.000078   -69.529388
	  123 D(17,15,18,20)  =    174.436310     0.000000    -0.000079   174.436230
	  124 D(17,15,18,21)  =     52.520006     0.000000    -0.000066    52.519940
	  125 D(18,21,24,25)  =     25.756310     0.000000    -0.000000    25.756310
	  126 D(18,21,24,26)  =    141.431178     0.000000    -0.000017   141.431161
	  127 D(19,18,21,22)  =    -54.537571     0.000000    -0.000051   -54.537622
	  128 D(19,18,21,23)  =     60.522522     0.000000    -0.000052    60.522470
	  129 D(19,18,21,24)  =   -176.578054    -0.000000    -0.000068  -176.578122
	  130 D(20,18,21,22)  =     61.098363     0.000000    -0.000058    61.098304
	  131 D(20,18,21,23)  =    176.158456     0.000000    -0.000059   176.158397
	  132 D(20,18,21,24)  =    -60.942120    -0.000000    -0.000075   -60.942195
	  133 D(22,21,24,25)  =    -95.468006     0.000000    -0.000011   -95.468017
	  134 D(22,21,24,26)  =     20.206862     0.000000    -0.000027    20.206834
	  135 D(23,21,24,25)  =    148.296576     0.000000    -0.000021   148.296555
	  136 D(23,21,24,26)  =    -96.028556     0.000000    -0.000037   -96.028594
	  137 R(12,15)        =      3.427638     0.000000     0.000000     3.427638
	 ---------------------------------------------------------------------------

  ==> Convergence Check <==

  Measures of convergence in internal coordinates in au.
  Criteria marked as inactive (o), active & met (*), and active & unmet ( ).
  ---------------------------------------------------------------------------------------------
   Step     Total Energy     Delta E     MAX Force     RMS Force      MAX Disp      RMS Disp   
  ---------------------------------------------------------------------------------------------
    Convergence Criteria             o    2.00e-06 *    1.00e-06 *    6.00e-06 *    4.00e-06 *
  ---------------------------------------------------------------------------------------------
     20    -314.97991605    5.16e-10 o    1.50e-07 *    4.40e-08 *    3.18e-06 *    1.17e-06 *  ~
  ---------------------------------------------------------------------------------------------


  **** Optimization is complete! (in 20 steps) ****

  ==> Optimization Summary <==

  Measures of convergence in internal coordinates in au.
  --------------------------------------------------------------------------------------------------------------- ~
   Step         Total Energy             Delta E       MAX Force       RMS Force        MAX Disp        RMS Disp  ~
  --------------------------------------------------------------------------------------------------------------- ~
      1    -314.979916052899   -314.979916052899      0.00000083      0.00000020      0.00003821      0.00001381  ~
      2    -314.979916051969      0.000000000930      0.00000055      0.00000012      0.00004094      0.00001425  ~
      3    -314.979916051486      0.000000000483      0.00000128      0.00000022      0.00004338      0.00001270  ~
      4    -314.979916050087      0.000000001399      0.00000073      0.00000020      0.00004216      0.00001166  ~
      5    -314.979916053563     -0.000000003476      0.00000077      0.00000016      0.00002260      0.00000749  ~
      6    -314.979916053577     -0.000000000014      0.00000147      0.00000033      0.00001695      0.00000581  ~
      7    -314.979916055799     -0.000000002222      0.00000075      0.00000020      0.00002898      0.00000856  ~
      8    -314.979916052114      0.000000003685      0.00000113      0.00000030      0.00002827      0.00000840  ~
      9    -314.979916055614     -0.000000003500      0.00000157      0.00000040      0.00002508      0.00000945  ~
     10    -314.979916056125     -0.000000000511      0.00000029      0.00000007      0.00001022      0.00000447  ~
     11    -314.979916050943      0.000000005182      0.00000074      0.00000020      0.00000859      0.00000317  ~
     12    -314.979916052620     -0.000000001677      0.00000148      0.00000036      0.00000911      0.00000362  ~
     13    -314.979916052027      0.000000000593      0.00000040      0.00000010      0.00000641      0.00000230  ~
     14    -314.979916049568      0.000000002459      0.00000077      0.00000019      0.00000667      0.00000259  ~
     15    -314.979916054189     -0.000000004621      0.00000117      0.00000032      0.00001921      0.00000603  ~
     16    -314.979916052348      0.000000001841      0.00000168      0.00000040      0.00002291      0.00000840  ~
     17    -314.979916054504     -0.000000002156      0.00000137      0.00000035      0.00000702      0.00000230  ~
     18    -314.979916051775      0.000000002728      0.00000050      0.00000013      0.00002589      0.00000961  ~
     19    -314.979916054891     -0.000000003115      0.00000098      0.00000028      0.00001788      0.00000669  ~
     20    -314.979916054375      0.000000000516      0.00000015      0.00000004      0.00000318      0.00000117  ~
  --------------------------------------------------------------------------------------------------------------- ~

	Writing optimization data to binary file.
	Final energy is   -314.9799160543748
	Final (previous) structure:
	Cartesian Geometry (in Angstrom)
	    C     3.3937426569  -0.1830545850   0.7292992968
	    H     4.4547795635  -0.4225475358   0.6632700829
	    H     3.0028721287  -0.6419818800   1.6391955310
	    H     3.3059022257   0.8973005635   0.8364777338
	    C    -3.3834679436  -0.6560923526  -0.4137943641
	    H    -3.1268766121  -0.2022434404  -1.3711031299
	    H    -4.1591964371  -0.0422577629   0.0463731411
	    H    -3.8093323885  -1.6383039692  -0.6176964573
	    C     2.6375495261  -0.6897661475  -0.4943965826
	    H     2.8413688965  -1.7548027354  -0.6255744456
	    H     3.0121872255  -0.1888820707  -1.3914018648
	    C    -2.1681962205  -0.7567932050   0.5020114766
	    H    -2.4703653248  -1.2217026563   1.4433464520
	    H    -1.4242352879  -1.4170329804   0.0529016604
	    C     1.1274309632  -0.4808750917  -0.3987729083
	    H     0.7552524874  -0.9986924830   0.4902047160
	    H     0.6432357593  -0.9505901354  -1.2604673932
	    C     0.7226653077   0.9886718855  -0.3488600943
	    H     1.1926164312   1.5083455756  -1.1901892103
	    H     1.1176588423   1.4488738561   0.5608424102
	    C    -0.7867181200   1.2263275691  -0.3930459658
	    H    -0.9617424803   2.3038362940  -0.4196291966
	    H    -1.1848796820   0.8306798865  -1.3319757955
	    C    -1.5422390932   0.6087689424   0.7939551001
	    H    -0.8560941547   0.5272821805   1.6423039466
	    H    -2.3422846423   1.2818032992   1.1141711008
	Saving final (previous) structure.
			--------------------------
			 OPTKING Finished Execution 
			--------------------------

    Final optimized geometry and variables:
    Molecular point group: c1
    Full point group: C1

    Geometry (in Angstrom), charge = 0, multiplicity = 1:

    C            3.393742656856    -0.183054584983     0.729299296779
    H            4.454779563522    -0.422547535835     0.663270082907
    H            3.002872128746    -0.641981880026     1.639195530954
    H            3.305902225707     0.897300563489     0.836477733830
    C           -3.383467943576    -0.656092352574    -0.413794364128
    H           -3.126876612143    -0.202243440409    -1.371103129863
    H           -4.159196437074    -0.042257762946     0.046373141100
    H           -3.809332388536    -1.638303969151    -0.617696457327
    C            2.637549526140    -0.689766147539    -0.494396582591
    H            2.841368896528    -1.754802735419    -0.625574445580
    H            3.012187225545    -0.188882070715    -1.391401864825
    C           -2.168196220485    -0.756793204983     0.502011476585
    H           -2.470365324850    -1.221702656299     1.443346451977
    H           -1.424235287948    -1.417032980351     0.052901660395
    C            1.127430963202    -0.480875091680    -0.398772908332
    H            0.755252487425    -0.998692483017     0.490204716047
    H            0.643235759289    -0.950590135419    -1.260467393211
    C            0.722665307699     0.988671885505    -0.348860094350
    H            1.192616431174     1.508345575619    -1.190189210296
    H            1.117658842252     1.448873856069     0.560842410183
    C           -0.786718119991     1.226327569140    -0.393045965806
    H           -0.961742480268     2.303836294010    -0.419629196629
    H           -1.184879681982     0.830679886544    -1.331975795519
    C           -1.542239093248     0.608768942420     0.793955100085
    H           -0.856094154682     0.527282180487     1.642303946555
    H           -2.342284642332     1.281803299173     1.114171100754

	Cleaning optimization helper files.

*** Psi4 exiting successfully. Buy a developer a beer!
