    -----------------------------------------------------------------------
          Psi4: An Open-Source Ab Initio Electronic Structure Package
                              Psi4 1.0.0 Driver

                          Git: Rev {master} 6a9a71b dirty

    J. M. Turney, A. C. Simmonett, R. M. Parrish, E. G. Hohenstein,
    F. A. Evangelista, J. T. Fermann, B. J. Mintz, L. A. Burns, J. J. Wilke,
    M. L. Abrams, N. J. Russ, M. L. Leininger, C. L. Janssen, E. T. Seidl,
    W. D. Allen, H. F. Schaefer, R. A. King, E. F. Valeev, C. D. Sherrill,
    and T. D. Crawford, WIREs Comput. Mol. Sci. 2, 556-565 (2012)
    (doi: 10.1002/wcms.93)

                         Additional Contributions by
    A. E. DePrince, U. Bozkaya, A. Yu. Sokolov, D. G. A. Smith, R. Di Remigio,
    R. M. Richard, J. F. Gonthier, H. R. McAlexander, M. Saitow, and
    B. P. Pritchard
    -----------------------------------------------------------------------


    Psi4 started on: Wed Sep 21 11:21:17 2016

    Process ID:  31807
    PSI4DATADIR: /usr/local/hpc5/psi4conda/share/psi4
    Memory level set to 256.000 MB

  ==> Input File <==

--------------------------------------------------------------------------
memory 60 Gb

molecule molecule_71_psi {
0 1
C           -2.716537117653    -1.443749210374     0.024181104889
H           -2.088566888954    -2.091924003319     0.637640114564
H           -3.124200757493    -2.044032325860    -0.788854992086
H           -3.548641889827    -1.106961307516     0.644267566317
C            2.590691666883    -1.281712867151     0.676992227992
H            2.516741403011    -0.614343064890     1.535490549700
H            3.556328955267    -1.104458746780     0.201111666926
H            2.584803317878    -2.304372522700     1.053688108347
C           -1.915823860063    -0.257279950714    -0.496797864800
H           -2.543949783380     0.358805000615    -1.145882062345
H           -1.093224524046    -0.614672997565    -1.117159012285
C            1.453865622868    -1.051657923404    -0.313562468004
H            1.556375660348    -1.758696281675    -1.140460805459
H            0.501485081105    -1.277312767244     0.168112617865
C           -1.387339965223     0.618384381418     0.636441710967
H           -0.855766144261    -0.000103997515     1.366919949469
H           -2.252118526017     1.028253526391     1.165966679557
C           -0.480904973278     1.767550231476     0.179283923907
H           -0.610895380493     2.613247808611     0.858900874022
H           -0.815828649432     2.114070885415    -0.804063732326
C            1.017766354345     1.460768591411     0.117280459305
H            1.530127643901     2.390695181391    -0.141034741566
H            1.364590421531     1.197827217481     1.120820712728
C            1.444000530903     0.372409594581    -0.876448498114
H            0.798794827461     0.424972111247    -1.757573337697
H            2.455858905713     0.589662056122    -1.231240860273
}

set globals {
  reference rhf
  g_convergence gau_verytight
  basis aug-cc-pvtz
  freeze_core true
  scf_type df
  mp_type df
}
optimize('mp2')
--------------------------------------------------------------------------
/usr/local/hpc5/psi4conda/lib/python2.7/site-packages/v2rdm_casscf/v2rdm_casscf.so loaded.

  Memory set to  60.000 GiB by Python script.
gradient() will perform analytic gradient computation.

*** tstart() called on wr39
*** at Wed Sep 21 11:21:19 2016


         ---------------------------------------------------------
                                   SCF
            by Justin Turney, Rob Parrish, and Andy Simmonett
                              RHF Reference
                       12 Threads,  60000 MiB Core
         ---------------------------------------------------------

  ==> Geometry <==

    Molecular point group: c1
    Full point group: C1

    Geometry (in Angstrom), charge = 0, multiplicity = 1:

       Center              X                  Y                   Z               Mass       
    ------------   -----------------  -----------------  -----------------  -----------------
           C         -2.716537117653    -1.443749210374     0.024181104889    12.000000000000
           H         -2.088566888954    -2.091924003319     0.637640114564     1.007825032070
           H         -3.124200757493    -2.044032325860    -0.788854992086     1.007825032070
           H         -3.548641889827    -1.106961307516     0.644267566317     1.007825032070
           C          2.590691666883    -1.281712867151     0.676992227992    12.000000000000
           H          2.516741403011    -0.614343064890     1.535490549700     1.007825032070
           H          3.556328955267    -1.104458746780     0.201111666926     1.007825032070
           H          2.584803317878    -2.304372522700     1.053688108347     1.007825032070
           C         -1.915823860063    -0.257279950714    -0.496797864800    12.000000000000
           H         -2.543949783380     0.358805000615    -1.145882062345     1.007825032070
           H         -1.093224524046    -0.614672997565    -1.117159012285     1.007825032070
           C          1.453865622868    -1.051657923404    -0.313562468004    12.000000000000
           H          1.556375660348    -1.758696281675    -1.140460805459     1.007825032070
           H          0.501485081105    -1.277312767244     0.168112617865     1.007825032070
           C         -1.387339965223     0.618384381418     0.636441710967    12.000000000000
           H         -0.855766144261    -0.000103997515     1.366919949469     1.007825032070
           H         -2.252118526017     1.028253526391     1.165966679557     1.007825032070
           C         -0.480904973278     1.767550231476     0.179283923907    12.000000000000
           H         -0.610895380493     2.613247808611     0.858900874022     1.007825032070
           H         -0.815828649432     2.114070885415    -0.804063732326     1.007825032070
           C          1.017766354345     1.460768591411     0.117280459305    12.000000000000
           H          1.530127643901     2.390695181391    -0.141034741566     1.007825032070
           H          1.364590421531     1.197827217481     1.120820712728     1.007825032070
           C          1.444000530903     0.372409594581    -0.876448498114    12.000000000000
           H          0.798794827461     0.424972111247    -1.757573337697     1.007825032070
           H          2.455858905713     0.589662056122    -1.231240860273     1.007825032070

  Running in c1 symmetry.

  Rotational constants: A =      0.07871  B =      0.03951  C =      0.03047 [cm^-1]
  Rotational constants: A =   2359.74723  B =   1184.51649  C =    913.32596 [MHz]
  Nuclear repulsion =  406.131062435633567

  Charge       = 0
  Multiplicity = 1
  Electrons    = 66
  Nalpha       = 33
  Nbeta        = 33

  ==> Algorithm <==

  SCF Algorithm Type is DF.
  DIIS enabled.
  MOM disabled.
  Fractional occupation disabled.
  Guess Type is SAD.
  Energy threshold   = 1.00e-10
  Density threshold  = 1.00e-10
  Integral threshold = 0.00e+00

  ==> Primary Basis <==

  Basis Set: AUG-CC-PVTZ
    Number of shells: 274
    Number of basis function: 782
    Number of Cartesian functions: 890
    Spherical Harmonics?: true
    Max angular momentum: 3

  ==> Pre-Iterations <==

   -------------------------------------------------------
    Irrep   Nso     Nmo     Nalpha   Nbeta   Ndocc  Nsocc
   -------------------------------------------------------
     A        782     782       0       0       0       0
   -------------------------------------------------------
    Total     782     782      33      33      33       0
   -------------------------------------------------------

  ==> Integral Setup <==

  ==> DFJK: Density-Fitted J/K Matrices <==

    J tasked:                  Yes
    K tasked:                  Yes
    wK tasked:                  No
    OpenMP threads:             12
    Integrals threads:          12
    Memory (MB):             42915
    Algorithm:                Core
    Integral Cache:           NONE
    Schwarz Cutoff:          1E-12
    Fitting Condition:       1E-12

   => Auxiliary Basis Set <=

  Basis Set: 
    Number of shells: 492
    Number of basis function: 1660
    Number of Cartesian functions: 2038
    Spherical Harmonics?: true
    Max angular momentum: 4

  Minimum eigenvalue in the overlap matrix is 1.8346274882E-06.
  Using Symmetric Orthogonalization.
  SCF Guess: Superposition of Atomic Densities via on-the-fly atomic UHF.

  ==> Iterations <==

                           Total Energy        Delta E     RMS |[F,P]|

   @DF-RHF iter   0:  -317.07474532381798   -3.17075e+02   7.06135e-03 
   @DF-RHF iter   1:  -313.31520513719386    3.75954e+00   6.57549e-04 
   @DF-RHF iter   2:  -313.50622009001313   -1.91015e-01   2.28622e-04 DIIS
   @DF-RHF iter   3:  -313.52877844748889   -2.25584e-02   9.31505e-05 DIIS
   @DF-RHF iter   4:  -313.53295743631168   -4.17899e-03   1.46876e-05 DIIS
   @DF-RHF iter   5:  -313.53309660282184   -1.39167e-04   4.44457e-06 DIIS
   @DF-RHF iter   6:  -313.53310733845603   -1.07356e-05   1.25351e-06 DIIS
   @DF-RHF iter   7:  -313.53310811766596   -7.79210e-07   2.43965e-07 DIIS
   @DF-RHF iter   8:  -313.53310815869190   -4.10259e-08   5.98628e-08 DIIS
   @DF-RHF iter   9:  -313.53310816102044   -2.32853e-09   1.89280e-08 DIIS
   @DF-RHF iter  10:  -313.53310816125918   -2.38742e-10   5.32512e-09 DIIS
   @DF-RHF iter  11:  -313.53310816127907   -1.98952e-11   1.30749e-09 DIIS
   @DF-RHF iter  12:  -313.53310816127998   -9.09495e-13   3.32846e-10 DIIS
   @DF-RHF iter  13:  -313.53310816128044   -4.54747e-13   9.81033e-11 DIIS

  ==> Post-Iterations <==

    Orbital Energies (a.u.)
    -----------------------

    Doubly Occupied:                                                      

       1A    -11.212385     2A    -11.211420     3A    -11.211246  
       4A    -11.210987     5A    -11.210458     6A    -11.210237  
       7A    -11.207247     8A    -11.206921     9A     -1.093486  
      10A     -1.056574    11A     -1.010708    12A     -0.946787  
      13A     -0.889222    14A     -0.825262    15A     -0.788536  
      16A     -0.761022    17A     -0.649359    18A     -0.622472  
      19A     -0.612015    20A     -0.585078    21A     -0.581201  
      22A     -0.568339    23A     -0.537162    24A     -0.535397  
      25A     -0.522320    26A     -0.498900    27A     -0.489872  
      28A     -0.470094    29A     -0.468993    30A     -0.459783  
      31A     -0.449877    32A     -0.433864    33A     -0.431476  

    Virtual:                                                              

      34A      0.028164    35A      0.032895    36A      0.033977  
      37A      0.034874    38A      0.047607    39A      0.048998  
      40A      0.050384    41A      0.053045    42A      0.055074  
      43A      0.069322    44A      0.070748    45A      0.071974  
      46A      0.075621    47A      0.076872    48A      0.079184  
      49A      0.086650    50A      0.096768    51A      0.100909  
      52A      0.115225    53A      0.116076    54A      0.121668  
      55A      0.127990    56A      0.130259    57A      0.134620  
      58A      0.135550    59A      0.138335    60A      0.139699  
      61A      0.142745    62A      0.147047    63A      0.147854  
      64A      0.152888    65A      0.156665    66A      0.160602  
      67A      0.165796    68A      0.171540    69A      0.174004  
      70A      0.177903    71A      0.180462    72A      0.184763  
      73A      0.186337    74A      0.189231    75A      0.195330  
      76A      0.199449    77A      0.208602    78A      0.220092  
      79A      0.232400    80A      0.233167    81A      0.236319  
      82A      0.245811    83A      0.252144    84A      0.255208  
      85A      0.263735    86A      0.275797    87A      0.281429  
      88A      0.288495    89A      0.291334    90A      0.295742  
      91A      0.297613    92A      0.306672    93A      0.311525  
      94A      0.317403    95A      0.318552    96A      0.320947  
      97A      0.326193    98A      0.328428    99A      0.335244  
     100A      0.338689   101A      0.345284   102A      0.350076  
     103A      0.353271   104A      0.357210   105A      0.361813  
     106A      0.362629   107A      0.364178   108A      0.365593  
     109A      0.372769   110A      0.374251   111A      0.378143  
     112A      0.379670   113A      0.387315   114A      0.390328  
     115A      0.392361   116A      0.394385   117A      0.402885  
     118A      0.404651   119A      0.411551   120A      0.417057  
     121A      0.420211   122A      0.420902   123A      0.424392  
     124A      0.431660   125A      0.434736   126A      0.437995  
     127A      0.439961   128A      0.448957   129A      0.451805  
     130A      0.456669   131A      0.459027   132A      0.463395  
     133A      0.465476   134A      0.469573   135A      0.474081  
     136A      0.478449   137A      0.481043   138A      0.490149  
     139A      0.493145   140A      0.496381   141A      0.501281  
     142A      0.505682   143A      0.506348   144A      0.508625  
     145A      0.514849   146A      0.516478   147A      0.527727  
     148A      0.529939   149A      0.534790   150A      0.537138  
     151A      0.542178   152A      0.544761   153A      0.545115  
     154A      0.548678   155A      0.549931   156A      0.552474  
     157A      0.560753   158A      0.564172   159A      0.569012  
     160A      0.577680   161A      0.581818   162A      0.583868  
     163A      0.593782   164A      0.599643   165A      0.602151  
     166A      0.602611   167A      0.609062   168A      0.617213  
     169A      0.621799   170A      0.626492   171A      0.629705  
     172A      0.633356   173A      0.645827   174A      0.646499  
     175A      0.653338   176A      0.658095   177A      0.661448  
     178A      0.665242   179A      0.669907   180A      0.671949  
     181A      0.680944   182A      0.684840   183A      0.687531  
     184A      0.690268   185A      0.692204   186A      0.703723  
     187A      0.705990   188A      0.720954   189A      0.722993  
     190A      0.729553   191A      0.731088   192A      0.734820  
     193A      0.742712   194A      0.746957   195A      0.754452  
     196A      0.757989   197A      0.770618   198A      0.774504  
     199A      0.782137   200A      0.796829   201A      0.803353  
     202A      0.808006   203A      0.820665   204A      0.826251  
     205A      0.831681   206A      0.844600   207A      0.848224  
     208A      0.858719   209A      0.861341   210A      0.869047  
     211A      0.871302   212A      0.877215   213A      0.880956  
     214A      0.883665   215A      0.894267   216A      0.895649  
     217A      0.897846   218A      0.907391   219A      0.913138  
     220A      0.916941   221A      0.923419   222A      0.926730  
     223A      0.934406   224A      0.942265   225A      0.942818  
     226A      0.946424   227A      0.950273   228A      0.954622  
     229A      0.959838   230A      0.964454   231A      0.968409  
     232A      0.973105   233A      0.985767   234A      0.991501  
     235A      0.993868   236A      0.996460   237A      1.000936  
     238A      1.006201   239A      1.009969   240A      1.014339  
     241A      1.022664   242A      1.028796   243A      1.030295  
     244A      1.039622   245A      1.046554   246A      1.050000  
     247A      1.051558   248A      1.057154   249A      1.069752  
     250A      1.072090   251A      1.073620   252A      1.086032  
     253A      1.090992   254A      1.097166   255A      1.100052  
     256A      1.111163   257A      1.112815   258A      1.114732  
     259A      1.119620   260A      1.128709   261A      1.134982  
     262A      1.138233   263A      1.145532   264A      1.152669  
     265A      1.157985   266A      1.158957   267A      1.166287  
     268A      1.175549   269A      1.180333   270A      1.183140  
     271A      1.186789   272A      1.188513   273A      1.198680  
     274A      1.204987   275A      1.208101   276A      1.212214  
     277A      1.220441   278A      1.225587   279A      1.234563  
     280A      1.236442   281A      1.243523   282A      1.245465  
     283A      1.252114   284A      1.254491   285A      1.263386  
     286A      1.266573   287A      1.272581   288A      1.279680  
     289A      1.280299   290A      1.292464   291A      1.297893  
     292A      1.307911   293A      1.308970   294A      1.313640  
     295A      1.321994   296A      1.324395   297A      1.327887  
     298A      1.338576   299A      1.351290   300A      1.356292  
     301A      1.357854   302A      1.367857   303A      1.372361  
     304A      1.385504   305A      1.389422   306A      1.392628  
     307A      1.400852   308A      1.405536   309A      1.410621  
     310A      1.411886   311A      1.420172   312A      1.429193  
     313A      1.432320   314A      1.438170   315A      1.444159  
     316A      1.448248   317A      1.450384   318A      1.463092  
     319A      1.479047   320A      1.488529   321A      1.493800  
     322A      1.496673   323A      1.505645   324A      1.514468  
     325A      1.519454   326A      1.529269   327A      1.534947  
     328A      1.545856   329A      1.552060   330A      1.556481  
     331A      1.562464   332A      1.575403   333A      1.586532  
     334A      1.590766   335A      1.596504   336A      1.607947  
     337A      1.619733   338A      1.625251   339A      1.631512  
     340A      1.636150   341A      1.647061   342A      1.650567  
     343A      1.656741   344A      1.666679   345A      1.683210  
     346A      1.685326   347A      1.692878   348A      1.694873  
     349A      1.700135   350A      1.702157   351A      1.708032  
     352A      1.716051   353A      1.717189   354A      1.723245  
     355A      1.725241   356A      1.734968   357A      1.742316  
     358A      1.750191   359A      1.757519   360A      1.768611  
     361A      1.770803   362A      1.775135   363A      1.777302  
     364A      1.784238   365A      1.787507   366A      1.793702  
     367A      1.798278   368A      1.801785   369A      1.813173  
     370A      1.818053   371A      1.825887   372A      1.831554  
     373A      1.835519   374A      1.846135   375A      1.849866  
     376A      1.860855   377A      1.865480   378A      1.867701  
     379A      1.874720   380A      1.878894   381A      1.888107  
     382A      1.895844   383A      1.899599   384A      1.902725  
     385A      1.915021   386A      1.920316   387A      1.924337  
     388A      1.930057   389A      1.939477   390A      1.945936  
     391A      1.952935   392A      1.963606   393A      1.965400  
     394A      1.973293   395A      1.979456   396A      1.990357  
     397A      1.993958   398A      2.010341   399A      2.018180  
     400A      2.021134   401A      2.025041   402A      2.027216  
     403A      2.032773   404A      2.036751   405A      2.052018  
     406A      2.059772   407A      2.068361   408A      2.071924  
     409A      2.079795   410A      2.087274   411A      2.099174  
     412A      2.103813   413A      2.106316   414A      2.125499  
     415A      2.126948   416A      2.135799   417A      2.138810  
     418A      2.142717   419A      2.145797   420A      2.164616  
     421A      2.176782   422A      2.183972   423A      2.194522  
     424A      2.205577   425A      2.220563   426A      2.221520  
     427A      2.228008   428A      2.233503   429A      2.242630  
     430A      2.248843   431A      2.263320   432A      2.268571  
     433A      2.274609   434A      2.284397   435A      2.290047  
     436A      2.299815   437A      2.301068   438A      2.309663  
     439A      2.321759   440A      2.323402   441A      2.334747  
     442A      2.342316   443A      2.361355   444A      2.368178  
     445A      2.375047   446A      2.379450   447A      2.388960  
     448A      2.395572   449A      2.413093   450A      2.420942  
     451A      2.429746   452A      2.444494   453A      2.449872  
     454A      2.467723   455A      2.472875   456A      2.479366  
     457A      2.480368   458A      2.493785   459A      2.504090  
     460A      2.514269   461A      2.520886   462A      2.530114  
     463A      2.541806   464A      2.560973   465A      2.577753  
     466A      2.585329   467A      2.591946   468A      2.602156  
     469A      2.614586   470A      2.623685   471A      2.642051  
     472A      2.654080   473A      2.667588   474A      2.679876  
     475A      2.689824   476A      2.706425   477A      2.714932  
     478A      2.730612   479A      2.747697   480A      2.755406  
     481A      2.768386   482A      2.807289   483A      2.815966  
     484A      2.850064   485A      2.964409   486A      3.015150  
     487A      3.031530   488A      3.059619   489A      3.090836  
     490A      3.149776   491A      3.209592   492A      3.243611  
     493A      3.303280   494A      3.332771   495A      3.352676  
     496A      3.440307   497A      3.453304   498A      3.463641  
     499A      3.484916   500A      3.492310   501A      3.501455  
     502A      3.515273   503A      3.518483   504A      3.525676  
     505A      3.558065   506A      3.572718   507A      3.584143  
     508A      3.596954   509A      3.601206   510A      3.608441  
     511A      3.627180   512A      3.634119   513A      3.639224  
     514A      3.659328   515A      3.674243   516A      3.679500  
     517A      3.690002   518A      3.699072   519A      3.705407  
     520A      3.713111   521A      3.726729   522A      3.736620  
     523A      3.738022   524A      3.745056   525A      3.752416  
     526A      3.761640   527A      3.766696   528A      3.775073  
     529A      3.782299   530A      3.796431   531A      3.798741  
     532A      3.806308   533A      3.819966   534A      3.832215  
     535A      3.847070   536A      3.856244   537A      3.864957  
     538A      3.873921   539A      3.884908   540A      3.891555  
     541A      3.898780   542A      3.906417   543A      3.914961  
     544A      3.925127   545A      3.932408   546A      3.941298  
     547A      3.943212   548A      3.945942   549A      3.950286  
     550A      3.959677   551A      3.976396   552A      3.981289  
     553A      3.989525   554A      3.997932   555A      4.002988  
     556A      4.004969   557A      4.011591   558A      4.022036  
     559A      4.022240   560A      4.032990   561A      4.034209  
     562A      4.045732   563A      4.047927   564A      4.060070  
     565A      4.072535   566A      4.084815   567A      4.092094  
     568A      4.099585   569A      4.105249   570A      4.113415  
     571A      4.129848   572A      4.133220   573A      4.144113  
     574A      4.151829   575A      4.163642   576A      4.174059  
     577A      4.185470   578A      4.199635   579A      4.203780  
     580A      4.206713   581A      4.210067   582A      4.212460  
     583A      4.229560   584A      4.248044   585A      4.255169  
     586A      4.266090   587A      4.277820   588A      4.287264  
     589A      4.289490   590A      4.293543   591A      4.308565  
     592A      4.313010   593A      4.323042   594A      4.323841  
     595A      4.334169   596A      4.336816   597A      4.353752  
     598A      4.361752   599A      4.367262   600A      4.379114  
     601A      4.391383   602A      4.403017   603A      4.409341  
     604A      4.419622   605A      4.421307   606A      4.436993  
     607A      4.464494   608A      4.472536   609A      4.480463  
     610A      4.491784   611A      4.505665   612A      4.515681  
     613A      4.538886   614A      4.552649   615A      4.561562  
     616A      4.578854   617A      4.591517   618A      4.601726  
     619A      4.606647   620A      4.630671   621A      4.637105  
     622A      4.658669   623A      4.667901   624A      4.687163  
     625A      4.693090   626A      4.706447   627A      4.713618  
     628A      4.723659   629A      4.734605   630A      4.736404  
     631A      4.759237   632A      4.769029   633A      4.778470  
     634A      4.789533   635A      4.798892   636A      4.815067  
     637A      4.827456   638A      4.832847   639A      4.844811  
     640A      4.850521   641A      4.871640   642A      4.878554  
     643A      4.882149   644A      4.897063   645A      4.904436  
     646A      4.913977   647A      4.916046   648A      4.922919  
     649A      4.932428   650A      4.944294   651A      4.957233  
     652A      4.968193   653A      4.981082   654A      4.998399  
     655A      5.006411   656A      5.016522   657A      5.041224  
     658A      5.055472   659A      5.064150   660A      5.064853  
     661A      5.095032   662A      5.104329   663A      5.110544  
     664A      5.116782   665A      5.130855   666A      5.158141  
     667A      5.167901   668A      5.178090   669A      5.190136  
     670A      5.207204   671A      5.217148   672A      5.219870  
     673A      5.236720   674A      5.247234   675A      5.257636  
     676A      5.262788   677A      5.269830   678A      5.274219  
     679A      5.296525   680A      5.296973   681A      5.305833  
     682A      5.324230   683A      5.333253   684A      5.337181  
     685A      5.353239   686A      5.357422   687A      5.371626  
     688A      5.389295   689A      5.398474   690A      5.413967  
     691A      5.422698   692A      5.439199   693A      5.445531  
     694A      5.451963   695A      5.468373   696A      5.475798  
     697A      5.492140   698A      5.493939   699A      5.509049  
     700A      5.524060   701A      5.526920   702A      5.531271  
     703A      5.555544   704A      5.571542   705A      5.578035  
     706A      5.593987   707A      5.606737   708A      5.613508  
     709A      5.634175   710A      5.644648   711A      5.671795  
     712A      5.684050   713A      5.687566   714A      5.706748  
     715A      5.714785   716A      5.724456   717A      5.733746  
     718A      5.748210   719A      5.757672   720A      5.769601  
     721A      5.788351   722A      5.788606   723A      5.798230  
     724A      5.810515   725A      5.820437   726A      5.832664  
     727A      5.856231   728A      5.870983   729A      5.884868  
     730A      5.911806   731A      5.929642   732A      5.959613  
     733A      5.985180   734A      6.027364   735A      6.037341  
     736A      6.063284   737A      6.067660   738A      6.091493  
     739A      6.099611   740A      6.101782   741A      6.158286  
     742A      6.170359   743A      6.210085   744A      6.231165  
     745A      6.247366   746A      6.254277   747A      6.278385  
     748A      6.303425   749A      6.307581   750A      6.325236  
     751A      6.336460   752A      6.339955   753A      6.364906  
     754A      6.388896   755A      6.395696   756A      6.426193  
     757A      6.456818   758A      6.476263   759A      6.602769  
     760A      6.628178   761A      6.695498   762A      6.731492  
     763A      6.785189   764A      6.795813   765A      6.847063  
     766A      6.862652   767A      6.894711   768A      6.907925  
     769A      6.972435   770A      7.015533   771A      7.084623  
     772A      7.105102   773A      7.143547   774A      7.156276  
     775A     18.145947   776A     18.396386   777A     18.516805  
     778A     18.632304   779A     18.747186   780A     19.352922  
     781A     19.747961   782A     19.824680  

    Final Occupation by Irrep:
              A 
    DOCC [    33 ]

  Energy converged.

  @DF-RHF Final Energy:  -313.53310816128044

   => Energetics <=

    Nuclear Repulsion Energy =            406.1310624356335666
    One-Electron Energy =               -1227.3909442641856913
    Two-Electron Energy =                 507.7267736672716865
    DFT Exchange-Correlation Energy =       0.0000000000000000
    Empirical Dispersion Energy =           0.0000000000000000
    PCM Polarization Energy =               0.0000000000000000
    EFP Energy =                            0.0000000000000000
    Total Energy =                       -313.5331081612804383


  Saving occupied orbitals to File 180.

*** tstop() called on wr39 at Wed Sep 21 11:22:35 2016
Module time:
	user time   =     749.52 seconds =      12.49 minutes
	system time =      10.43 seconds =       0.17 minutes
	total time  =         76 seconds =       1.27 minutes
Total time:
	user time   =     749.52 seconds =      12.49 minutes
	system time =      10.43 seconds =       0.17 minutes
	total time  =         76 seconds =       1.27 minutes


Properties will be evaluated at   0.000000,   0.000000,   0.000000 Bohr

Properties computed using the SCF density matrix

  Nuclear Dipole Moment: (a.u.)
     X:    -0.0638      Y:    -2.0618      Z:     0.5875

  Electronic Dipole Moment: (a.u.)
     X:     0.0602      Y:     2.0932      Z:    -0.6165

  Dipole Moment: (a.u.)
     X:    -0.0037      Y:     0.0314      Z:    -0.0291     Total:     0.0429

  Dipole Moment: (Debye)
     X:    -0.0093      Y:     0.0798      Z:    -0.0739     Total:     0.1091


  //>>>>>>>>>>>>>>>>>>>>>>>>>>>>>>>>>>>//
  //               DFMP2               //
  //<<<<<<<<<<<<<<<<<<<<<<<<<<<<<<<<<<<//


*** tstart() called on wr39
*** at Wed Sep 21 11:22:35 2016


*** tstop() called on wr39 at Wed Sep 21 11:22:35 2016
Module time:
	user time   =       3.31 seconds =       0.06 minutes
	system time =       0.12 seconds =       0.00 minutes
	total time  =          0 seconds =       0.00 minutes
Total time:
	user time   =     752.95 seconds =      12.55 minutes
	system time =      10.56 seconds =       0.18 minutes
	total time  =         76 seconds =       1.27 minutes
	 --------------------------------------------------------
	                          DF-MP2                         
	      2nd-Order Density-Fitted Moller-Plesset Theory     
	              RMP2 Wavefunction,  12 Threads             
	                                                         
	        Rob Parrish, Justin Turney, Andy Simmonett,      
	           Ed Hohenstein, and C. David Sherrill          
	 --------------------------------------------------------

   => Auxiliary Basis Set <=

  Basis Set: 
    Number of shells: 476
    Number of basis function: 1676
    Number of Cartesian functions: 2078
    Spherical Harmonics?: true
    Max angular momentum: 4

	 --------------------------------------------------------
	                 NBF =   782, NAUX =  1676
	 --------------------------------------------------------
	   CLASS    FOCC     OCC    AOCC    AVIR     VIR    FVIR
	   PAIRS       8      33      25     749     749       0
	 --------------------------------------------------------

DGAS Warning! /src/lib/libfock/apps.cc:80 is not currently checking restricted

         ------------------------------------------------------------
                                     CPHF                           
                                  Rob Parrish                       
         ------------------------------------------------------------

  ==> Geometry <==

    Molecular point group: c1
    Full point group: C1

    Geometry (in Angstrom), charge = 0, multiplicity = 1:

       Center              X                  Y                   Z               Mass       
    ------------   -----------------  -----------------  -----------------  -----------------
           C         -2.716537117653    -1.443749210374     0.024181104889    12.000000000000
           H         -2.088566888954    -2.091924003319     0.637640114564     1.007825032070
           H         -3.124200757493    -2.044032325860    -0.788854992086     1.007825032070
           H         -3.548641889827    -1.106961307516     0.644267566317     1.007825032070
           C          2.590691666883    -1.281712867151     0.676992227992    12.000000000000
           H          2.516741403011    -0.614343064890     1.535490549700     1.007825032070
           H          3.556328955267    -1.104458746780     0.201111666926     1.007825032070
           H          2.584803317878    -2.304372522700     1.053688108347     1.007825032070
           C         -1.915823860063    -0.257279950714    -0.496797864800    12.000000000000
           H         -2.543949783380     0.358805000615    -1.145882062345     1.007825032070
           H         -1.093224524046    -0.614672997565    -1.117159012285     1.007825032070
           C          1.453865622868    -1.051657923404    -0.313562468004    12.000000000000
           H          1.556375660348    -1.758696281675    -1.140460805459     1.007825032070
           H          0.501485081105    -1.277312767244     0.168112617865     1.007825032070
           C         -1.387339965223     0.618384381418     0.636441710967    12.000000000000
           H         -0.855766144261    -0.000103997515     1.366919949469     1.007825032070
           H         -2.252118526017     1.028253526391     1.165966679557     1.007825032070
           C         -0.480904973278     1.767550231476     0.179283923907    12.000000000000
           H         -0.610895380493     2.613247808611     0.858900874022     1.007825032070
           H         -0.815828649432     2.114070885415    -0.804063732326     1.007825032070
           C          1.017766354345     1.460768591411     0.117280459305    12.000000000000
           H          1.530127643901     2.390695181391    -0.141034741566     1.007825032070
           H          1.364590421531     1.197827217481     1.120820712728     1.007825032070
           C          1.444000530903     0.372409594581    -0.876448498114    12.000000000000
           H          0.798794827461     0.424972111247    -1.757573337697     1.007825032070
           H          2.455858905713     0.589662056122    -1.231240860273     1.007825032070

  Nuclear repulsion =  406.131062435633567
  Reference energy  = -313.533108161280438

  ==> Basis Set <==

  Basis Set: AUG-CC-PVTZ
    Number of shells: 274
    Number of basis function: 782
    Number of Cartesian functions: 890
    Spherical Harmonics?: true
    Max angular momentum: 3

  ==> CGRSolver (by Rob Parrish) <==

   Number of roots    =         1
   Preconditioning    =    JACOBI
   Convergence cutoff =     1E-06
   Maximum iterations =       100

  ==> CPHFRHamiltonian (by Rob Parrish) <== 

  ==> DFJK: Density-Fitted J/K Matrices <==

    J tasked:                  Yes
    K tasked:                  Yes
    wK tasked:                  No
    OpenMP threads:             12
    Integrals threads:          12
    Memory (MB):             42915
    Algorithm:                Core
    Integral Cache:           NONE
    Schwarz Cutoff:          1E-12
    Fitting Condition:       1E-12

   => Auxiliary Basis Set <=

  Basis Set: 
    Number of shells: 492
    Number of basis function: 1660
    Number of Cartesian functions: 2038
    Spherical Harmonics?: true
    Max angular momentum: 4

  ==> CPHF Iterations <==

  => Iterations <=

             Iter  Converged  Remaining    Residual
  CGR           1          0          1   9.276E-02
  CGR           2          0          1   1.378E-02
  CGR           3          0          1   4.308E-03
  CGR           4          0          1   9.064E-04
  CGR           5          0          1   2.182E-04
  CGR           6          0          1   4.866E-05
  CGR           7          0          1   1.348E-05
  CGR           8          0          1   3.447E-06
  CGR           9          1          0   9.588E-07

    CGRSolver converged.

  ==> DFCorrGrad: Density-Fitted Correlated Gradients <==

    OpenMP threads:             12
    Integrals threads:          12
    Memory (MB):             42915
    Schwarz Cutoff:          0E+00
    Fitting Condition:       1E-12

   => Auxiliary Basis Set <=

  Basis Set: 
    Number of shells: 492
    Number of basis function: 1660
    Number of Cartesian functions: 2038
    Spherical Harmonics?: true
    Max angular momentum: 4

	-----------------------------------------------------------
	 ==================> DF-MP2 Energies <==================== 
	-----------------------------------------------------------
	 Reference Energy          =    -313.5331081612804383 [Eh]
	 Singles Energy            =      -0.0000000000000004 [Eh]
	 Same-Spin Energy          =      -0.3175316714753789 [Eh]
	 Opposite-Spin Energy      =      -1.1273842737179769 [Eh]
	 Correlation Energy        =      -1.4449159451933562 [Eh]
	 Total Energy              =    -314.9780241064738107 [Eh]
	-----------------------------------------------------------
	 ================> DF-SCS-MP2 Energies <================== 
	-----------------------------------------------------------
	 SCS Same-Spin Scale       =       0.3333333333333333 [-]
	 SCS Opposite-Spin Scale   =       1.2000000000000000 [-]
	 SCS Same-Spin Energy      =      -0.1058438904917929 [Eh]
	 SCS Opposite-Spin Energy  =      -1.3528611284615721 [Eh]
	 SCS Correlation Energy    =      -1.4587050189533655 [Eh]
	 SCS Total Energy          =    -314.9918131802338053 [Eh]
	-----------------------------------------------------------


  -Total Gradient:
     Atom            X                  Y                   Z
    ------   -----------------  -----------------  -----------------
       1       -0.000000047754     0.000000280294    -0.000000114749
       2        0.000000143642    -0.000000192504     0.000000207890
       3       -0.000000097189    -0.000000160782    -0.000000202596
       4       -0.000000214721     0.000000049448     0.000000160118
       5       -0.000000461242     0.000000158420    -0.000000126022
       6        0.000000035889     0.000000298724     0.000000398217
       7        0.000000497139     0.000000024486    -0.000000231017
       8       -0.000000013053    -0.000000536136     0.000000195179
       9        0.000000216691    -0.000000191541     0.000000322948
      10       -0.000000160509     0.000000073319    -0.000000035630
      11        0.000000204012    -0.000000082533    -0.000000257439
      12        0.000000750741     0.000000330511    -0.000000093124
      13        0.000000127298    -0.000000427881    -0.000000509622
      14       -0.000000637206    -0.000000139333     0.000000355971
      15        0.000000051984     0.000000348527    -0.000000327110
      16        0.000000184943    -0.000000094169     0.000000078592
      17       -0.000000090478     0.000000129863     0.000000034604
      18        0.000000019104    -0.000000257006     0.000000061941
      19       -0.000000079018    -0.000000208131    -0.000000163260
      20        0.000000097249    -0.000000111617     0.000000316517
      21       -0.000000126767     0.000000721084     0.000000050572
      22        0.000000036189    -0.000000226344     0.000000079338
      23       -0.000000083510     0.000000105280    -0.000000195541
      24       -0.000000380051     0.000000008362     0.000000306489
      25       -0.000000200830     0.000000209407    -0.000000299587
      26        0.000000227446    -0.000000109752    -0.000000012678


			-----------------------------------------
			 OPTKING 2.0: for geometry optimizations 
			  - R.A. King,  Bethel University        
			-----------------------------------------

	Internal coordinates to be generated automatically.
	Detected frag 1 with atoms:  1 2 3 4 5 6 7 8 9 10 11 12 13 14 15 16 17 18 19 20
	 21 22 23 24 25 26
	---Fragment 1 Bond Connectivity---
	 1 : 2 3 4 9
	 2 : 1
	 3 : 1
	 4 : 1
	 5 : 6 7 8 12
	 6 : 5
	 7 : 5
	 8 : 5
	 9 : 1 10 11 15
	 10 : 9
	 11 : 9
	 12 : 5 13 14 24
	 13 : 12
	 14 : 12
	 15 : 9 16 17 18
	 16 : 15
	 17 : 15
	 18 : 15 19 20 21
	 19 : 18
	 20 : 18
	 21 : 18 22 23 24
	 22 : 21
	 23 : 21
	 24 : 12 21 25 26
	 25 : 24
	 26 : 24

	---Fragment 1 Geometry and Gradient---
	 C          -5.1335111822       -2.7282906122        0.0456956658
	 H          -3.9468194303       -3.9531634571        1.2049651879
	 H          -5.9038838158       -3.8626613026       -1.4907198936
	 H          -6.7059613155       -2.0918537109        1.2174892566
	 C           4.8956977452       -2.4220862999        1.2793299050
	 H           4.7559519990       -1.1609401443        2.9016566186
	 H           6.7204877639       -2.0871245565        0.3800459726
	 H           4.8845703782       -4.3546329760        1.9911819543
	 C          -3.6203824144       -0.4861886463       -0.9388119079
	 H          -4.8073683864        0.6780431863       -2.1654032784
	 H          -2.0658949522       -1.1615636267       -2.1111245801
	 C           2.7474078612       -1.9873454607       -0.5925471901
	 H           2.9411237579       -3.3234543233       -2.1551585876
	 H           0.9476694630       -2.4137713161        0.3176868072
	 C          -2.6216925875        1.1685771257        1.2027005333
	 H          -1.6171636464       -0.0001965268        2.5831043501
	 H          -4.2558872330        1.9431175601        2.2033577044
	 C          -0.9087786954        3.3401858636        0.3387975162
	 H          -1.1544249650        4.9383226756        1.6230874272
	 H          -1.5416927188        3.9950149989       -1.5194602475
	 C           1.9232996770        2.7604525813        0.2216279488
	 H           2.8915221953        4.5177591600       -0.2665170368
	 H           2.5787021803        2.2635653956        2.1180441911
	 C           2.7287655391        0.7037521430       -1.6562476310
	 H           1.5095034603        0.8030809044       -3.3213322667
	 H           4.6409007528        1.1142997970       -2.3267080295
	            -0.0000000478        0.0000002803       -0.0000001147
	             0.0000001436       -0.0000001925        0.0000002079
	            -0.0000000972       -0.0000001608       -0.0000002026
	            -0.0000002147        0.0000000494        0.0000001601
	            -0.0000004612        0.0000001584       -0.0000001260
	             0.0000000359        0.0000002987        0.0000003982
	             0.0000004971        0.0000000245       -0.0000002310
	            -0.0000000131       -0.0000005361        0.0000001952
	             0.0000002167       -0.0000001915        0.0000003229
	            -0.0000001605        0.0000000733       -0.0000000356
	             0.0000002040       -0.0000000825       -0.0000002574
	             0.0000007507        0.0000003305       -0.0000000931
	             0.0000001273       -0.0000004279       -0.0000005096
	            -0.0000006372       -0.0000001393        0.0000003560
	             0.0000000520        0.0000003485       -0.0000003271
	             0.0000001849       -0.0000000942        0.0000000786
	            -0.0000000905        0.0000001299        0.0000000346
	             0.0000000191       -0.0000002570        0.0000000619
	            -0.0000000790       -0.0000002081       -0.0000001633
	             0.0000000972       -0.0000001116        0.0000003165
	            -0.0000001268        0.0000007211        0.0000000506
	             0.0000000362       -0.0000002263        0.0000000793
	            -0.0000000835        0.0000001053       -0.0000001955
	            -0.0000003801        0.0000000084        0.0000003065
	            -0.0000002008        0.0000002094       -0.0000002996
	             0.0000002274       -0.0000001098       -0.0000000127

	Previous optimization step data not found.  Starting new optimization.

	---Fragment 1 Intrafragment Coordinates---
	 - Coordinate -           - BOHR/RAD -       - ANG/DEG -
	 R(1,2)           =         2.062149	       1.091242
	 R(1,3)           =         2.059331	       1.089751
	 R(1,4)           =         2.061735	       1.091023
	 R(1,9)           =         2.878513	       1.523243
	 R(5,6)           =         2.059603	       1.089895
	 R(5,7)           =         2.061739	       1.091026
	 R(5,8)           =         2.059513	       1.089847
	 R(5,12)          =         2.882373	       1.525286
	 R(9,10)          =         2.066131	       1.093350
	 R(9,11)          =         2.060796	       1.090526
	 R(9,15)          =         2.884737	       1.526537
	 R(12,13)         =         2.065059	       1.092782
	 R(12,14)         =         2.061413	       1.090853
	 R(12,24)         =         2.893754	       1.531309
	 R(15,16)         =         2.068967	       1.094850
	 R(15,17)         =         2.066838	       1.093724
	 R(15,18)         =         2.897635	       1.533362
	 R(18,19)         =         2.064893	       1.092694
	 R(18,20)         =         2.069421	       1.095090
	 R(18,21)         =         2.893179	       1.531005
	 R(21,22)         =         2.064913	       1.092705
	 R(21,23)         =         2.067086	       1.093855
	 R(21,24)         =         2.899174	       1.534177
	 R(24,25)         =         2.066149	       1.093359
	 R(24,26)         =         2.067445	       1.094045
	 B(1,9,10)        =         1.917667	     109.874227
	 B(1,9,11)        =         1.913261	     109.621769
	 B(1,9,15)        =         1.955071	     112.017301
	 B(2,1,3)         =         1.883364	     107.908790
	 B(2,1,4)         =         1.878366	     107.622428
	 B(2,1,9)         =         1.930960	     110.635867
	 B(3,1,4)         =         1.884689	     107.984705
	 B(3,1,9)         =         1.950377	     111.748345
	 B(4,1,9)         =         1.933561	     110.784909
	 B(5,12,13)       =         1.900655	     108.899532
	 B(5,12,14)       =         1.910016	     109.435857
	 B(5,12,24)       =         1.964687	     112.568271
	 B(6,5,7)         =         1.879835	     107.706633
	 B(6,5,8)         =         1.877536	     107.574866
	 B(6,5,12)        =         1.948317	     111.630347
	 B(7,5,8)         =         1.883879	     107.938292
	 B(7,5,12)        =         1.930391	     110.603270
	 B(8,5,12)        =         1.941176	     111.221177
	 B(9,15,16)       =         1.917010	     109.836593
	 B(9,15,17)       =         1.876168	     107.496532
	 B(9,15,18)       =         1.996789	     114.407604
	 B(10,9,11)       =         1.854907	     106.278349
	 B(10,9,15)       =         1.892700	     108.443721
	 B(11,9,15)       =         1.927463	     110.435468
	 B(12,24,21)      =         2.008016	     115.050846
	 B(12,24,25)      =         1.922760	     110.166016
	 B(12,24,26)      =         1.873307	     107.332588
	 B(13,12,14)      =         1.856863	     106.390437
	 B(13,12,24)      =         1.900912	     108.914226
	 B(14,12,24)      =         1.927364	     110.429813
	 B(15,18,19)      =         1.901045	     108.921843
	 B(15,18,20)      =         1.900825	     108.909222
	 B(15,18,21)      =         2.027018	     116.139579
	 B(16,15,17)      =         1.846854	     105.816948
	 B(16,15,18)      =         1.912688	     109.588974
	 B(17,15,18)      =         1.908047	     109.323064
	 B(18,21,22)      =         1.873430	     107.339604
	 B(18,21,23)      =         1.897985	     108.746543
	 B(18,21,24)      =         2.026775	     116.125675
	 B(19,18,20)      =         1.851687	     106.093855
	 B(19,18,21)      =         1.872057	     107.260960
	 B(20,18,21)      =         1.903312	     109.051761
	 B(21,24,25)      =         1.900690	     108.901538
	 B(21,24,26)      =         1.903011	     109.034482
	 B(22,21,23)      =         1.847081	     105.829933
	 B(22,21,24)      =         1.896881	     108.683271
	 B(23,21,24)      =         1.913071	     109.610894
	 B(25,24,26)      =         1.849274	     105.955567
	 D(1,9,15,16)     =         0.902757	      51.724137
	 D(1,9,15,17)     =        -1.098767	     -62.954721
	 D(1,9,15,18)     =         3.062032	     175.441516
	 D(2,1,9,10)      =         3.097043	     177.447497
	 D(2,1,9,11)      =         1.064732	      61.004625
	 D(2,1,9,15)      =        -1.081265	     -61.951921
	 D(3,1,9,10)      =         0.998026	      57.182678
	 D(3,1,9,11)      =        -1.034286	     -59.260194
	 D(3,1,9,15)      =         3.102903	     177.783260
	 D(4,1,9,10)      =        -1.104451	     -63.280405
	 D(4,1,9,11)      =        -3.136763	    -179.723277
	 D(4,1,9,15)      =         1.000426	      57.320177
	 D(5,12,24,21)    =        -1.243319	     -71.236905
	 D(5,12,24,25)    =         2.883611	     165.218748
	 D(5,12,24,26)    =         0.877837	      50.296349
	 D(6,5,12,13)     =        -3.116217	    -178.546102
	 D(6,5,12,14)     =        -1.093058	     -62.627598
	 D(6,5,12,24)     =         1.057113	      60.568125
	 D(7,5,12,13)     =         1.074171	      61.545446
	 D(7,5,12,14)     =         3.097330	     177.463950
	 D(7,5,12,24)     =        -1.035684	     -59.340327
	 D(8,5,12,13)     =        -1.019013	     -58.385150
	 D(8,5,12,14)     =         1.004146	      57.533354
	 D(8,5,12,24)     =        -3.128868	    -179.270923
	 D(9,15,18,19)    =         2.583030	     147.996712
	 D(9,15,18,20)    =         0.570847	      32.707127
	 D(9,15,18,21)    =        -1.585266	     -90.829062
	 D(10,9,15,16)    =         3.022063	     173.151450
	 D(10,9,15,17)    =         1.020539	      58.472592
	 D(10,9,15,18)    =        -1.101847	     -63.131172
	 D(11,9,15,16)    =        -1.235184	     -70.770822
	 D(11,9,15,17)    =         3.046478	     174.550319
	 D(11,9,15,18)    =         0.924092	      52.946556
	 D(12,24,21,18)   =        -1.560119	     -89.388223
	 D(12,24,21,22)   =         2.609787	     149.529774
	 D(12,24,21,23)   =         0.598732	      34.304816
	 D(13,12,24,21)   =         2.930159	     167.885738
	 D(13,12,24,25)   =         0.773903	      44.341391
	 D(13,12,24,26)   =        -1.231871	     -70.581008
	 D(14,12,24,21)   =         0.897134	      51.402005
	 D(14,12,24,25)   =        -1.259121	     -72.142343
	 D(14,12,24,26)   =         3.018290	     172.935259
	 D(15,18,21,22)   =        -3.061207	    -175.394269
	 D(15,18,21,23)   =        -1.070429	     -61.331079
	 D(15,18,21,24)   =         1.096225	      62.809084
	 D(16,15,18,19)   =        -1.538565	     -88.153296
	 D(16,15,18,20)   =         2.732437	     156.557119
	 D(16,15,18,21)   =         0.576324	      33.020930
	 D(17,15,18,19)   =         0.478235	      27.400831
	 D(17,15,18,20)   =        -1.533948	     -87.888755
	 D(17,15,18,21)   =         2.593124	     148.575057
	 D(18,21,24,25)   =         0.607799	      34.824295
	 D(18,21,24,26)   =         2.618105	     150.006378
	 D(19,18,21,22)   =        -0.930933	     -53.338556
	 D(19,18,21,23)   =         1.059845	      60.724634
	 D(19,18,21,24)   =        -3.056686	    -175.135203
	 D(20,18,21,22)   =         1.067157	      61.143615
	 D(20,18,21,23)   =         3.057936	     175.206805
	 D(20,18,21,24)   =        -1.058595	     -60.653032
	 D(22,21,24,25)   =        -1.505481	     -86.257707
	 D(22,21,24,26)   =         0.504826	      28.924376
	 D(23,21,24,25)   =         2.766649	     158.517334
	 D(23,21,24,26)   =        -1.506229	     -86.300582
	 R(9,12)          =         6.551498	       3.466903
	 R(9,24)          =         6.499412	       3.439341
	 R(12,15)         =         6.481512	       3.429869

	Current energy   :      -314.9780241065

	Generating empirical Hessian (Schlegel '84) for each fragment.
	Taking RFO optimization step.
	Going to follow RFO solution 1.
	Using RFO vector 1.
	Norm of target step-size    0.00013
	Projected energy change by RFO approximation:         0.0000000003

	Back-transformation to cartesian coordinates...
	Successfully converged to displaced geometry.

	--- Internal Coordinate Step in ANG or DEG, aJ/ANG or AJ/DEG ---
	 ---------------------------------------------------------------------------
	   Coordinate                Previous        Force       Change         New 
	   ----------                --------       ------       ------       ------
	    1 R(1,2)          =      1.091242    -0.000003    -0.000000     1.091242
	    2 R(1,3)          =      1.089751    -0.000002    -0.000000     1.089751
	    3 R(1,4)          =      1.091023    -0.000002    -0.000000     1.091023
	    4 R(1,9)          =      1.523243    -0.000001    -0.000000     1.523243
	    5 R(5,6)          =      1.089895    -0.000004    -0.000001     1.089894
	    6 R(5,7)          =      1.091026    -0.000004    -0.000001     1.091025
	    7 R(5,8)          =      1.089847    -0.000005    -0.000001     1.089846
	    8 R(5,12)         =      1.525286    -0.000002    -0.000000     1.525286
	    9 R(9,10)         =      1.093350    -0.000001    -0.000000     1.093349
	   10 R(9,11)         =      1.090526    -0.000003    -0.000000     1.090526
	   11 R(9,15)         =      1.526537    -0.000000    -0.000000     1.526537
	   12 R(12,13)        =      1.092782    -0.000006    -0.000001     1.092781
	   13 R(12,14)        =      1.090853    -0.000006    -0.000001     1.090852
	   14 R(12,24)        =      1.531309    -0.000002    -0.000001     1.531308
	   15 R(15,16)        =      1.094850    -0.000002    -0.000000     1.094850
	   16 R(15,17)        =      1.093724    -0.000001    -0.000000     1.093723
	   17 R(15,18)        =      1.533362     0.000003     0.000001     1.533363
	   18 R(18,19)        =      1.092694     0.000002     0.000000     1.092695
	   19 R(18,20)        =      1.095090     0.000003     0.000001     1.095091
	   20 R(18,21)        =      1.531005     0.000003     0.000001     1.531005
	   21 R(21,22)        =      1.092705     0.000002     0.000000     1.092705
	   22 R(21,23)        =      1.093855     0.000002     0.000000     1.093855
	   23 R(21,24)        =      1.534177    -0.000001    -0.000000     1.534176
	   24 R(24,25)        =      1.093359    -0.000003    -0.000001     1.093359
	   25 R(24,26)        =      1.094045    -0.000002    -0.000000     1.094044
	   26 B(1,9,10)       =    109.874227     0.000000     0.000114   109.874341
	   27 B(1,9,11)       =    109.621769    -0.000000    -0.000091   109.621677
	   28 B(1,9,15)       =    112.017301    -0.000000    -0.000008   112.017293
	   29 B(2,1,3)        =    107.908790     0.000000    -0.000001   107.908789
	   30 B(2,1,4)        =    107.622428     0.000000     0.000016   107.622444
	   31 B(2,1,9)        =    110.635867    -0.000000    -0.000020   110.635847
	   32 B(3,1,4)        =    107.984705     0.000000     0.000009   107.984713
	   33 B(3,1,9)        =    111.748345     0.000000     0.000005   111.748350
	   34 B(4,1,9)        =    110.784909    -0.000000    -0.000007   110.784901
	   35 B(5,12,13)      =    108.899532     0.000000    -0.000004   108.899527
	   36 B(5,12,14)      =    109.435857     0.000000     0.000065   109.435923
	   37 B(5,12,24)      =    112.568271    -0.000000    -0.000082   112.568189
	   38 B(6,5,7)        =    107.706633     0.000000    -0.000004   107.706629
	   39 B(6,5,8)        =    107.574866     0.000000     0.000003   107.574869
	   40 B(6,5,12)       =    111.630347    -0.000000    -0.000048   111.630299
	   41 B(7,5,8)        =    107.938292     0.000000     0.000028   107.938320
	   42 B(7,5,12)       =    110.603270    -0.000000    -0.000007   110.603262
	   43 B(8,5,12)       =    111.221177     0.000000     0.000030   111.221207
	   44 B(9,15,16)      =    109.836593     0.000000    -0.000013   109.836580
	   45 B(9,15,17)      =    107.496532     0.000000     0.000005   107.496537
	   46 B(9,15,18)      =    114.407604    -0.000000    -0.000043   114.407560
	   47 B(10,9,11)      =    106.278349    -0.000000     0.000004   106.278353
	   48 B(10,9,15)      =    108.443721     0.000000     0.000067   108.443788
	   49 B(11,9,15)      =    110.435468    -0.000000    -0.000082   110.435387
	   50 B(12,24,21)     =    115.050846    -0.000000    -0.000149   115.050697
	   51 B(12,24,25)     =    110.166016    -0.000000    -0.000110   110.165906
	   52 B(12,24,26)     =    107.332588     0.000000     0.000166   107.332754
	   53 B(13,12,14)     =    106.390437    -0.000000    -0.000010   106.390427
	   54 B(13,12,24)     =    108.914226     0.000000    -0.000021   108.914206
	   55 B(14,12,24)     =    110.429813     0.000000     0.000054   110.429867
	   56 B(15,18,19)     =    108.921843     0.000000     0.000059   108.921902
	   57 B(15,18,20)     =    108.909222     0.000000     0.000009   108.909231
	   58 B(15,18,21)     =    116.139579    -0.000000    -0.000069   116.139510
	   59 B(16,15,17)     =    105.816948    -0.000000    -0.000037   105.816911
	   60 B(16,15,18)     =    109.588974     0.000000     0.000010   109.588985
	   61 B(17,15,18)     =    109.323064     0.000000     0.000078   109.323143
	   62 B(18,21,22)     =    107.339604    -0.000000    -0.000092   107.339512
	   63 B(18,21,23)     =    108.746543     0.000000     0.000023   108.746566
	   64 B(18,21,24)     =    116.125675     0.000000     0.000037   116.125712
	   65 B(19,18,20)     =    106.093855    -0.000000     0.000025   106.093880
	   66 B(19,18,21)     =    107.260960    -0.000000    -0.000027   107.260933
	   67 B(20,18,21)     =    109.051761     0.000000     0.000011   109.051772
	   68 B(21,24,25)     =    108.901538     0.000000     0.000026   108.901564
	   69 B(21,24,26)     =    109.034482     0.000000     0.000059   109.034541
	   70 B(22,21,23)     =    105.829933     0.000000     0.000032   105.829965
	   71 B(22,21,24)     =    108.683271     0.000000     0.000015   108.683285
	   72 B(23,21,24)     =    109.610894    -0.000000    -0.000015   109.610878
	   73 B(25,24,26)     =    105.955567    -0.000000     0.000025   105.955592
	   74 D(1,9,15,16)    =     51.724137    -0.000000    -0.001354    51.722783
	   75 D(1,9,15,17)    =    -62.954721    -0.000000    -0.001307   -62.956028
	   76 D(1,9,15,18)    =    175.441516    -0.000000    -0.001382   175.440133
	   77 D(2,1,9,10)     =    177.447497    -0.000000    -0.000283   177.447215
	   78 D(2,1,9,11)     =     61.004625    -0.000000    -0.000300    61.004325
	   79 D(2,1,9,15)     =    -61.951921     0.000000    -0.000125   -61.952046
	   80 D(3,1,9,10)     =     57.182678    -0.000000    -0.000271    57.182407
	   81 D(3,1,9,11)     =    -59.260194    -0.000000    -0.000288   -59.260482
	   82 D(3,1,9,15)     =    177.783260     0.000000    -0.000113   177.783147
	   83 D(4,1,9,10)     =    -63.280405    -0.000000    -0.000280   -63.280686
	   84 D(4,1,9,11)     =   -179.723277    -0.000000    -0.000298  -179.723575
	   85 D(4,1,9,15)     =     57.320177     0.000000    -0.000123    57.320054
	   86 D(5,12,24,21)   =    -71.236905    -0.000000    -0.001843   -71.238748
	   87 D(5,12,24,25)   =    165.218748    -0.000000    -0.001677   165.217070
	   88 D(5,12,24,26)   =     50.296349    -0.000000    -0.001741    50.294608
	   89 D(6,5,12,13)    =   -178.546102    -0.000000     0.000702  -178.545400
	   90 D(6,5,12,14)    =    -62.627598     0.000000     0.000724   -62.626874
	   91 D(6,5,12,24)    =     60.568125     0.000000     0.000784    60.568909
	   92 D(7,5,12,13)    =     61.545446     0.000000     0.000743    61.546189
	   93 D(7,5,12,14)    =    177.463950     0.000000     0.000766   177.464715
	   94 D(7,5,12,24)    =    -59.340327     0.000000     0.000825   -59.339502
	   95 D(8,5,12,13)    =    -58.385150    -0.000000     0.000694   -58.384456
	   96 D(8,5,12,14)    =     57.533354     0.000000     0.000716    57.534070
	   97 D(8,5,12,24)    =   -179.270923     0.000000     0.000776  -179.270147
	   98 D(9,15,18,19)   =    147.996712     0.000000     0.000265   147.996977
	   99 D(9,15,18,20)   =     32.707127     0.000000     0.000198    32.707325
	  100 D(9,15,18,21)   =    -90.829062     0.000000     0.000227   -90.828834
	  101 D(10,9,15,16)   =    173.151450     0.000000    -0.001171   173.150279
	  102 D(10,9,15,17)   =     58.472592     0.000000    -0.001124    58.471468
	  103 D(10,9,15,18)   =    -63.131172    -0.000000    -0.001199   -63.132371
	  104 D(11,9,15,16)   =    -70.770822     0.000000    -0.001173   -70.771995
	  105 D(11,9,15,17)   =    174.550319     0.000000    -0.001126   174.549194
	  106 D(11,9,15,18)   =     52.946556    -0.000000    -0.001201    52.945355
	  107 D(12,24,21,18)  =    -89.388223    -0.000000    -0.000598   -89.388821
	  108 D(12,24,21,22)  =    149.529774     0.000000    -0.000514   149.529260
	  109 D(12,24,21,23)  =     34.304816     0.000000    -0.000552    34.304264
	  110 D(13,12,24,21)  =    167.885738     0.000000    -0.001770   167.883968
	  111 D(13,12,24,25)  =     44.341391     0.000000    -0.001605    44.339786
	  112 D(13,12,24,26)  =    -70.581008    -0.000000    -0.001669   -70.582677
	  113 D(14,12,24,21)  =     51.402005    -0.000000    -0.001777    51.400228
	  114 D(14,12,24,25)  =    -72.142343    -0.000000    -0.001611   -72.143954
	  115 D(14,12,24,26)  =    172.935259    -0.000000    -0.001676   172.933583
	  116 D(15,18,21,22)  =   -175.394269    -0.000000    -0.000715  -175.394984
	  117 D(15,18,21,23)  =    -61.331079    -0.000000    -0.000713   -61.331793
	  118 D(15,18,21,24)  =     62.809084    -0.000000    -0.000688    62.808396
	  119 D(16,15,18,19)  =    -88.153296     0.000000     0.000224   -88.153071
	  120 D(16,15,18,20)  =    156.557119    -0.000000     0.000158   156.557277
	  121 D(16,15,18,21)  =     33.020930    -0.000000     0.000187    33.021117
	  122 D(17,15,18,19)  =     27.400831     0.000000     0.000230    27.401061
	  123 D(17,15,18,20)  =    -87.888755    -0.000000     0.000164   -87.888591
	  124 D(17,15,18,21)  =    148.575057     0.000000     0.000193   148.575250
	  125 D(18,21,24,25)  =     34.824295    -0.000000    -0.000832    34.823463
	  126 D(18,21,24,26)  =    150.006378    -0.000000    -0.000756   150.005622
	  127 D(19,18,21,22)  =    -53.338556     0.000000    -0.000705   -53.339261
	  128 D(19,18,21,23)  =     60.724634    -0.000000    -0.000704    60.723930
	  129 D(19,18,21,24)  =   -175.135203     0.000000    -0.000678  -175.135881
	  130 D(20,18,21,22)  =     61.143615     0.000000    -0.000685    61.142930
	  131 D(20,18,21,23)  =    175.206805    -0.000000    -0.000684   175.206121
	  132 D(20,18,21,24)  =    -60.653032     0.000000    -0.000658   -60.653690
	  133 D(22,21,24,25)  =    -86.257707    -0.000000    -0.000748   -86.258455
	  134 D(22,21,24,26)  =     28.924376     0.000000    -0.000672    28.923704
	  135 D(23,21,24,25)  =    158.517334    -0.000000    -0.000786   158.516548
	  136 D(23,21,24,26)  =    -86.300582    -0.000000    -0.000710   -86.301293
	  137 R(9,12)         =      3.466903     0.000001     0.000009     3.466912
	  138 R(9,24)         =      3.439341    -0.000000    -0.000009     3.439331
	  139 R(12,15)        =      3.429869    -0.000001     0.000001     3.429869
	 ---------------------------------------------------------------------------

  ==> Convergence Check <==

  Measures of convergence in internal coordinates in au.
  Criteria marked as inactive (o), active & met (*), and active & unmet ( ).
  --------------------------------------------------------------------------------------------- ~
   Step     Total Energy     Delta E     MAX Force     RMS Force      MAX Disp      RMS Disp    ~
  --------------------------------------------------------------------------------------------- ~
    Convergence Criteria             o    2.00e-06 *    1.00e-06 *    6.00e-06 *    4.00e-06 *  ~
  --------------------------------------------------------------------------------------------- ~
      1    -314.97802411   -3.15e+02 o    7.45e-07 *    1.71e-07 *    3.22e-05      1.11e-05    ~
  ---------------------------------------------------------------------------------------------

	Writing optimization data to binary file.
	Structure for next step:
	Cartesian Geometry (in Angstrom)
	    C    -2.7165264426  -1.4437506155   0.0241639527
	    H    -2.0885420268  -2.0919242341   0.6376088506
	    H    -3.1241901949  -2.0440292145  -0.7888748611
	    H    -3.5486290543  -1.1069804887   0.6442622341
	    C     2.5907175738  -1.2817166738   0.6769850867
	    H     2.5167975086  -0.6143433572   1.5354823349
	    H     3.5563379212  -1.1044656602   0.2010708851
	    H     2.5848407097  -2.3043738211   1.0536854155
	    C    -1.9158333229  -0.2572653149  -0.4968087689
	    H    -2.5439700798   0.3588178736  -1.1458837444
	    H    -1.0932332664  -0.6146424080  -1.1171772801
	    C     1.4538579915  -1.0516636657  -0.3135310294
	    H     1.5563309585  -1.7587132726  -1.1404229703
	    H     0.5014931310  -1.2773019183   0.1681802617
	    C    -1.3873520381   0.6183938441   0.6364359856
	    H    -0.8557850743  -0.0000986939   1.3669152408
	    H    -2.2521315882   1.0282645523   1.1659576930
	    C    -0.4809088264   1.7675568372   0.1792849498
	    H    -0.6108947422   2.6132530005   0.8589051377
	    H    -0.8158278269   2.1140834829  -0.8040627955
	    C     1.0177610434   1.4607648922   0.1172843817
	    H     1.5301270103   2.3906871492  -0.1410384097
	    H     1.3645836454   1.1978293163   1.1208270406
	    C     1.4439893639   0.3723958451  -0.8764355188
	    H     0.7987757042   0.4249453593  -1.7575546060
	    H     2.4558438536   0.5896458054  -1.2312395747
			--------------------------
			 OPTKING Finished Execution 
			--------------------------

    Structure for next step:
    Molecular point group: c1
    Full point group: C1

    Geometry (in Angstrom), charge = 0, multiplicity = 1:

    C           -2.716525198720    -1.443750837096     0.024163139560
    H           -2.088540782902    -2.091924455747     0.637608037522
    H           -3.124188951000    -2.044029436088    -0.788875674202
    H           -3.548627810420    -1.106980710347     0.644261420996
    C            2.590718817668    -1.281716895468     0.676984273597
    H            2.516798752479    -0.614343578792     1.535481521804
    H            3.556339165067    -1.104465881856     0.201070072009
    H            2.584841953567    -2.304374042732     1.053684602391
    C           -1.915832079000    -0.257265536533    -0.496809582006
    H           -2.543968835959     0.358817651923    -1.145884557466
    H           -1.093232022514    -0.614642629634    -1.117178093157
    C            1.453859235342    -1.051663887323    -0.313531842524
    H            1.556332202362    -1.758713494209    -1.140423783417
    H            0.501494374934    -1.277302139958     0.168179448586
    C           -1.387350794221     0.618393622433     0.636435172514
    H           -0.855783830389    -0.000098915528     1.366914427684
    H           -2.252130344355     1.028264330674     1.165956879913
    C           -0.480907582520     1.767556615574     0.179284136664
    H           -0.610893498273     2.613252778840     0.858904324568
    H           -0.815826582981     2.114083261274    -0.804063608602
    C            1.017762287250     1.460764670566     0.117283568562
    H            1.530128254183     2.390686927560    -0.141039222770
    H            1.364584889287     1.197829094648     1.120826227469
    C            1.443990607768     0.372395623421    -0.876436331921
    H            0.798776948051     0.424945137632    -1.757555419143
    H            2.455845097479     0.589645583793    -1.231240387773

gradient() will perform analytic gradient computation.

*** tstart() called on wr39
*** at Wed Sep 21 11:26:53 2016


         ---------------------------------------------------------
                                   SCF
            by Justin Turney, Rob Parrish, and Andy Simmonett
                              RHF Reference
                       12 Threads,  60000 MiB Core
         ---------------------------------------------------------

  ==> Geometry <==

    Molecular point group: c1
    Full point group: C1

    Geometry (in Angstrom), charge = 0, multiplicity = 1:

       Center              X                  Y                   Z               Mass       
    ------------   -----------------  -----------------  -----------------  -----------------
           C         -2.716525198720    -1.443750837096     0.024163139560    12.000000000000
           H         -2.088540782902    -2.091924455747     0.637608037522     1.007825032070
           H         -3.124188951000    -2.044029436088    -0.788875674202     1.007825032070
           H         -3.548627810420    -1.106980710347     0.644261420996     1.007825032070
           C          2.590718817668    -1.281716895468     0.676984273597    12.000000000000
           H          2.516798752479    -0.614343578792     1.535481521804     1.007825032070
           H          3.556339165067    -1.104465881856     0.201070072009     1.007825032070
           H          2.584841953567    -2.304374042732     1.053684602391     1.007825032070
           C         -1.915832079000    -0.257265536533    -0.496809582006    12.000000000000
           H         -2.543968835959     0.358817651923    -1.145884557466     1.007825032070
           H         -1.093232022514    -0.614642629634    -1.117178093157     1.007825032070
           C          1.453859235342    -1.051663887323    -0.313531842524    12.000000000000
           H          1.556332202362    -1.758713494209    -1.140423783417     1.007825032070
           H          0.501494374934    -1.277302139958     0.168179448586     1.007825032070
           C         -1.387350794221     0.618393622433     0.636435172514    12.000000000000
           H         -0.855783830389    -0.000098915528     1.366914427684     1.007825032070
           H         -2.252130344355     1.028264330674     1.165956879913     1.007825032070
           C         -0.480907582520     1.767556615574     0.179284136664    12.000000000000
           H         -0.610893498273     2.613252778840     0.858904324568     1.007825032070
           H         -0.815826582981     2.114083261274    -0.804063608602     1.007825032070
           C          1.017762287250     1.460764670566     0.117283568562    12.000000000000
           H          1.530128254183     2.390686927560    -0.141039222770     1.007825032070
           H          1.364584889287     1.197829094648     1.120826227469     1.007825032070
           C          1.443990607768     0.372395623421    -0.876436331921    12.000000000000
           H          0.798776948051     0.424945137632    -1.757555419143     1.007825032070
           H          2.455845097479     0.589645583793    -1.231240387773     1.007825032070

  Running in c1 symmetry.

  Rotational constants: A =      0.07871  B =      0.03951  C =      0.03047 [cm^-1]
  Rotational constants: A =   2359.75065  B =   1184.51508  C =    913.32305 [MHz]
  Nuclear repulsion =  406.131010004231484

  Charge       = 0
  Multiplicity = 1
  Electrons    = 66
  Nalpha       = 33
  Nbeta        = 33

  ==> Algorithm <==

  SCF Algorithm Type is DF.
  DIIS enabled.
  MOM disabled.
  Fractional occupation disabled.
  Guess Type is READ.
  Energy threshold   = 1.00e-10
  Density threshold  = 1.00e-10
  Integral threshold = 0.00e+00

  ==> Primary Basis <==

  Basis Set: AUG-CC-PVTZ
    Number of shells: 274
    Number of basis function: 782
    Number of Cartesian functions: 890
    Spherical Harmonics?: true
    Max angular momentum: 3

  ==> Pre-Iterations <==

   -------------------------------------------------------
    Irrep   Nso     Nmo     Nalpha   Nbeta   Ndocc  Nsocc
   -------------------------------------------------------
     A        782     782       0       0       0       0
   -------------------------------------------------------
    Total     782     782      33      33      33       0
   -------------------------------------------------------

  ==> Integral Setup <==

  ==> DFJK: Density-Fitted J/K Matrices <==

    J tasked:                  Yes
    K tasked:                  Yes
    wK tasked:                  No
    OpenMP threads:             12
    Integrals threads:          12
    Memory (MB):             42915
    Algorithm:                Core
    Integral Cache:           NONE
    Schwarz Cutoff:          1E-12
    Fitting Condition:       1E-12

   => Auxiliary Basis Set <=

  Basis Set: 
    Number of shells: 492
    Number of basis function: 1660
    Number of Cartesian functions: 2038
    Spherical Harmonics?: true
    Max angular momentum: 4

  Minimum eigenvalue in the overlap matrix is 1.8346503308E-06.
  Using Symmetric Orthogonalization.
  SCF Guess: Reading in previously saved MOs, projecting if necessary.

  Using orbitals from previous SCF, no projection.
  Recomputing DOCC and SOCC from number of alpha and beta electrons from previous calculation.
              A 
    DOCC [    33 ]

  ==> Iterations <==

                           Total Energy        Delta E     RMS |[F,P]|

   @DF-RHF iter   0:  -313.53311941777667   -3.13533e+02   8.80386e-08 
   @DF-RHF iter   1:  -313.53310829006193    1.11277e-05   1.61484e-08 
   @DF-RHF iter   2:  -313.53310829021780   -1.55865e-10   5.88210e-09 DIIS
   @DF-RHF iter   3:  -313.53310829023837   -2.05773e-11   2.58312e-09 DIIS
   @DF-RHF iter   4:  -313.53310829024144   -3.06954e-12   3.07154e-10 DIIS
   @DF-RHF iter   5:  -313.53310829024144    0.00000e+00   8.72549e-11 DIIS

  ==> Post-Iterations <==

    Orbital Energies (a.u.)
    -----------------------

    Doubly Occupied:                                                      

       1A    -11.212384     2A    -11.211420     3A    -11.211246  
       4A    -11.210987     5A    -11.210458     6A    -11.210237  
       7A    -11.207247     8A    -11.206921     9A     -1.093486  
      10A     -1.056574    11A     -1.010708    12A     -0.946787  
      13A     -0.889222    14A     -0.825262    15A     -0.788535  
      16A     -0.761022    17A     -0.649359    18A     -0.622472  
      19A     -0.612015    20A     -0.585079    21A     -0.581201  
      22A     -0.568339    23A     -0.537162    24A     -0.535397  
      25A     -0.522320    26A     -0.498899    27A     -0.489873  
      28A     -0.470094    29A     -0.468995    30A     -0.459783  
      31A     -0.449877    32A     -0.433863    33A     -0.431475  

    Virtual:                                                              

      34A      0.028164    35A      0.032895    36A      0.033977  
      37A      0.034874    38A      0.047607    39A      0.048998  
      40A      0.050384    41A      0.053045    42A      0.055074  
      43A      0.069322    44A      0.070748    45A      0.071974  
      46A      0.075621    47A      0.076873    48A      0.079184  
      49A      0.086651    50A      0.096768    51A      0.100909  
      52A      0.115225    53A      0.116076    54A      0.121668  
      55A      0.127990    56A      0.130258    57A      0.134621  
      58A      0.135550    59A      0.138335    60A      0.139699  
      61A      0.142745    62A      0.147046    63A      0.147854  
      64A      0.152889    65A      0.156665    66A      0.160602  
      67A      0.165797    68A      0.171540    69A      0.174004  
      70A      0.177903    71A      0.180461    72A      0.184763  
      73A      0.186337    74A      0.189231    75A      0.195330  
      76A      0.199449    77A      0.208602    78A      0.220091  
      79A      0.232400    80A      0.233166    81A      0.236319  
      82A      0.245812    83A      0.252143    84A      0.255208  
      85A      0.263735    86A      0.275796    87A      0.281429  
      88A      0.288496    89A      0.291334    90A      0.295741  
      91A      0.297613    92A      0.306673    93A      0.311524  
      94A      0.317402    95A      0.318553    96A      0.320947  
      97A      0.326194    98A      0.328428    99A      0.335244  
     100A      0.338689   101A      0.345284   102A      0.350075  
     103A      0.353270   104A      0.357210   105A      0.361814  
     106A      0.362629   107A      0.364178   108A      0.365593  
     109A      0.372769   110A      0.374251   111A      0.378143  
     112A      0.379670   113A      0.387315   114A      0.390328  
     115A      0.392360   116A      0.394386   117A      0.402885  
     118A      0.404651   119A      0.411550   120A      0.417057  
     121A      0.420212   122A      0.420900   123A      0.424392  
     124A      0.431661   125A      0.434736   126A      0.437996  
     127A      0.439960   128A      0.448958   129A      0.451805  
     130A      0.456669   131A      0.459028   132A      0.463394  
     133A      0.465477   134A      0.469572   135A      0.474082  
     136A      0.478450   137A      0.481042   138A      0.490149  
     139A      0.493144   140A      0.496381   141A      0.501281  
     142A      0.505682   143A      0.506348   144A      0.508624  
     145A      0.514848   146A      0.516478   147A      0.527727  
     148A      0.529939   149A      0.534790   150A      0.537138  
     151A      0.542178   152A      0.544760   153A      0.545114  
     154A      0.548679   155A      0.549931   156A      0.552474  
     157A      0.560754   158A      0.564170   159A      0.569011  
     160A      0.577679   161A      0.581819   162A      0.583869  
     163A      0.593784   164A      0.599643   165A      0.602152  
     166A      0.602612   167A      0.609061   168A      0.617214  
     169A      0.621799   170A      0.626491   171A      0.629705  
     172A      0.633356   173A      0.645828   174A      0.646499  
     175A      0.653337   176A      0.658096   177A      0.661447  
     178A      0.665241   179A      0.669907   180A      0.671949  
     181A      0.680944   182A      0.684839   183A      0.687530  
     184A      0.690268   185A      0.692204   186A      0.703723  
     187A      0.705992   188A      0.720954   189A      0.722995  
     190A      0.729552   191A      0.731088   192A      0.734821  
     193A      0.742712   194A      0.746957   195A      0.754451  
     196A      0.757989   197A      0.770618   198A      0.774505  
     199A      0.782137   200A      0.796829   201A      0.803353  
     202A      0.808004   203A      0.820663   204A      0.826250  
     205A      0.831680   206A      0.844599   207A      0.848224  
     208A      0.858721   209A      0.861339   210A      0.869048  
     211A      0.871304   212A      0.877216   213A      0.880956  
     214A      0.883665   215A      0.894266   216A      0.895647  
     217A      0.897847   218A      0.907390   219A      0.913137  
     220A      0.916940   221A      0.923419   222A      0.926731  
     223A      0.934405   224A      0.942267   225A      0.942818  
     226A      0.946425   227A      0.950273   228A      0.954624  
     229A      0.959835   230A      0.964455   231A      0.968409  
     232A      0.973105   233A      0.985767   234A      0.991500  
     235A      0.993867   236A      0.996459   237A      1.000935  
     238A      1.006203   239A      1.009971   240A      1.014339  
     241A      1.022665   242A      1.028797   243A      1.030292  
     244A      1.039622   245A      1.046553   246A      1.049999  
     247A      1.051560   248A      1.057153   249A      1.069753  
     250A      1.072088   251A      1.073620   252A      1.086033  
     253A      1.090993   254A      1.097164   255A      1.100054  
     256A      1.111159   257A      1.112813   258A      1.114732  
     259A      1.119621   260A      1.128710   261A      1.134980  
     262A      1.138233   263A      1.145531   264A      1.152669  
     265A      1.157983   266A      1.158955   267A      1.166288  
     268A      1.175550   269A      1.180332   270A      1.183139  
     271A      1.186789   272A      1.188513   273A      1.198679  
     274A      1.204988   275A      1.208101   276A      1.212215  
     277A      1.220440   278A      1.225585   279A      1.234565  
     280A      1.236444   281A      1.243520   282A      1.245465  
     283A      1.252110   284A      1.254490   285A      1.263384  
     286A      1.266573   287A      1.272581   288A      1.279679  
     289A      1.280300   290A      1.292464   291A      1.297890  
[...]
	 D(17,15,18,20)   =        -1.533943	     -87.888433
	 D(17,15,18,21)   =         2.593129	     148.575365
	 D(18,21,24,25)   =         0.607791	      34.823832
	 D(18,21,24,26)   =         2.618098	     150.005965
	 D(19,18,21,22)   =        -0.930937	     -53.338758
	 D(19,18,21,23)   =         1.059842	      60.724451
	 D(19,18,21,24)   =        -3.056689	    -175.135384
	 D(20,18,21,22)   =         1.067154	      61.143437
	 D(20,18,21,23)   =         3.057933	     175.206646
	 D(20,18,21,24)   =        -1.058598	     -60.653189
	 D(22,21,24,25)   =        -1.505488	     -86.258115
	 D(22,21,24,26)   =         0.504819	      28.924019
	 D(23,21,24,25)   =         2.766642	     158.516884
	 D(23,21,24,26)   =        -1.506236	     -86.300982
	 R(9,12)          =         6.551500	       3.466904
	 R(9,24)          =         6.499400	       3.439334
	 R(12,15)         =         6.481518	       3.429871

	Current energy   :      -314.9780241058

	Energy change for the previous step:
		Projected    :        -0.0000000000
		Actual       :         0.0000000031

	Performing BFGS update.
	Previous computed or guess Hessian on step 1.
	Denominators (dg)(dq) or (dq)(dq) are very small.
	 Skipping Hessian update for step 10.
	Denominators (dg)(dq) or (dq)(dq) are very small.
	 Skipping Hessian update for step 9.
	Denominators (dg)(dq) or (dq)(dq) are very small.
	 Skipping Hessian update for step 8.
	Denominators (dg)(dq) or (dq)(dq) are very small.
	 Skipping Hessian update for step 7.
	Denominators (dg)(dq) or (dq)(dq) are very small.
	 Skipping Hessian update for step 6.
	Denominators (dg)(dq) or (dq)(dq) are very small.
	 Skipping Hessian update for step 5.
	Denominators (dg)(dq) or (dq)(dq) are very small.
	 Skipping Hessian update for step 4.
	Denominators (dg)(dq) or (dq)(dq) are very small.
	 Skipping Hessian update for step 3.
	Denominators (dg)(dq) or (dq)(dq) are very small.
	 Skipping Hessian update for step 2.
	Steps to be used in Hessian update: 1
	Taking RFO optimization step.
	Going to follow RFO solution 1.
	Using RFO vector 1.
	Norm of target step-size    0.00002
	Projected energy change by RFO approximation:        -0.0000000000

	Back-transformation to cartesian coordinates...
	Successfully converged to displaced geometry.

	--- Internal Coordinate Step in ANG or DEG, aJ/ANG or AJ/DEG ---
	 ---------------------------------------------------------------------------
	   Coordinate                Previous        Force       Change         New 
	   ----------                --------       ------       ------       ------
	    1 R(1,2)          =      1.091242     0.000007     0.000000     1.091242
	    2 R(1,3)          =      1.089751     0.000006     0.000000     1.089751
	    3 R(1,4)          =      1.091023     0.000007     0.000000     1.091023
	    4 R(1,9)          =      1.523243     0.000003     0.000000     1.523243
	    5 R(5,6)          =      1.089894     0.000004     0.000000     1.089894
	    6 R(5,7)          =      1.091025     0.000003     0.000000     1.091025
	    7 R(5,8)          =      1.089847     0.000003     0.000000     1.089847
	    8 R(5,12)         =      1.525286    -0.000001    -0.000000     1.525286
	    9 R(9,10)         =      1.093349     0.000008     0.000000     1.093350
	   10 R(9,11)         =      1.090526     0.000013     0.000000     1.090526
	   11 R(9,15)         =      1.526537    -0.000000     0.000000     1.526537
	   12 R(12,13)        =      1.092781     0.000004    -0.000000     1.092781
	   13 R(12,14)        =      1.090852     0.000006     0.000000     1.090852
	   14 R(12,24)        =      1.531308    -0.000001    -0.000000     1.531308
	   15 R(15,16)        =      1.094850     0.000013     0.000000     1.094850
	   16 R(15,17)        =      1.093724     0.000008     0.000000     1.093724
	   17 R(15,18)        =      1.533363     0.000002    -0.000000     1.533363
	   18 R(18,19)        =      1.092695     0.000007     0.000000     1.092695
	   19 R(18,20)        =      1.095091     0.000011     0.000000     1.095091
	   20 R(18,21)        =      1.531005     0.000002     0.000000     1.531005
	   21 R(21,22)        =      1.092705     0.000005    -0.000000     1.092705
	   22 R(21,23)        =      1.093855     0.000009    -0.000000     1.093855
	   23 R(21,24)        =      1.534177     0.000003     0.000000     1.534177
	   24 R(24,25)        =      1.093359     0.000008    -0.000000     1.093359
	   25 R(24,26)        =      1.094045     0.000004    -0.000000     1.094045
	   26 B(1,9,10)       =    109.874289    -0.000000    -0.000026   109.874264
	   27 B(1,9,11)       =    109.621699     0.000000     0.000028   109.621726
	   28 B(1,9,15)       =    112.017297     0.000000    -0.000007   112.017290
	   29 B(2,1,3)        =    107.908792    -0.000000    -0.000000   107.908792
	   30 B(2,1,4)        =    107.622441    -0.000000    -0.000008   107.622433
	   31 B(2,1,9)        =    110.635848     0.000000     0.000008   110.635856
	   32 B(3,1,4)        =    107.984704    -0.000000    -0.000002   107.984702
	   33 B(3,1,9)        =    111.748341    -0.000000    -0.000001   111.748340
	   34 B(4,1,9)        =    110.784917     0.000000     0.000003   110.784920
	   35 B(5,12,13)      =    108.899527     0.000000     0.000017   108.899543
	   36 B(5,12,14)      =    109.435923    -0.000000    -0.000019   109.435904
	   37 B(5,12,24)      =    112.568206     0.000000    -0.000002   112.568204
	   38 B(6,5,7)        =    107.706631    -0.000000    -0.000001   107.706630
	   39 B(6,5,8)        =    107.574873    -0.000000     0.000003   107.574876
	   40 B(6,5,12)       =    111.630304     0.000000     0.000002   111.630306
	   41 B(7,5,8)        =    107.938315     0.000000    -0.000001   107.938314
	   42 B(7,5,12)       =    110.603251     0.000000     0.000000   110.603252
	   43 B(8,5,12)       =    111.221211    -0.000000    -0.000003   111.221207
	   44 B(9,15,16)      =    109.836602    -0.000000    -0.000012   109.836590
	   45 B(9,15,17)      =    107.496518    -0.000000     0.000010   107.496528
	   46 B(9,15,18)      =    114.407609     0.000000     0.000006   114.407615
	   47 B(10,9,11)      =    106.278362     0.000000     0.000005   106.278367
	   48 B(10,9,15)      =    108.443763    -0.000000    -0.000012   108.443750
	   49 B(11,9,15)      =    110.435428     0.000000     0.000013   110.435440
	   50 B(12,24,21)     =    115.050770     0.000000    -0.000004   115.050766
	   51 B(12,24,25)     =    110.166005    -0.000000    -0.000008   110.165997
	   52 B(12,24,26)     =    107.332623    -0.000000     0.000021   107.332644
	   53 B(13,12,14)     =    106.390433    -0.000000    -0.000002   106.390431
	   54 B(13,12,24)     =    108.914227    -0.000000     0.000013   108.914240
	   55 B(14,12,24)     =    110.429822     0.000000    -0.000006   110.429817
	   56 B(15,18,19)     =    108.921844     0.000000    -0.000013   108.921831
	   57 B(15,18,20)     =    108.909246     0.000000     0.000009   108.909256
	   58 B(15,18,21)     =    116.139535    -0.000000     0.000033   116.139569
	   59 B(16,15,17)     =    105.816922     0.000000     0.000003   105.816925
	   60 B(16,15,18)     =    109.589008    -0.000000    -0.000024   109.588984
	   61 B(17,15,18)     =    109.323052    -0.000000     0.000018   109.323070
	   62 B(18,21,22)     =    107.339557     0.000000    -0.000028   107.339529
	   63 B(18,21,23)     =    108.746560     0.000000     0.000007   108.746567
	   64 B(18,21,24)     =    116.125666    -0.000000     0.000035   116.125701
	   65 B(19,18,20)     =    106.093874    -0.000000    -0.000009   106.093865
	   66 B(19,18,21)     =    107.260943    -0.000000    -0.000027   107.260916
	   67 B(20,18,21)     =    109.051781    -0.000000     0.000003   109.051784
	   68 B(21,24,25)     =    108.901557     0.000000     0.000006   108.901563
	   69 B(21,24,26)     =    109.034498    -0.000000    -0.000000   109.034498
	   70 B(22,21,23)     =    105.829964    -0.000000    -0.000006   105.829958
	   71 B(22,21,24)     =    108.683287     0.000000    -0.000013   108.683274
	   72 B(23,21,24)     =    109.610889    -0.000000     0.000001   109.610890
	   73 B(25,24,26)     =    105.955593    -0.000000    -0.000016   105.955577
	   74 D(1,9,15,16)    =     51.723739     0.000000    -0.000117    51.723622
	   75 D(1,9,15,17)    =    -62.955087     0.000000    -0.000120   -62.955207
	   76 D(1,9,15,18)    =    175.441172     0.000000    -0.000154   175.441018
	   77 D(2,1,9,10)     =    177.447282     0.000000    -0.000007   177.447275
	   78 D(2,1,9,11)     =     61.004398     0.000000    -0.000013    61.004385
	   79 D(2,1,9,15)     =    -61.952043    -0.000000    -0.000044   -61.952088
	   80 D(3,1,9,10)     =     57.182475     0.000000    -0.000011    57.182464
	   81 D(3,1,9,11)     =    -59.260409     0.000000    -0.000018   -59.260427
	   82 D(3,1,9,15)     =    177.783150    -0.000000    -0.000049   177.783101
	   83 D(4,1,9,10)     =    -63.280610     0.000000    -0.000010   -63.280620
	   84 D(4,1,9,11)     =   -179.723494     0.000000    -0.000016  -179.723510
	   85 D(4,1,9,15)     =     57.320065    -0.000000    -0.000047    57.320017
	   86 D(5,12,24,21)   =    -71.237356     0.000000     0.000002   -71.237354
	   87 D(5,12,24,25)   =    165.218338     0.000000     0.000003   165.218340
	   88 D(5,12,24,26)   =     50.295894     0.000000     0.000015    50.295909
	   89 D(6,5,12,13)    =   -178.545774    -0.000000    -0.000173  -178.545946
	   90 D(6,5,12,14)    =    -62.627240    -0.000000    -0.000176   -62.627416
	   91 D(6,5,12,24)    =     60.568498     0.000000    -0.000199    60.568299
	   92 D(7,5,12,13)    =     61.545817    -0.000000    -0.000173    61.545644
	   93 D(7,5,12,14)    =    177.464351    -0.000000    -0.000176   177.464174
	   94 D(7,5,12,24)    =    -59.339911     0.000000    -0.000199   -59.340110
	   95 D(8,5,12,13)    =    -58.384818    -0.000000    -0.000170   -58.384988
	   96 D(8,5,12,14)    =     57.533715    -0.000000    -0.000173    57.533542
	   97 D(8,5,12,24)    =   -179.270547     0.000000    -0.000195  -179.270742
	   98 D(9,15,18,19)   =    147.997047     0.000000    -0.000042   147.997005
	   99 D(9,15,18,20)   =     32.707425     0.000000    -0.000029    32.707396
	  100 D(9,15,18,21)   =    -90.828778     0.000000    -0.000065   -90.828842
	  101 D(10,9,15,16)   =    173.151156    -0.000000    -0.000162   173.150993
	  102 D(10,9,15,17)   =     58.472330    -0.000000    -0.000165    58.472165
	  103 D(10,9,15,18)   =    -63.131411    -0.000000    -0.000199   -63.131610
	  104 D(11,9,15,16)   =    -70.771099     0.000000    -0.000157   -70.771256
	  105 D(11,9,15,17)   =    174.550076     0.000000    -0.000160   174.549916
	  106 D(11,9,15,18)   =     52.946335     0.000000    -0.000194    52.946141
	  107 D(12,24,21,18)  =    -89.388631     0.000000     0.000278   -89.388353
	  108 D(12,24,21,22)  =    149.529422     0.000000     0.000300   149.529723
	  109 D(12,24,21,23)  =     34.304421     0.000000     0.000314    34.304735
	  110 D(13,12,24,21)  =    167.885334     0.000000    -0.000026   167.885308
	  111 D(13,12,24,25)  =     44.341028    -0.000000    -0.000025    44.341003
	  112 D(13,12,24,26)  =    -70.581415     0.000000    -0.000014   -70.581429
	  113 D(14,12,24,21)  =     51.401599     0.000000    -0.000028    51.401571
	  114 D(14,12,24,25)  =    -72.142706     0.000000    -0.000027   -72.142734
	  115 D(14,12,24,26)  =    172.934850     0.000000    -0.000016   172.934835
	  116 D(15,18,21,22)  =   -175.394431    -0.000000    -0.000068  -175.394499
	  117 D(15,18,21,23)  =    -61.331222     0.000000    -0.000086   -61.331307
	  118 D(15,18,21,24)  =     62.808944    -0.000000    -0.000053    62.808890
	  119 D(16,15,18,19)  =    -88.152919     0.000000    -0.000072   -88.152990
	  120 D(16,15,18,20)  =    156.557459     0.000000    -0.000059   156.557401
	  121 D(16,15,18,21)  =     33.021257    -0.000000    -0.000095    33.021162
	  122 D(17,15,18,19)  =     27.401189     0.000000    -0.000072    27.401118
	  123 D(17,15,18,20)  =    -87.888433     0.000000    -0.000059   -87.888492
	  124 D(17,15,18,21)  =    148.575365     0.000000    -0.000095   148.575270
	  125 D(18,21,24,25)  =     34.823832     0.000000     0.000270    34.824102
	  126 D(18,21,24,26)  =    150.005965     0.000000     0.000254   150.006219
	  127 D(19,18,21,22)  =    -53.338758    -0.000000    -0.000084   -53.338842
	  128 D(19,18,21,23)  =     60.724451     0.000000    -0.000101    60.724350
	  129 D(19,18,21,24)  =   -175.135384    -0.000000    -0.000069  -175.135453
	  130 D(20,18,21,22)  =     61.143437    -0.000000    -0.000107    61.143329
	  131 D(20,18,21,23)  =    175.206646    -0.000000    -0.000125   175.206521
	  132 D(20,18,21,24)  =    -60.653189    -0.000000    -0.000092   -60.653281
	  133 D(22,21,24,25)  =    -86.258115     0.000000     0.000292   -86.257823
	  134 D(22,21,24,26)  =     28.924019     0.000000     0.000276    28.924295
	  135 D(23,21,24,25)  =    158.516884     0.000000     0.000306   158.517190
	  136 D(23,21,24,26)  =    -86.300982     0.000000     0.000290   -86.300693
	  137 R(9,12)         =      3.466904    -0.000001    -0.000002     3.466903
	  138 R(9,24)         =      3.439334     0.000003     0.000003     3.439337
	  139 R(12,15)        =      3.429871    -0.000000    -0.000003     3.429869
	 ---------------------------------------------------------------------------

  ==> Convergence Check <==

  Measures of convergence in internal coordinates in au.
  Criteria marked as inactive (o), active & met (*), and active & unmet ( ).
  ---------------------------------------------------------------------------------------------
   Step     Total Energy     Delta E     MAX Force     RMS Force      MAX Disp      RMS Disp   
  ---------------------------------------------------------------------------------------------
    Convergence Criteria             o    2.00e-06 *    1.00e-06 *    6.00e-06 *    4.00e-06 *
  ---------------------------------------------------------------------------------------------
     11    -314.97802411    3.12e-09 o    1.63e-06 *    3.45e-07 *    5.50e-06 *    1.89e-06 *  ~
  ---------------------------------------------------------------------------------------------


  **** Optimization is complete! (in 11 steps) ****

  ==> Optimization Summary <==

  Measures of convergence in internal coordinates in au.
  --------------------------------------------------------------------------------------------------------------- ~
   Step         Total Energy             Delta E       MAX Force       RMS Force        MAX Disp        RMS Disp  ~
  --------------------------------------------------------------------------------------------------------------- ~
      1    -314.978024106474   -314.978024106474      0.00000074      0.00000017      0.00003216      0.00001115  ~
      2    -314.978024105934      0.000000000539      0.00000139      0.00000033      0.00003179      0.00000955  ~
      3    -314.978024107568     -0.000000001634      0.00000063      0.00000014      0.00000834      0.00000331  ~
      4    -314.978024108027     -0.000000000458      0.00000099      0.00000025      0.00000764      0.00000266  ~
      5    -314.978024107262      0.000000000765      0.00000024      0.00000006      0.00001394      0.00000444  ~
      6    -314.978024105803      0.000000001459      0.00000186      0.00000041      0.00002276      0.00000908  ~
      7    -314.978024109123     -0.000000003320      0.00000136      0.00000029      0.00003439      0.00001126  ~
      8    -314.978024105816      0.000000003308      0.00000081      0.00000015      0.00002386      0.00000804  ~
      9    -314.978024108902     -0.000000003087      0.00000135      0.00000029      0.00001707      0.00000481  ~
     10    -314.978024108889      0.000000000013      0.00000050      0.00000012      0.00001085      0.00000354  ~
     11    -314.978024105772      0.000000003118      0.00000163      0.00000034      0.00000550      0.00000189  ~
  --------------------------------------------------------------------------------------------------------------- ~

	Writing optimization data to binary file.
	Final energy is   -314.9780241057715
	Final (previous) structure:
	Cartesian Geometry (in Angstrom)
	    C    -2.7165346721  -1.4437485498   0.0241758728
	    H    -2.0885624774  -2.0919227927   0.6376331741
	    H    -3.1241971101  -2.0440310367  -0.7888611349
	    H    -3.5486400227  -1.1069638859   0.6442632605
	    C     2.5907015865  -1.2817126787   0.6769883146
	    H     2.5167582413  -0.6143431336   1.5354870249
	    H     3.5563326335  -1.1044550401   0.2010972746
	    H     2.5848207537  -2.3043718661   1.0536841953
	    C    -1.9158244248  -0.2572765662  -0.4968011740
	    H    -2.5439499888   0.3588068114  -1.1458870475
	    H    -1.0932227588  -0.6146679174  -1.1171597943
	    C     1.4538640852  -1.0516606825  -0.3135538239
	    H     1.5563636938  -1.7587022325  -1.1404501077
	    H     0.5014887725  -1.2773117706   0.1681323474
	    C    -1.3873444909   0.6183884070   0.6364398121
	    H    -0.8557757996  -0.0000998052   1.3669218171
	    H    -2.2521250602   1.0282596482   1.1659598590
	    C    -0.4809054974   1.7675526815   0.1792848554
	    H    -0.6108934270   2.6132492670   0.8589038269
	    H    -0.8158271311   2.1140766740  -0.8040627116
	    C     1.0177649541   1.4607656607   0.1172826536
	    H     1.5301290422   2.3906908720  -0.1410333065
	    H     1.3645878538   1.1978236187   1.1208236860
	    C     1.4439957487   0.3724044478  -0.8764453134
	    H     0.7987855823   0.4249631098  -1.7575671794
	    H     2.4558524178   0.5896567679  -1.2312430447
	Saving final (previous) structure.
			--------------------------
			 OPTKING Finished Execution 
			--------------------------

    Final optimized geometry and variables:
    Molecular point group: c1
    Full point group: C1

    Geometry (in Angstrom), charge = 0, multiplicity = 1:

    C           -2.716534672077    -1.443748549779     0.024175872758
    H           -2.088562477415    -2.091922792690     0.637633174103
    H           -3.124197110079    -2.044031036698    -0.788861134884
    H           -3.548640022725    -1.106963885895     0.644263260486
    C            2.590701586500    -1.281712678655     0.676988314583
    H            2.516758241308    -0.614343133565     1.535487024925
    H            3.556332633479    -1.104455040060     0.201097274555
    H            2.584820753667    -2.304371866115     1.053684195296
    C           -1.915824424811    -0.257276566186    -0.496801173959
    H           -2.543949988782     0.358806811414    -1.145887047519
    H           -1.093222758774    -0.614667917446    -1.117159794274
    C            1.453864085203    -1.051660682503    -0.313553823875
    H            1.556363693761    -1.758702232532    -1.140450107740
    H            0.501488772515    -1.277311770643     0.168132347401
    C           -1.387344490904     0.618388406997     0.636439812117
    H           -0.855775799586    -0.000099805222     1.366921817105
    H           -2.252125060150     1.028259648220     1.165959858981
    C           -0.480905497403     1.767552681469     0.179284855409
    H           -0.610893426974     2.613249266980     0.858903826922
    H           -0.815827131139     2.114076674015    -0.804062711566
    C            1.017764954088     1.460765660750     0.117282653572
    H            1.530129042243     2.390690871973    -0.141033306524
    H            1.364587853849     1.197823618696     1.120823686040
    C            1.443995748744     0.372404447832    -0.876445313442
    H            0.798785582330     0.424963109842    -1.757567179369
    H            2.455852417758     0.589656767894    -1.231243044718

	Cleaning optimization helper files.

*** Psi4 exiting successfully. Buy a developer a beer!
