    -----------------------------------------------------------------------
          Psi4: An Open-Source Ab Initio Electronic Structure Package
                              Psi4 1.0.0 Driver

                          Git: Rev {master} 6a9a71b dirty

    J. M. Turney, A. C. Simmonett, R. M. Parrish, E. G. Hohenstein,
    F. A. Evangelista, J. T. Fermann, B. J. Mintz, L. A. Burns, J. J. Wilke,
    M. L. Abrams, N. J. Russ, M. L. Leininger, C. L. Janssen, E. T. Seidl,
    W. D. Allen, H. F. Schaefer, R. A. King, E. F. Valeev, C. D. Sherrill,
    and T. D. Crawford, WIREs Comput. Mol. Sci. 2, 556-565 (2012)
    (doi: 10.1002/wcms.93)

                         Additional Contributions by
    A. E. DePrince, U. Bozkaya, A. Yu. Sokolov, D. G. A. Smith, R. Di Remigio,
    R. M. Richard, J. F. Gonthier, H. R. McAlexander, M. Saitow, and
    B. P. Pritchard
    -----------------------------------------------------------------------


    Psi4 started on: Wed Sep 21 08:41:36 2016

    Process ID:  43562
    PSI4DATADIR: /usr/local/hpc5/psi4conda/share/psi4
    Memory level set to 256.000 MB

  ==> Input File <==

--------------------------------------------------------------------------
memory 60 Gb

molecule molecule_94_psi {
0 1
C            3.043171484900     0.556782779729    -0.704301539970
H            3.840342714137    -0.144285026248    -0.452658059967
H            2.952316507185     1.264693615607     0.119475425241
H            3.354127041273     1.116215651152    -1.586389324539
C           -3.043197296864    -0.556667607904    -0.704317327491
H           -3.354164440014    -1.116000406195    -1.586464087706
H           -3.840355680112     0.144386188049    -0.452596210047
H           -2.952351701437    -1.264667870759     0.119383185079
C            1.734486601982    -0.185940619676    -0.953638344011
H            1.869143593993    -0.867198337102    -1.797318971090
H            0.963226159395     0.525201572501    -1.251797346432
C           -1.734500622677     0.186060801664    -0.953576181280
H           -0.963257824316    -0.525061071066    -1.251827301615
H           -1.869150763717     0.867424072406    -1.797172157955
C            1.275180335092    -0.988401013834     0.266719124163
H            2.128270340330    -1.582678769599     0.607098505290
H            0.504595221892    -1.708094729391    -0.023006618358
C            0.751960639266    -0.143560350814     1.436297375281
H            1.292646777014     0.806697528098     1.473947333606
H            0.985081693320    -0.656967698613     2.372245871501
C           -0.751930949267     0.143359410101     1.436331315617
H           -1.292617444806    -0.806902171578     1.473860625533
H           -0.985034030030     0.656639144706     2.372353833143
C           -1.275168848575     0.988359423447     0.266877469073
H           -2.128248100404     1.582596612577     0.607352614870
H           -0.504586064773     1.708087154177    -0.022768081626
}

set globals {
  reference rhf
  g_convergence gau_verytight
  basis aug-cc-pvtz
  freeze_core true
  scf_type df
  mp_type df
}
optimize('mp2')
--------------------------------------------------------------------------
/usr/local/hpc5/psi4conda/lib/python2.7/site-packages/v2rdm_casscf/v2rdm_casscf.so loaded.

  Memory set to  60.000 GiB by Python script.
gradient() will perform analytic gradient computation.

*** tstart() called on wr37
*** at Wed Sep 21 08:41:37 2016


         ---------------------------------------------------------
                                   SCF
            by Justin Turney, Rob Parrish, and Andy Simmonett
                              RHF Reference
                       12 Threads,  60000 MiB Core
         ---------------------------------------------------------

  ==> Geometry <==

    Molecular point group: c1
    Full point group: C1

    Geometry (in Angstrom), charge = 0, multiplicity = 1:

       Center              X                  Y                   Z               Mass       
    ------------   -----------------  -----------------  -----------------  -----------------
           C          3.043171484900     0.556782779729    -0.704301539970    12.000000000000
           H          3.840342714137    -0.144285026248    -0.452658059967     1.007825032070
           H          2.952316507185     1.264693615607     0.119475425241     1.007825032070
           H          3.354127041273     1.116215651152    -1.586389324539     1.007825032070
           C         -3.043197296864    -0.556667607904    -0.704317327491    12.000000000000
           H         -3.354164440014    -1.116000406195    -1.586464087706     1.007825032070
           H         -3.840355680112     0.144386188049    -0.452596210047     1.007825032070
           H         -2.952351701437    -1.264667870759     0.119383185079     1.007825032070
           C          1.734486601982    -0.185940619676    -0.953638344011    12.000000000000
           H          1.869143593993    -0.867198337102    -1.797318971090     1.007825032070
           H          0.963226159395     0.525201572501    -1.251797346432     1.007825032070
           C         -1.734500622677     0.186060801664    -0.953576181280    12.000000000000
           H         -0.963257824316    -0.525061071066    -1.251827301615     1.007825032070
           H         -1.869150763717     0.867424072406    -1.797172157955     1.007825032070
           C          1.275180335092    -0.988401013834     0.266719124163    12.000000000000
           H          2.128270340330    -1.582678769599     0.607098505290     1.007825032070
           H          0.504595221892    -1.708094729391    -0.023006618358     1.007825032070
           C          0.751960639266    -0.143560350814     1.436297375281    12.000000000000
           H          1.292646777014     0.806697528098     1.473947333606     1.007825032070
           H          0.985081693320    -0.656967698613     2.372245871501     1.007825032070
           C         -0.751930949267     0.143359410101     1.436331315617    12.000000000000
           H         -1.292617444806    -0.806902171578     1.473860625533     1.007825032070
           H         -0.985034030030     0.656639144706     2.372353833143     1.007825032070
           C         -1.275168848575     0.988359423447     0.266877469073    12.000000000000
           H         -2.128248100404     1.582596612577     0.607352614870     1.007825032070
           H         -0.504586064773     1.708087154177    -0.022768081626     1.007825032070

  Running in c1 symmetry.

  Rotational constants: A =      0.09932  B =      0.03412  C =      0.03023 [cm^-1]
  Rotational constants: A =   2977.60283  B =   1022.86301  C =    906.41506 [MHz]
  Nuclear repulsion =  406.114018836030823

  Charge       = 0
  Multiplicity = 1
  Electrons    = 66
  Nalpha       = 33
  Nbeta        = 33

  ==> Algorithm <==

  SCF Algorithm Type is DF.
  DIIS enabled.
  MOM disabled.
  Fractional occupation disabled.
  Guess Type is SAD.
  Energy threshold   = 1.00e-10
  Density threshold  = 1.00e-10
  Integral threshold = 0.00e+00

  ==> Primary Basis <==

  Basis Set: AUG-CC-PVTZ
    Number of shells: 274
    Number of basis function: 782
    Number of Cartesian functions: 890
    Spherical Harmonics?: true
    Max angular momentum: 3

  ==> Pre-Iterations <==

   -------------------------------------------------------
    Irrep   Nso     Nmo     Nalpha   Nbeta   Ndocc  Nsocc
   -------------------------------------------------------
     A        782     782       0       0       0       0
   -------------------------------------------------------
    Total     782     782      33      33      33       0
   -------------------------------------------------------

  ==> Integral Setup <==

  ==> DFJK: Density-Fitted J/K Matrices <==

    J tasked:                  Yes
    K tasked:                  Yes
    wK tasked:                  No
    OpenMP threads:             12
    Integrals threads:          12
    Memory (MB):             42915
    Algorithm:                Core
    Integral Cache:           NONE
    Schwarz Cutoff:          1E-12
    Fitting Condition:       1E-12

   => Auxiliary Basis Set <=

  Basis Set: 
    Number of shells: 492
    Number of basis function: 1660
    Number of Cartesian functions: 2038
    Spherical Harmonics?: true
    Max angular momentum: 4

  Minimum eigenvalue in the overlap matrix is 2.0164215556E-06.
  Using Symmetric Orthogonalization.
  SCF Guess: Superposition of Atomic Densities via on-the-fly atomic UHF.

  ==> Iterations <==

                           Total Energy        Delta E     RMS |[F,P]|

   @DF-RHF iter   0:  -316.93566809343838   -3.16936e+02   6.98758e-03 
   @DF-RHF iter   1:  -313.29171525365552    3.64395e+00   7.06134e-04 
   @DF-RHF iter   2:  -313.49876629472590   -2.07051e-01   2.63689e-04 DIIS
   @DF-RHF iter   3:  -313.52603037243171   -2.72641e-02   1.00175e-04 DIIS
   @DF-RHF iter   4:  -313.53113877057456   -5.10840e-03   1.52455e-05 DIIS
   @DF-RHF iter   5:  -313.53128919075687   -1.50420e-04   5.03871e-06 DIIS
   @DF-RHF iter   6:  -313.53130236794357   -1.31772e-05   1.34555e-06 DIIS
   @DF-RHF iter   7:  -313.53130333075455   -9.62811e-07   2.44253e-07 DIIS
   @DF-RHF iter   8:  -313.53130337601090   -4.52563e-08   6.34007e-08 DIIS
   @DF-RHF iter   9:  -313.53130337851235   -2.50145e-09   2.21687e-08 DIIS
   @DF-RHF iter  10:  -313.53130337881942   -3.07068e-10   5.60455e-09 DIIS
   @DF-RHF iter  11:  -313.53130337884284   -2.34195e-11   1.22389e-09 DIIS
   @DF-RHF iter  12:  -313.53130337884431   -1.47793e-12   3.47518e-10 DIIS
   @DF-RHF iter  13:  -313.53130337884420    1.13687e-13   1.01288e-10 DIIS
   @DF-RHF iter  14:  -313.53130337884397    2.27374e-13   2.58534e-11 DIIS

  ==> Post-Iterations <==

    Orbital Energies (a.u.)
    -----------------------

    Doubly Occupied:                                                      

       1A    -11.211981     2A    -11.211979     3A    -11.211067  
       4A    -11.210931     5A    -11.210499     6A    -11.210034  
       7A    -11.206655     8A    -11.206655     9A     -1.093306  
      10A     -1.056474    11A     -1.008231    12A     -0.945084  
      13A     -0.892385    14A     -0.830987    15A     -0.784950  
      16A     -0.755729    17A     -0.644648    18A     -0.622358  
      19A     -0.613212    20A     -0.602835    21A     -0.574664  
      22A     -0.560373    23A     -0.543761    24A     -0.534834  
      25A     -0.511102    26A     -0.500715    27A     -0.498309  
      28A     -0.471348    29A     -0.468720    30A     -0.455093  
      31A     -0.447138    32A     -0.433912    33A     -0.431802  

    Virtual:                                                              

      34A      0.029168    35A      0.033187    36A      0.033832  
      37A      0.035714    38A      0.048006    39A      0.049085  
      40A      0.049755    41A      0.053368    42A      0.053597  
      43A      0.066613    44A      0.070816    45A      0.072086  
      46A      0.075218    47A      0.078408    48A      0.080055  
      49A      0.088689    50A      0.096023    51A      0.101610  
      52A      0.115907    53A      0.116485    54A      0.125523  
      55A      0.127141    56A      0.130841    57A      0.130936  
      58A      0.134421    59A      0.138872    60A      0.139061  
      61A      0.140973    62A      0.148315    63A      0.149016  
      64A      0.153515    65A      0.158540    66A      0.162433  
      67A      0.165610    68A      0.166908    69A      0.169439  
      70A      0.178879    71A      0.181649    72A      0.181936  
      73A      0.189856    74A      0.192955    75A      0.193060  
      76A      0.201623    77A      0.203402    78A      0.217439  
      79A      0.227997    80A      0.233637    81A      0.236583  
      82A      0.249971    83A      0.254004    84A      0.261388  
      85A      0.261989    86A      0.273581    87A      0.285503  
      88A      0.293645    89A      0.296363    90A      0.297861  
      91A      0.303891    92A      0.307420    93A      0.311706  
      94A      0.311895    95A      0.325581    96A      0.326484  
      97A      0.329622    98A      0.332030    99A      0.332832  
     100A      0.337929   101A      0.341022   102A      0.341332  
     103A      0.350830   104A      0.351264   105A      0.355117  
     106A      0.357915   107A      0.362947   108A      0.367490  
     109A      0.374171   110A      0.374618   111A      0.378292  
     112A      0.380712   113A      0.386881   114A      0.388831  
     115A      0.391138   116A      0.396451   117A      0.403173  
     118A      0.408378   119A      0.411344   120A      0.414449  
     121A      0.422325   122A      0.425279   123A      0.429676  
     124A      0.431621   125A      0.432673   126A      0.438498  
     127A      0.441543   128A      0.448527   129A      0.450649  
     130A      0.455234   131A      0.457390   132A      0.462104  
     133A      0.471914   134A      0.473359   135A      0.474294  
     136A      0.476376   137A      0.482937   138A      0.487937  
     139A      0.491290   140A      0.494604   141A      0.501992  
     142A      0.503497   143A      0.505215   144A      0.513659  
     145A      0.517335   146A      0.523523   147A      0.526127  
     148A      0.530528   149A      0.532022   150A      0.535017  
     151A      0.542194   152A      0.546909   153A      0.548565  
     154A      0.552624   155A      0.554929   156A      0.561630  
     157A      0.561880   158A      0.562564   159A      0.573221  
     160A      0.580136   161A      0.589975   162A      0.590348  
     163A      0.591686   164A      0.598927   165A      0.603586  
     166A      0.605930   167A      0.608886   168A      0.618143  
     169A      0.625638   170A      0.625759   171A      0.633104  
     172A      0.634235   173A      0.644439   174A      0.650040  
     175A      0.654632   176A      0.657694   177A      0.662262  
     178A      0.665074   179A      0.670396   180A      0.679591  
     181A      0.681412   182A      0.685188   183A      0.686523  
     184A      0.687783   185A      0.688619   186A      0.705338  
     187A      0.706754   188A      0.711784   189A      0.718996  
     190A      0.723287   191A      0.732450   192A      0.741643  
     193A      0.742633   194A      0.746911   195A      0.751699  
     196A      0.759436   197A      0.765964   198A      0.774328  
     199A      0.788471   200A      0.792216   201A      0.798228  
     202A      0.798311   203A      0.810725   204A      0.820805  
     205A      0.833578   206A      0.845098   207A      0.848978  
     208A      0.857469   209A      0.860794   210A      0.870338  
     211A      0.880741   212A      0.880753   213A      0.884168  
     214A      0.886954   215A      0.891332   216A      0.899516  
     217A      0.906321   218A      0.907381   219A      0.913216  
     220A      0.917156   221A      0.924052   222A      0.932680  
     223A      0.935400   224A      0.939563   225A      0.946268  
     226A      0.951544   227A      0.952414   228A      0.960441  
     229A      0.961763   230A      0.968314   231A      0.973683  
     232A      0.984814   233A      0.987423   234A      0.987973  
     235A      0.994899   236A      0.995426   237A      1.003669  
     238A      1.005253   239A      1.006354   240A      1.016579  
     241A      1.020902   242A      1.031243   243A      1.031933  
     244A      1.034132   245A      1.036719   246A      1.046630  
     247A      1.050932   248A      1.063743   249A      1.068462  
     250A      1.075869   251A      1.079331   252A      1.086783  
     253A      1.093318   254A      1.096036   255A      1.101916  
     256A      1.104734   257A      1.112538   258A      1.119409  
     259A      1.126944   260A      1.131571   261A      1.134094  
     262A      1.142670   263A      1.144885   264A      1.149219  
     265A      1.154767   266A      1.156045   267A      1.156644  
     268A      1.168690   269A      1.175719   270A      1.181436  
     271A      1.188035   272A      1.194214   273A      1.203995  
     274A      1.207161   275A      1.213026   276A      1.215953  
     277A      1.221657   278A      1.225348   279A      1.228107  
     280A      1.239302   281A      1.246955   282A      1.256685  
     283A      1.257079   284A      1.264215   285A      1.270141  
     286A      1.281728   287A      1.284066   288A      1.285708  
     289A      1.289596   290A      1.296017   291A      1.296272  
     292A      1.300120   293A      1.314395   294A      1.316122  
     295A      1.324293   296A      1.328395   297A      1.333953  
     298A      1.334874   299A      1.343085   300A      1.344837  
     301A      1.351846   302A      1.354734   303A      1.356991  
     304A      1.380041   305A      1.380458   306A      1.392715  
     307A      1.402363   308A      1.410217   309A      1.415992  
     310A      1.417111   311A      1.421866   312A      1.426310  
     313A      1.430466   314A      1.443274   315A      1.449844  
     316A      1.467242   317A      1.469453   318A      1.472112  
     319A      1.474002   320A      1.483236   321A      1.493460  
     322A      1.505715   323A      1.519820   324A      1.520912  
     325A      1.540059   326A      1.542027   327A      1.543297  
     328A      1.548333   329A      1.552402   330A      1.556103  
     331A      1.559748   332A      1.579285   333A      1.583867  
     334A      1.586105   335A      1.602093   336A      1.605913  
     337A      1.612182   338A      1.624770   339A      1.625475  
     340A      1.630703   341A      1.631708   342A      1.646786  
     343A      1.651356   344A      1.654692   345A      1.672565  
     346A      1.681059   347A      1.692424   348A      1.699224  
     349A      1.700953   350A      1.707931   351A      1.718577  
     352A      1.724055   353A      1.730338   354A      1.730843  
     355A      1.736756   356A      1.741624   357A      1.748532  
     358A      1.754588   359A      1.756714   360A      1.766693  
     361A      1.769749   362A      1.772401   363A      1.772503  
     364A      1.787003   365A      1.789922   366A      1.795757  
     367A      1.802821   368A      1.807319   369A      1.811999  
     370A      1.821799   371A      1.831133   372A      1.831946  
     373A      1.838807   374A      1.841756   375A      1.858308  
     376A      1.862736   377A      1.863497   378A      1.869380  
     379A      1.875969   380A      1.878836   381A      1.879913  
     382A      1.891578   383A      1.893474   384A      1.905471  
     385A      1.907208   386A      1.918214   387A      1.926187  
     388A      1.931731   389A      1.946309   390A      1.955387  
     391A      1.963757   392A      1.970141   393A      1.970904  
     394A      1.974623   395A      1.978327   396A      1.989162  
     397A      1.995792   398A      1.996223   399A      2.019143  
     400A      2.028560   401A      2.034730   402A      2.040467  
     403A      2.051089   404A      2.053269   405A      2.060628  
     406A      2.069440   407A      2.069597   408A      2.075994  
     409A      2.077582   410A      2.082864   411A      2.091310  
     412A      2.107793   413A      2.108832   414A      2.116635  
     415A      2.129360   416A      2.138219   417A      2.147188  
     418A      2.150010   419A      2.158995   420A      2.167333  
     421A      2.182770   422A      2.190565   423A      2.197389  
     424A      2.199841   425A      2.214671   426A      2.215067  
     427A      2.227801   428A      2.240312   429A      2.244319  
     430A      2.256760   431A      2.266374   432A      2.266914  
     433A      2.271995   434A      2.281762   435A      2.289468  
     436A      2.294555   437A      2.301833   438A      2.314916  
     439A      2.320622   440A      2.332633   441A      2.340896  
     442A      2.342456   443A      2.352347   444A      2.367302  
     445A      2.373963   446A      2.386091   447A      2.387837  
     448A      2.389350   449A      2.401153   450A      2.412973  
     451A      2.422129   452A      2.431282   453A      2.449261  
     454A      2.452881   455A      2.462153   456A      2.472752  
     457A      2.479967   458A      2.500027   459A      2.523182  
     460A      2.526509   461A      2.531634   462A      2.532134  
     463A      2.556435   464A      2.563916   465A      2.572294  
     466A      2.577168   467A      2.608277   468A      2.608285  
     469A      2.616571   470A      2.623403   471A      2.627701  
     472A      2.640330   473A      2.656060   474A      2.670411  
     475A      2.676194   476A      2.687087   477A      2.715154  
     478A      2.732268   479A      2.747486   480A      2.769811  
     481A      2.773392   482A      2.782858   483A      2.821887  
     484A      2.875700   485A      2.968956   486A      2.998842  
     487A      3.021501   488A      3.072984   489A      3.080332  
     490A      3.157877   491A      3.229421   492A      3.245197  
     493A      3.280061   494A      3.310479   495A      3.376152  
     496A      3.442771   497A      3.448399   498A      3.461814  
     499A      3.470703   500A      3.480026   501A      3.482873  
     502A      3.509471   503A      3.527792   504A      3.535716  
     505A      3.542094   506A      3.563791   507A      3.575904  
     508A      3.590976   509A      3.608552   510A      3.609821  
     511A      3.616294   512A      3.625218   513A      3.650011  
     514A      3.665095   515A      3.668516   516A      3.683468  
     517A      3.693824   518A      3.696326   519A      3.713189  
     520A      3.721859   521A      3.724968   522A      3.730220  
     523A      3.733782   524A      3.738982   525A      3.742384  
     526A      3.748800   527A      3.759095   528A      3.769650  
     529A      3.783505   530A      3.807275   531A      3.809134  
     532A      3.821950   533A      3.824613   534A      3.833708  
     535A      3.833900   536A      3.859254   537A      3.866766  
     538A      3.872118   539A      3.872477   540A      3.877573  
     541A      3.905648   542A      3.916071   543A      3.923768  
     544A      3.929090   545A      3.929565   546A      3.942130  
     547A      3.948626   548A      3.950142   549A      3.958122  
     550A      3.971729   551A      3.981937   552A      3.984707  
     553A      3.986432   554A      3.993898   555A      4.000058  
     556A      4.000719   557A      4.008377   558A      4.019736  
     559A      4.023504   560A      4.027210   561A      4.035361  
     562A      4.039601   563A      4.051074   564A      4.063738  
     565A      4.071158   566A      4.082497   567A      4.090938  
     568A      4.093600   569A      4.108753   570A      4.112353  
     571A      4.123609   572A      4.126987   573A      4.145387  
     574A      4.159531   575A      4.166262   576A      4.175335  
     577A      4.178816   578A      4.185044   579A      4.194405  
     580A      4.199517   581A      4.206803   582A      4.215191  
     583A      4.229489   584A      4.234426   585A      4.239760  
     586A      4.247431   587A      4.250793   588A      4.277993  
     589A      4.285208   590A      4.292077   591A      4.300345  
     592A      4.316961   593A      4.317602   594A      4.328467  
     595A      4.336749   596A      4.341960   597A      4.355585  
     598A      4.365148   599A      4.386443   600A      4.394896  
     601A      4.401376   602A      4.412855   603A      4.421609  
     604A      4.424879   605A      4.441894   606A      4.447401  
     607A      4.454392   608A      4.463051   609A      4.465577  
     610A      4.490756   611A      4.496412   612A      4.512979  
     613A      4.528171   614A      4.544133   615A      4.556508  
     616A      4.564139   617A      4.579373   618A      4.591985  
     619A      4.617660   620A      4.630040   621A      4.647732  
     622A      4.652344   623A      4.663227   624A      4.688232  
     625A      4.691353   626A      4.706533   627A      4.715818  
     628A      4.719217   629A      4.734927   630A      4.742136  
     631A      4.753614   632A      4.781793   633A      4.800636  
     634A      4.801646   635A      4.808918   636A      4.812004  
     637A      4.830022   638A      4.844447   639A      4.857356  
     640A      4.859209   641A      4.867867   642A      4.878959  
     643A      4.879775   644A      4.897478   645A      4.905846  
     646A      4.906996   647A      4.922455   648A      4.935536  
     649A      4.936125   650A      4.937193   651A      4.946514  
     652A      4.965112   653A      4.976494   654A      4.995524  
     655A      5.011896   656A      5.016457   657A      5.029120  
     658A      5.033856   659A      5.050580   660A      5.075794  
     661A      5.097167   662A      5.104552   663A      5.115925  
     664A      5.127116   665A      5.139718   666A      5.139896  
     667A      5.166996   668A      5.188017   669A      5.190036  
     670A      5.206758   671A      5.214369   672A      5.220278  
     673A      5.234561   674A      5.241227   675A      5.251841  
     676A      5.253808   677A      5.264266   678A      5.267716  
     679A      5.280151   680A      5.289807   681A      5.320696  
     682A      5.326084   683A      5.329793   684A      5.340429  
     685A      5.352291   686A      5.368498   687A      5.376494  
     688A      5.381206   689A      5.400588   690A      5.415513  
     691A      5.417805   692A      5.444118   693A      5.444537  
     694A      5.460114   695A      5.468197   696A      5.469975  
     697A      5.483638   698A      5.502724   699A      5.510854  
     700A      5.518545   701A      5.529679   702A      5.550084  
     703A      5.557945   704A      5.569246   705A      5.585201  
     706A      5.598293   707A      5.610436   708A      5.634483  
     709A      5.652942   710A      5.657267   711A      5.680671  
     712A      5.695638   713A      5.697668   714A      5.699571  
     715A      5.711597   716A      5.714240   717A      5.718444  
     718A      5.730211   719A      5.757279   720A      5.761243  
     721A      5.767198   722A      5.768882   723A      5.786316  
     724A      5.787758   725A      5.809836   726A      5.831473  
     727A      5.846294   728A      5.874767   729A      5.891430  
     730A      5.902032   731A      5.922835   732A      5.941652  
     733A      5.972833   734A      6.021068   735A      6.035299  
     736A      6.067316   737A      6.067583   738A      6.082135  
     739A      6.094083   740A      6.121147   741A      6.125407  
     742A      6.153470   743A      6.207792   744A      6.238244  
     745A      6.248177   746A      6.253925   747A      6.294952  
     748A      6.305631   749A      6.306141   750A      6.316189  
     751A      6.317425   752A      6.360725   753A      6.380115  
     754A      6.394227   755A      6.409958   756A      6.411390  
     757A      6.442287   758A      6.475750   759A      6.584062  
     760A      6.685211   761A      6.713699   762A      6.732826  
     763A      6.781460   764A      6.790620   765A      6.837003  
     766A      6.844943   767A      6.904446   768A      6.906127  
     769A      6.988498   770A      7.015678   771A      7.066249  
     772A      7.112674   773A      7.130092   774A      7.152481  
     775A     18.187994   776A     18.309345   777A     18.584235  
     778A     18.603405   779A     18.777374   780A     19.347723  
     781A     19.627211   782A     19.749814  

    Final Occupation by Irrep:
              A 
    DOCC [    33 ]

  Energy converged.

  @DF-RHF Final Energy:  -313.53130337884397

   => Energetics <=

    Nuclear Repulsion Energy =            406.1140188360308230
    One-Electron Energy =               -1227.3671105538028314
    Two-Electron Energy =                 507.7217883389275812
    DFT Exchange-Correlation Energy =       0.0000000000000000
    Empirical Dispersion Energy =           0.0000000000000000
    PCM Polarization Energy =               0.0000000000000000
    EFP Energy =                            0.0000000000000000
    Total Energy =                       -313.5313033788444272


  Saving occupied orbitals to File 180.

*** tstop() called on wr37 at Wed Sep 21 08:42:27 2016
Module time:
	user time   =     513.96 seconds =       8.57 minutes
	system time =       5.93 seconds =       0.10 minutes
	total time  =         50 seconds =       0.83 minutes
Total time:
	user time   =     513.96 seconds =       8.57 minutes
	system time =       5.93 seconds =       0.10 minutes
	total time  =         50 seconds =       0.83 minutes


Properties will be evaluated at   0.000000,   0.000000,   0.000000 Bohr

Properties computed using the SCF density matrix

  Nuclear Dipole Moment: (a.u.)
     X:    -0.0000      Y:     0.0001      Z:    -1.0090

  Electronic Dipole Moment: (a.u.)
     X:     0.0000      Y:    -0.0001      Z:     1.0023

  Dipole Moment: (a.u.)
     X:     0.0000      Y:     0.0000      Z:    -0.0067     Total:     0.0067

  Dipole Moment: (Debye)
     X:     0.0000      Y:     0.0000      Z:    -0.0170     Total:     0.0170


  //>>>>>>>>>>>>>>>>>>>>>>>>>>>>>>>>>>>//
  //               DFMP2               //
  //<<<<<<<<<<<<<<<<<<<<<<<<<<<<<<<<<<<//


*** tstart() called on wr37
*** at Wed Sep 21 08:42:27 2016


*** tstop() called on wr37 at Wed Sep 21 08:42:27 2016
Module time:
	user time   =       2.85 seconds =       0.05 minutes
	system time =       0.07 seconds =       0.00 minutes
	total time  =          0 seconds =       0.00 minutes
Total time:
	user time   =     517.59 seconds =       8.63 minutes
	system time =       6.02 seconds =       0.10 minutes
	total time  =         50 seconds =       0.83 minutes
	 --------------------------------------------------------
	                          DF-MP2                         
	      2nd-Order Density-Fitted Moller-Plesset Theory     
	              RMP2 Wavefunction,  12 Threads             
	                                                         
	        Rob Parrish, Justin Turney, Andy Simmonett,      
	           Ed Hohenstein, and C. David Sherrill          
	 --------------------------------------------------------

   => Auxiliary Basis Set <=

  Basis Set: 
    Number of shells: 476
    Number of basis function: 1676
    Number of Cartesian functions: 2078
    Spherical Harmonics?: true
    Max angular momentum: 4

	 --------------------------------------------------------
	                 NBF =   782, NAUX =  1676
	 --------------------------------------------------------
	   CLASS    FOCC     OCC    AOCC    AVIR     VIR    FVIR
	   PAIRS       8      33      25     749     749       0
	 --------------------------------------------------------

DGAS Warning! /src/lib/libfock/apps.cc:80 is not currently checking restricted

         ------------------------------------------------------------
                                     CPHF                           
                                  Rob Parrish                       
         ------------------------------------------------------------

  ==> Geometry <==

    Molecular point group: c1
    Full point group: C1

    Geometry (in Angstrom), charge = 0, multiplicity = 1:

       Center              X                  Y                   Z               Mass       
    ------------   -----------------  -----------------  -----------------  -----------------
           C          3.043171484900     0.556782779729    -0.704301539970    12.000000000000
           H          3.840342714137    -0.144285026248    -0.452658059967     1.007825032070
           H          2.952316507185     1.264693615607     0.119475425241     1.007825032070
           H          3.354127041273     1.116215651152    -1.586389324539     1.007825032070
           C         -3.043197296864    -0.556667607904    -0.704317327491    12.000000000000
           H         -3.354164440014    -1.116000406195    -1.586464087706     1.007825032070
           H         -3.840355680112     0.144386188049    -0.452596210047     1.007825032070
           H         -2.952351701437    -1.264667870759     0.119383185079     1.007825032070
           C          1.734486601982    -0.185940619676    -0.953638344011    12.000000000000
           H          1.869143593993    -0.867198337102    -1.797318971090     1.007825032070
           H          0.963226159395     0.525201572501    -1.251797346432     1.007825032070
           C         -1.734500622677     0.186060801664    -0.953576181280    12.000000000000
           H         -0.963257824316    -0.525061071066    -1.251827301615     1.007825032070
           H         -1.869150763717     0.867424072406    -1.797172157955     1.007825032070
           C          1.275180335092    -0.988401013834     0.266719124163    12.000000000000
           H          2.128270340330    -1.582678769599     0.607098505290     1.007825032070
           H          0.504595221892    -1.708094729391    -0.023006618358     1.007825032070
           C          0.751960639266    -0.143560350814     1.436297375281    12.000000000000
           H          1.292646777014     0.806697528098     1.473947333606     1.007825032070
           H          0.985081693320    -0.656967698613     2.372245871501     1.007825032070
           C         -0.751930949267     0.143359410101     1.436331315617    12.000000000000
           H         -1.292617444806    -0.806902171578     1.473860625533     1.007825032070
           H         -0.985034030030     0.656639144706     2.372353833143     1.007825032070
           C         -1.275168848575     0.988359423447     0.266877469073    12.000000000000
           H         -2.128248100404     1.582596612577     0.607352614870     1.007825032070
           H         -0.504586064773     1.708087154177    -0.022768081626     1.007825032070

  Nuclear repulsion =  406.114018836030823
  Reference energy  = -313.531303378843972

  ==> Basis Set <==

  Basis Set: AUG-CC-PVTZ
    Number of shells: 274
    Number of basis function: 782
    Number of Cartesian functions: 890
    Spherical Harmonics?: true
    Max angular momentum: 3

  ==> CGRSolver (by Rob Parrish) <==

   Number of roots    =         1
   Preconditioning    =    JACOBI
   Convergence cutoff =     1E-06
   Maximum iterations =       100

  ==> CPHFRHamiltonian (by Rob Parrish) <== 

  ==> DFJK: Density-Fitted J/K Matrices <==

    J tasked:                  Yes
    K tasked:                  Yes
    wK tasked:                  No
    OpenMP threads:             12
    Integrals threads:          12
    Memory (MB):             42915
    Algorithm:                Core
    Integral Cache:           NONE
    Schwarz Cutoff:          1E-12
    Fitting Condition:       1E-12

   => Auxiliary Basis Set <=

  Basis Set: 
    Number of shells: 492
    Number of basis function: 1660
    Number of Cartesian functions: 2038
    Spherical Harmonics?: true
    Max angular momentum: 4

  ==> CPHF Iterations <==

  => Iterations <=

             Iter  Converged  Remaining    Residual
  CGR           1          0          1   9.370E-02
  CGR           2          0          1   1.365E-02
  CGR           3          0          1   4.175E-03
  CGR           4          0          1   9.227E-04
  CGR           5          0          1   2.143E-04
  CGR           6          0          1   4.243E-05
  CGR           7          0          1   1.246E-05
  CGR           8          0          1   3.219E-06
  CGR           9          1          0   8.256E-07

    CGRSolver converged.

  ==> DFCorrGrad: Density-Fitted Correlated Gradients <==

    OpenMP threads:             12
    Integrals threads:          12
    Memory (MB):             42915
    Schwarz Cutoff:          0E+00
    Fitting Condition:       1E-12

   => Auxiliary Basis Set <=

  Basis Set: 
    Number of shells: 492
    Number of basis function: 1660
    Number of Cartesian functions: 2038
    Spherical Harmonics?: true
    Max angular momentum: 4

	-----------------------------------------------------------
	 ==================> DF-MP2 Energies <==================== 
	-----------------------------------------------------------
	 Reference Energy          =    -313.5313033788439725 [Eh]
	 Singles Energy            =      -0.0000000000000001 [Eh]
	 Same-Spin Energy          =      -0.3176631219123918 [Eh]
	 Opposite-Spin Energy      =      -1.1276669558346060 [Eh]
	 Correlation Energy        =      -1.4453300777469977 [Eh]
	 Total Energy              =    -314.9766334565909460 [Eh]
	-----------------------------------------------------------
	 ================> DF-SCS-MP2 Energies <================== 
	-----------------------------------------------------------
	 SCS Same-Spin Scale       =       0.3333333333333333 [-]
	 SCS Opposite-Spin Scale   =       1.2000000000000000 [-]
	 SCS Same-Spin Energy      =      -0.1058877073041306 [Eh]
	 SCS Opposite-Spin Energy  =      -1.3532003470015270 [Eh]
	 SCS Correlation Energy    =      -1.4590880543056577 [Eh]
	 SCS Total Energy          =    -314.9903914331496253 [Eh]
	-----------------------------------------------------------


  -Total Gradient:
     Atom            X                  Y                   Z
    ------   -----------------  -----------------  -----------------
       1       -0.000000170622    -0.000000112523    -0.000000185902
       2        0.000000330511    -0.000000227100     0.000000095504
       3       -0.000000058206     0.000000265900     0.000000303562
       4        0.000000160308     0.000000171813    -0.000000336669
       5       -0.000000046158    -0.000000095468     0.000000082326
       6        0.000000003740     0.000000002792     0.000000027906
       7        0.000000081356    -0.000000083555    -0.000000047584
       8        0.000000001653     0.000000140391    -0.000000118045
       9        0.000000593817     0.000000080216     0.000000131370
      10        0.000000160794    -0.000000219097    -0.000000348292
      11       -0.000000484722     0.000000259255    -0.000000079765
      12        0.000000255506     0.000000017355    -0.000000293404
      13       -0.000000104163    -0.000000044741     0.000000143783
      14        0.000000014993    -0.000000005878     0.000000019479
      15       -0.000000484855    -0.000000065215     0.000000067193
      16        0.000000241767    -0.000000123725     0.000000012453
      17       -0.000000182660    -0.000000101337     0.000000084662
      18       -0.000000103237    -0.000000005024     0.000000127979
      19       -0.000000098066    -0.000000002310     0.000000019538
      20        0.000000039422     0.000000134545    -0.000000099013
      21       -0.000000596033    -0.000000351234     0.000000347901
      22        0.000000346779     0.000000623340    -0.000000017265
      23        0.000000005025    -0.000000228676    -0.000000374511
      24        0.000000019032     0.000000196906     0.000000323275
      25        0.000000347879    -0.000000094494     0.000000036299
      26       -0.000000273860    -0.000000132134     0.000000077225


			-----------------------------------------
			 OPTKING 2.0: for geometry optimizations 
			  - R.A. King,  Bethel University        
			-----------------------------------------

	Internal coordinates to be generated automatically.
	Detected frag 1 with atoms:  1 2 3 4 5 6 7 8 9 10 11 12 13 14 15 16 17 18 19 20
	 21 22 23 24 25 26
	---Fragment 1 Bond Connectivity---
	 1 : 2 3 4 9
	 2 : 1
	 3 : 1
	 4 : 1
	 5 : 6 7 8 12
	 6 : 5
	 7 : 5
	 8 : 5
	 9 : 1 10 11 15
	 10 : 9
	 11 : 9
	 12 : 5 13 14 24
	 13 : 12
	 14 : 12
	 15 : 9 16 17 18
	 16 : 15
	 17 : 15
	 18 : 15 19 20 21
	 19 : 18
	 20 : 18
	 21 : 18 22 23 24
	 22 : 21
	 23 : 21
	 24 : 12 21 25 26
	 25 : 24
	 26 : 24

	---Fragment 1 Geometry and Gradient---
	 C           5.7507606819        1.0521669692       -1.3309370255
	 H           7.2571959861       -0.2726591847       -0.8553997652
	 H           5.5790696562        2.3899245755        0.2257758333
	 H           6.3383815229        2.1093418859       -2.9978413635
	 C          -5.7508094594       -1.0519493260       -1.3309668596
	 H          -6.3384521963       -2.1089351319       -2.9979826454
	 H          -7.2572204883        0.2728503528       -0.8552828858
	 H          -5.5791361637       -2.3898759248        0.2256015247
	 C           3.2777046589       -0.3513768482       -1.8021153000
	 H           3.5321694957       -1.6387673600       -3.3964406288
	 H           1.8202336453        0.9924871366       -2.3655541586
	 C          -3.2777311542        0.3516039592       -1.8019978295
	 H          -1.8202934833       -0.9922216274       -2.3656107657
	 H          -3.5321830445        1.6391939379       -3.3961631922
	 C           2.4097416034       -1.8678072256        0.5040260991
	 H           4.0218480800       -2.9908294309        1.1472499107
	 H           0.9535467773       -3.2278312476       -0.0434762079
	 C           1.4209996709       -0.2712897466        2.7142086847
	 H           2.4427483951        1.5244374002        2.7853567948
	 H           1.8615346189       -1.2414890285        4.4828950170
	 C          -1.4209435650        0.2709100237        2.7142728226
	 H          -2.4426929653       -1.5248241203        2.7851929403
	 H          -1.8614445483        1.2408681516        4.4830990349
	 C          -2.4097198970        1.8677286312        0.5043253276
	 H          -4.0218060526        2.9906741766        1.1477301082
	 H          -0.9535294729        3.2278169325       -0.0430254388
	            -0.0000001706       -0.0000001125       -0.0000001859
	             0.0000003305       -0.0000002271        0.0000000955
	            -0.0000000582        0.0000002659        0.0000003036
	             0.0000001603        0.0000001718       -0.0000003367
	            -0.0000000462       -0.0000000955        0.0000000823
	             0.0000000037        0.0000000028        0.0000000279
	             0.0000000814       -0.0000000836       -0.0000000476
	             0.0000000017        0.0000001404       -0.0000001180
	             0.0000005938        0.0000000802        0.0000001314
	             0.0000001608       -0.0000002191       -0.0000003483
	            -0.0000004847        0.0000002593       -0.0000000798
	             0.0000002555        0.0000000174       -0.0000002934
	            -0.0000001042       -0.0000000447        0.0000001438
	             0.0000000150       -0.0000000059        0.0000000195
	            -0.0000004849       -0.0000000652        0.0000000672
	             0.0000002418       -0.0000001237        0.0000000125
	            -0.0000001827       -0.0000001013        0.0000000847
	            -0.0000001032       -0.0000000050        0.0000001280
	            -0.0000000981       -0.0000000023        0.0000000195
	             0.0000000394        0.0000001345       -0.0000000990
	            -0.0000005960       -0.0000003512        0.0000003479
	             0.0000003468        0.0000006233       -0.0000000173
	             0.0000000050       -0.0000002287       -0.0000003745
	             0.0000000190        0.0000001969        0.0000003233
	             0.0000003479       -0.0000000945        0.0000000363
	            -0.0000002739       -0.0000001321        0.0000000772

	Previous optimization step data not found.  Starting new optimization.

	---Fragment 1 Intrafragment Coordinates---
	 - Coordinate -           - BOHR/RAD -       - ANG/DEG -
	 R(1,2)           =         2.061710	       1.091010
	 R(1,3)           =         2.059716	       1.089955
	 R(1,4)           =         2.059487	       1.089834
	 R(1,9)           =         2.882352	       1.525275
	 R(5,6)           =         2.059486	       1.089833
	 R(5,7)           =         2.061709	       1.091009
	 R(5,8)           =         2.059715	       1.089954
	 R(5,12)          =         2.882351	       1.525275
	 R(9,10)          =         2.064946	       1.092722
	 R(9,11)          =         2.060984	       1.090626
	 R(9,15)          =         2.893304	       1.531071
	 R(12,13)         =         2.060983	       1.090625
	 R(12,14)         =         2.064945	       1.092722
	 R(12,24)         =         2.893303	       1.531070
	 R(15,16)         =         2.067318	       1.093977
	 R(15,17)         =         2.066380	       1.093481
	 R(15,18)         =         2.900239	       1.534740
	 R(18,19)         =         2.067285	       1.093960
	 R(18,20)         =         2.064851	       1.092672
	 R(18,21)         =         2.893203	       1.531017
	 R(21,22)         =         2.067284	       1.093960
	 R(21,23)         =         2.064850	       1.092672
	 R(21,24)         =         2.900237	       1.534739
	 R(24,25)         =         2.067317	       1.093977
	 R(24,26)         =         2.066379	       1.093481
	 B(1,9,10)        =         1.900822	     108.909066
	 B(1,9,11)        =         1.911268	     109.507597
	 B(1,9,15)        =         1.963093	     112.476934
	 B(2,1,3)         =         1.879615	     107.693987
	 B(2,1,4)         =         1.883948	     107.942251
	 B(2,1,9)         =         1.930202	     110.592437
	 B(3,1,4)         =         1.877701	     107.584365
	 B(3,1,9)         =         1.947968	     111.610364
	 B(4,1,9)         =         1.941699	     111.251131
	 B(5,12,13)       =         1.911267	     109.507509
	 B(5,12,14)       =         1.900823	     108.909159
	 B(5,12,24)       =         1.963090	     112.476780
	 B(6,5,7)         =         1.883948	     107.942269
	 B(6,5,8)         =         1.877702	     107.584384
	 B(6,5,12)        =         1.941700	     111.251191
	 B(7,5,8)         =         1.879614	     107.693974
	 B(7,5,12)        =         1.930202	     110.592420
	 B(8,5,12)        =         1.947967	     111.610299
	 B(9,15,16)       =         1.874208	     107.384188
	 B(9,15,17)       =         1.923222	     110.192489
	 B(9,15,18)       =         2.005535	     114.908663
	 B(10,9,11)       =         1.857288	     106.414787
	 B(10,9,15)       =         1.902454	     109.002593
	 B(11,9,15)       =         1.925710	     110.335029
	 B(12,24,21)      =         2.005531	     114.908450
	 B(12,24,25)      =         1.874210	     107.384351
	 B(12,24,26)      =         1.923222	     110.192485
	 B(13,12,14)      =         1.857290	     106.414856
	 B(13,12,24)      =         1.925709	     110.334980
	 B(14,12,24)      =         1.902457	     109.002738
	 B(15,18,19)      =         1.913354	     109.627125
	 B(15,18,20)      =         1.897983	     108.746408
	 B(15,18,21)      =         2.024232	     115.979934
	 B(16,15,17)      =         1.848804	     105.928643
	 B(16,15,18)      =         1.904743	     109.133723
	 B(17,15,18)      =         1.900724	     108.903490
	 B(18,21,22)      =         1.899381	     108.826491
	 B(18,21,23)      =         1.872980	     107.313832
	 B(18,21,24)      =         2.024229	     115.979779
	 B(19,18,20)      =         1.847531	     105.855712
	 B(19,18,21)      =         1.899379	     108.826404
	 B(20,18,21)      =         1.872980	     107.313829
	 B(21,24,25)      =         1.904744	     109.133770
	 B(21,24,26)      =         1.900725	     108.903539
	 B(22,21,23)      =         1.847531	     105.855749
	 B(22,21,24)      =         1.913354	     109.627105
	 B(23,21,24)      =         1.897984	     108.746473
	 B(25,24,26)      =         1.848803	     105.928617
	 D(1,9,15,16)     =        -0.868493	     -49.760990
	 D(1,9,15,17)     =        -2.874445	    -164.693578
	 D(1,9,15,18)     =         1.253928	      71.844755
	 D(2,1,9,10)      =        -1.068241	     -61.205722
	 D(2,1,9,11)      =        -3.092695	    -177.198362
	 D(2,1,9,15)      =         1.042641	      59.738943
	 D(3,1,9,10)      =         3.122783	     178.922302
	 D(3,1,9,11)      =         1.098330	      62.929662
	 D(3,1,9,15)      =        -1.049519	     -60.133034
	 D(4,1,9,10)      =         1.025247	      58.742349
	 D(4,1,9,11)      =        -0.999206	     -57.250291
	 D(4,1,9,15)      =         3.136130	     179.687014
	 D(5,12,24,21)    =         1.253947	      71.845882
	 D(5,12,24,25)    =        -0.868474	     -49.759905
	 D(5,12,24,26)    =        -2.874427	    -164.692550
	 D(6,5,12,13)     =        -0.999191	     -57.249451
	 D(6,5,12,14)     =         1.025264	      58.743276
	 D(6,5,12,24)     =         3.136149	     179.688088
	 D(7,5,12,13)     =        -3.092681	    -177.197573
	 D(7,5,12,14)     =        -1.068226	     -61.204846
	 D(7,5,12,24)     =         1.042659	      59.739966
	 D(8,5,12,13)     =         1.098345	      62.930522
	 D(8,5,12,14)     =         3.122800	     178.923248
	 D(8,5,12,24)     =        -1.049500	     -60.131939
	 D(9,15,18,19)    =        -0.573558	     -32.862424
	 D(9,15,18,20)    =        -2.585913	    -148.161909
	 D(9,15,18,21)    =         1.585482	      90.841443
	 D(10,9,15,16)    =         1.241453	      71.130038
	 D(10,9,15,17)    =        -0.764499	     -43.802550
	 D(10,9,15,18)    =        -2.919311	    -167.264216
	 D(11,9,15,16)    =        -3.008230	    -172.358905
	 D(11,9,15,17)    =         1.269003	      72.708507
	 D(11,9,15,18)    =        -0.885810	     -50.753160
	 D(12,24,21,18)   =         1.585486	      90.841679
	 D(12,24,21,22)   =        -0.573553	     -32.862172
	 D(12,24,21,23)   =        -2.585910	    -148.161727
	 D(13,12,24,21)   =        -0.885786	     -50.751776
	 D(13,12,24,25)   =        -3.008207	    -172.357562
	 D(13,12,24,26)   =         1.269025	      72.709793
	 D(14,12,24,21)   =        -2.919290	    -167.262972
	 D(14,12,24,25)   =         1.241474	      71.131242
	 D(14,12,24,26)   =        -0.764479	     -43.801404
	 D(15,18,21,22)   =         1.047925	      60.041691
	 D(15,18,21,23)   =         3.039688	     174.161266
	 D(15,18,21,24)   =        -1.118364	     -64.077512
	 D(16,15,18,19)   =         1.532180	      87.787461
	 D(16,15,18,20)   =        -0.480175	     -27.512024
	 D(16,15,18,21)   =        -2.591965	    -148.508672
	 D(17,15,18,19)   =        -2.740301	    -157.007687
	 D(17,15,18,20)   =         1.530529	      87.692828
	 D(17,15,18,21)   =        -0.581261	     -33.303820
	 D(18,21,24,25)   =        -2.591959	    -148.508335
	 D(18,21,24,26)   =        -0.581255	     -33.303462
	 D(19,18,21,22)   =        -3.068970	    -175.839036
	 D(19,18,21,23)   =        -1.077208	     -61.719461
	 D(19,18,21,24)   =         1.047926	      60.041761
	 D(20,18,21,22)   =        -1.077209	     -61.719549
	 D(20,18,21,23)   =         0.914553	      52.400026
	 D(20,18,21,24)   =         3.039687	     174.161248
	 D(22,21,24,25)   =         1.532186	      87.787814
	 D(22,21,24,26)   =        -2.740295	    -157.007313
	 D(23,21,24,25)   =        -0.480170	     -27.511741
	 D(23,21,24,26)   =         1.530534	      87.693132
	 R(9,12)          =         6.593021	       3.488876
	 R(9,24)          =         6.526170	       3.453500
	 R(12,15)         =         6.526169	       3.453500

	Current energy   :      -314.9766334566

	Generating empirical Hessian (Schlegel '84) for each fragment.
	Taking RFO optimization step.
	Going to follow RFO solution 1.
	Using RFO vector 1.
	Norm of target step-size    0.00013
	Projected energy change by RFO approximation:        -0.0000000001

	Back-transformation to cartesian coordinates...
	Successfully converged to displaced geometry.

	--- Internal Coordinate Step in ANG or DEG, aJ/ANG or AJ/DEG ---
	 ---------------------------------------------------------------------------
	   Coordinate                Previous        Force       Change         New 
	   ----------                --------       ------       ------       ------
	    1 R(1,2)          =      1.091010    -0.000003    -0.000001     1.091009
	    2 R(1,3)          =      1.089955    -0.000003    -0.000001     1.089954
	    3 R(1,4)          =      1.089834    -0.000003    -0.000001     1.089833
	    4 R(1,9)          =      1.525275    -0.000002    -0.000000     1.525274
	    5 R(5,6)          =      1.089833     0.000000     0.000000     1.089833
	    6 R(5,7)          =      1.091009     0.000001     0.000000     1.091010
	    7 R(5,8)          =      1.089954     0.000001     0.000000     1.089954
	    8 R(5,12)         =      1.525275     0.000000     0.000000     1.525275
	    9 R(9,10)         =      1.092722    -0.000004    -0.000001     1.092721
	   10 R(9,11)         =      1.090626    -0.000004    -0.000001     1.090625
	   11 R(9,15)         =      1.531071    -0.000005    -0.000001     1.531070
	   12 R(12,13)        =      1.090625     0.000001     0.000000     1.090625
	   13 R(12,14)        =      1.092722     0.000000     0.000000     1.092722
	   14 R(12,24)        =      1.531070    -0.000002    -0.000000     1.531070
	   15 R(15,16)        =      1.093977    -0.000002    -0.000000     1.093977
	   16 R(15,17)        =      1.093481    -0.000001    -0.000000     1.093481
	   17 R(15,18)        =      1.534740    -0.000002    -0.000000     1.534740
	   18 R(18,19)        =      1.093960     0.000000     0.000000     1.093960
	   19 R(18,20)        =      1.092672     0.000001     0.000000     1.092672
	   20 R(18,21)        =      1.531017    -0.000000     0.000000     1.531017
	   21 R(21,22)        =      1.093960     0.000006     0.000001     1.093961
	   22 R(21,23)        =      1.092672     0.000004     0.000001     1.092672
	   23 R(21,24)        =      1.534739     0.000002     0.000001     1.534740
	   24 R(24,25)        =      1.093977     0.000003     0.000000     1.093977
	   25 R(24,26)        =      1.093481     0.000002     0.000000     1.093481
	   26 B(1,9,10)       =    108.909066     0.000000     0.000077   108.909143
	   27 B(1,9,11)       =    109.507597    -0.000000    -0.000045   109.507551
	   28 B(1,9,15)       =    112.476934    -0.000000    -0.000103   112.476830
	   29 B(2,1,3)        =    107.693987     0.000000    -0.000002   107.693985
	   30 B(2,1,4)        =    107.942251     0.000000     0.000024   107.942276
	   31 B(2,1,9)        =    110.592437    -0.000000    -0.000021   110.592416
	   32 B(3,1,4)        =    107.584365    -0.000000    -0.000008   107.584357
	   33 B(3,1,9)        =    111.610364     0.000000     0.000010   111.610373
	   34 B(4,1,9)        =    111.251131    -0.000000    -0.000002   111.251129
	   35 B(5,12,13)      =    109.507509     0.000000     0.000063   109.507571
	   36 B(5,12,14)      =    108.909159    -0.000000    -0.000028   108.909131
	   37 B(5,12,24)      =    112.476780    -0.000000     0.000004   112.476784
	   38 B(6,5,7)        =    107.942269     0.000000     0.000001   107.942271
	   39 B(6,5,8)        =    107.584384    -0.000000    -0.000006   107.584377
	   40 B(6,5,12)       =    111.251191    -0.000000    -0.000015   111.251175
	   41 B(7,5,8)        =    107.693974    -0.000000     0.000004   107.693978
	   42 B(7,5,12)       =    110.592420    -0.000000    -0.000002   110.592418
	   43 B(8,5,12)       =    111.610299     0.000000     0.000018   111.610316
	   44 B(9,15,16)      =    107.384188     0.000000     0.000064   107.384252
	   45 B(9,15,17)      =    110.192489    -0.000000    -0.000060   110.192429
	   46 B(9,15,18)      =    114.908663    -0.000000    -0.000056   114.908608
	   47 B(10,9,11)      =    106.414787    -0.000000     0.000007   106.414794
	   48 B(10,9,15)      =    109.002593     0.000000     0.000002   109.002595
	   49 B(11,9,15)      =    110.335029     0.000000     0.000069   110.335099
	   50 B(12,24,21)     =    114.908450    -0.000000     0.000010   114.908460
	   51 B(12,24,25)     =    107.384351    -0.000000    -0.000109   107.384242
	   52 B(12,24,26)     =    110.192485     0.000000     0.000021   110.192506
	   53 B(13,12,14)     =    106.414856    -0.000000    -0.000049   106.414807
	   54 B(13,12,24)     =    110.334980     0.000000     0.000046   110.335025
	   55 B(14,12,24)     =    109.002738    -0.000000    -0.000040   109.002698
	   56 B(15,18,19)     =    109.627125    -0.000000    -0.000022   109.627103
	   57 B(15,18,20)     =    108.746408     0.000000    -0.000028   108.746380
	   58 B(15,18,21)     =    115.979934    -0.000000     0.000031   115.979965
	   59 B(16,15,17)     =    105.928643    -0.000000     0.000001   105.928644
	   60 B(16,15,18)     =    109.133723    -0.000000     0.000002   109.133725
	   61 B(17,15,18)     =    108.903490     0.000000     0.000053   108.903543
	   62 B(18,21,22)     =    108.826491    -0.000000    -0.000032   108.826459
	   63 B(18,21,23)     =    107.313832    -0.000000    -0.000070   107.313761
	   64 B(18,21,24)     =    115.979779     0.000000     0.000152   115.979931
	   65 B(19,18,20)     =    105.855712     0.000000     0.000018   105.855730
	   66 B(19,18,21)     =    108.826404     0.000000     0.000052   108.826456
	   67 B(20,18,21)     =    107.313829    -0.000000    -0.000053   107.313777
	   68 B(21,24,25)     =    109.133770     0.000000     0.000014   109.133784
	   69 B(21,24,26)     =    108.903539     0.000000     0.000014   108.903553
	   70 B(22,21,23)     =    105.855749     0.000000    -0.000006   105.855743
	   71 B(22,21,24)     =    109.627105    -0.000000    -0.000042   109.627063
	   72 B(23,21,24)     =    108.746473    -0.000000    -0.000015   108.746458
	   73 B(25,24,26)     =    105.928617     0.000000     0.000052   105.928669
	   74 D(1,9,15,16)    =    -49.760990    -0.000000     0.000786   -49.760204
	   75 D(1,9,15,17)    =   -164.693578    -0.000000     0.000780  -164.692798
	   76 D(1,9,15,18)    =     71.844755    -0.000000     0.000799    71.845554
	   77 D(2,1,9,10)     =    -61.205722     0.000000     0.000466   -61.205256
	   78 D(2,1,9,11)     =   -177.198362     0.000000     0.000439  -177.197923
	   79 D(2,1,9,15)     =     59.738943    -0.000000     0.000455    59.739398
	   80 D(3,1,9,10)     =    178.922302     0.000000     0.000476   178.922778
	   81 D(3,1,9,11)     =     62.929662     0.000000     0.000450    62.930111
	   82 D(3,1,9,15)     =    -60.133034    -0.000000     0.000465   -60.132568
	   83 D(4,1,9,10)     =     58.742349     0.000000     0.000482    58.742830
	   84 D(4,1,9,11)     =    -57.250291     0.000000     0.000455   -57.249836
	   85 D(4,1,9,15)     =    179.687014    -0.000000     0.000470   179.687484
	   86 D(5,12,24,21)   =     71.845882     0.000000    -0.001772    71.844109
	   87 D(5,12,24,25)   =    -49.759905     0.000000    -0.001717   -49.761621
	   88 D(5,12,24,26)   =   -164.692550    -0.000000    -0.001729  -164.694279
	   89 D(6,5,12,13)    =    -57.249451     0.000000    -0.000338   -57.249789
	   90 D(6,5,12,14)    =     58.743276    -0.000000    -0.000378    58.742898
	   91 D(6,5,12,24)    =    179.688088    -0.000000    -0.000445   179.687643
	   92 D(7,5,12,13)    =   -177.197573     0.000000    -0.000329  -177.197902
	   93 D(7,5,12,14)    =    -61.204846     0.000000    -0.000368   -61.205215
	   94 D(7,5,12,24)    =     59.739966    -0.000000    -0.000436    59.739530
	   95 D(8,5,12,13)    =     62.930522     0.000000    -0.000345    62.930177
	   96 D(8,5,12,14)    =    178.923248    -0.000000    -0.000385   178.922864
	   97 D(8,5,12,24)    =    -60.131939    -0.000000    -0.000452   -60.132391
	   98 D(9,15,18,19)   =    -32.862424    -0.000000    -0.000425   -32.862849
	   99 D(9,15,18,20)   =   -148.161909    -0.000000    -0.000419  -148.162328
	  100 D(9,15,18,21)   =     90.841443    -0.000000    -0.000350    90.841093
	  101 D(10,9,15,16)   =     71.130038     0.000000     0.000818    71.130856
	  102 D(10,9,15,17)   =    -43.802550     0.000000     0.000812   -43.801738
	  103 D(10,9,15,18)   =   -167.264216    -0.000000     0.000831  -167.263385
	  104 D(11,9,15,16)   =   -172.358905     0.000000     0.000867  -172.358039
	  105 D(11,9,15,17)   =     72.708507     0.000000     0.000861    72.709368
	  106 D(11,9,15,18)   =    -50.753160     0.000000     0.000880   -50.752280
	  107 D(12,24,21,18)  =     90.841679    -0.000000     0.000256    90.841934
	  108 D(12,24,21,22)  =    -32.862172    -0.000000     0.000218   -32.861953
	  109 D(12,24,21,23)  =   -148.161727     0.000000     0.000257  -148.161469
	  110 D(13,12,24,21)  =    -50.751776    -0.000000    -0.001889   -50.753665
	  111 D(13,12,24,25)  =   -172.357562    -0.000000    -0.001834  -172.359396
	  112 D(13,12,24,26)  =     72.709793    -0.000000    -0.001846    72.707947
	  113 D(14,12,24,21)  =   -167.262972    -0.000000    -0.001833  -167.264805
	  114 D(14,12,24,25)  =     71.131242    -0.000000    -0.001777    71.129464
	  115 D(14,12,24,26)  =    -43.801404    -0.000000    -0.001789   -43.803193
	  116 D(15,18,21,22)  =     60.041691     0.000000     0.001187    60.042878
	  117 D(15,18,21,23)  =    174.161266     0.000000     0.001128   174.162393
	  118 D(15,18,21,24)  =    -64.077512     0.000000     0.001156   -64.076356
	  119 D(16,15,18,19)  =     87.787461    -0.000000    -0.000378    87.787083
	  120 D(16,15,18,20)  =    -27.512024    -0.000000    -0.000373   -27.512396
	  121 D(16,15,18,21)  =   -148.508672     0.000000    -0.000303  -148.508975
	  122 D(17,15,18,19)  =   -157.007687     0.000000    -0.000347  -157.008034
	  123 D(17,15,18,20)  =     87.692828     0.000000    -0.000341    87.692487
	  124 D(17,15,18,21)  =    -33.303820     0.000000    -0.000271   -33.304092
	  125 D(18,21,24,25)  =   -148.508335    -0.000000     0.000132  -148.508203
	  126 D(18,21,24,26)  =    -33.303462    -0.000000     0.000209   -33.303253
	  127 D(19,18,21,22)  =   -175.839036    -0.000000     0.001223  -175.837813
	  128 D(19,18,21,23)  =    -61.719461    -0.000000     0.001164   -61.718297
	  129 D(19,18,21,24)  =     60.041761     0.000000     0.001192    60.042953
	  130 D(20,18,21,22)  =    -61.719549     0.000000     0.001243   -61.718306
	  131 D(20,18,21,23)  =     52.400026     0.000000     0.001184    52.401210
	  132 D(20,18,21,24)  =    174.161248     0.000000     0.001213   174.162461
	  133 D(22,21,24,25)  =     87.787814    -0.000000     0.000095    87.787909
	  134 D(22,21,24,26)  =   -157.007313     0.000000     0.000172  -157.007141
	  135 D(23,21,24,25)  =    -27.511741    -0.000000     0.000133   -27.511607
	  136 D(23,21,24,26)  =     87.693132     0.000000     0.000210    87.693343
	  137 R(9,12)         =      3.488876     0.000001     0.000008     3.488884
	  138 R(9,24)         =      3.453500    -0.000002    -0.000012     3.453489
	  139 R(12,15)        =      3.453500     0.000001     0.000000     3.453500
	 ---------------------------------------------------------------------------

  ==> Convergence Check <==

  Measures of convergence in internal coordinates in au.
  Criteria marked as inactive (o), active & met (*), and active & unmet ( ).
  --------------------------------------------------------------------------------------------- ~
   Step     Total Energy     Delta E     MAX Force     RMS Force      MAX Disp      RMS Disp    ~
  --------------------------------------------------------------------------------------------- ~
    Convergence Criteria             o    2.00e-06 *    1.00e-06 *    6.00e-06 *    4.00e-06 *  ~
  --------------------------------------------------------------------------------------------- ~
      1    -314.97663346   -3.15e+02 o    7.16e-07 *    1.55e-07 *    3.30e-05      1.10e-05    ~
  ---------------------------------------------------------------------------------------------

	Writing optimization data to binary file.
	Structure for next step:
	Cartesian Geometry (in Angstrom)
	    C     3.0431841124   0.5567739584  -0.7042905760
	    H     3.8403462136  -0.1443104621  -0.4526671715
	    H     2.9523445663   1.2646680086   0.1195017107
	    H     3.3541418339   1.1162211447  -1.5863677480
	    C    -3.0431915254  -0.5566860402  -0.7043005844
	    H    -3.3541709015  -1.1160173384  -1.5864440417
	    H    -3.8403531306   0.1443566671  -0.4525579956
	    H    -2.9523195178  -1.2646904272   0.1193938245
	    C     1.7344874905  -0.1859252950  -0.9536350970
	    H     1.8691305384  -0.8671730005  -1.7973251817
	    H     0.9632384707   0.5252333542  -1.2517814139
	    C    -1.7345093603   0.1860598753  -0.9535836571
	    H    -0.9632619609  -0.5250507533  -1.2518501707
	    H    -1.8691848285   0.8674214457  -1.7971770092
	    C     1.2751741256  -0.9883949177   0.2667123194
	    H     2.1282595889  -1.5826795685   0.6070897621
	    H     0.5045873189  -1.7080821838  -0.0230239291
	    C     0.7519538568  -0.1435622582   1.4362956288
	    H     1.2926493106   0.8066898363   1.4739599376
	    H     0.9850630277  -0.6569827115   2.3722401472
	    C    -0.7519353387   0.1433712580   1.4363228274
	    H    -1.2926306183  -0.8068862887   1.4738599089
	    H    -0.9850352447   0.6566614291   2.3723411787
	    C    -1.2751663251   0.9883655063   0.2668608569
	    H    -2.1282400989   1.5826143653   0.6073309001
	    H    -0.5045762607   1.7080826775  -0.0227933001
			--------------------------
			 OPTKING Finished Execution 
			--------------------------

    Structure for next step:
    Molecular point group: c1
    Full point group: C1

    Geometry (in Angstrom), charge = 0, multiplicity = 1:

    C            3.043184527258     0.556773066188    -0.704289596233
    H            3.840346628512    -0.144311354248    -0.452666191728
    H            2.952344981171     1.264667116447     0.119502690419
    H            3.354142248825     1.116220252574    -1.586366768297
    C           -3.043191110526    -0.556686932390    -0.704299604682
    H           -3.354170486642    -1.116018230544    -1.586443061956
    H           -3.840352715763     0.144355774916    -0.452557015849
    H           -2.952319102930    -1.264691319374     0.119394804267
    C            1.734487905368    -0.185926187153    -0.953634117316
    H            1.869130953254    -0.867173892645    -1.797324201996
    H            0.963238885557     0.525232462076    -1.251780434210
    C           -1.734508945378     0.186058983096    -0.953582677350
    H           -0.963261546054    -0.525051645428    -1.251849191001
    H           -1.869184413590     0.867420553538    -1.797176029467
    C            1.275174540477    -0.988395809847     0.266713299169
    H            2.128260003740    -1.582680460625     0.607090741856
    H            0.504587733759    -1.708083075995    -0.023022949370
    C            0.751954271673    -0.143563150366     1.436296608568
    H            1.292649725507     0.806688944157     1.473960917305
    H            0.985063442627    -0.656983603669     2.372241126940
    C           -0.751934923782     0.143370365810     1.436323807088
    H           -1.292630203401    -0.806887180826     1.473860888617
    H           -0.985034829828     0.656660536919     2.372342158426
    C           -1.275165910246     0.988364614138     0.266861836636
    H           -2.128239684007     1.582613473109     0.607331879819
    H           -0.504575845810     1.708081785334    -0.022792320418

gradient() will perform analytic gradient computation.

*** tstart() called on wr37
*** at Wed Sep 21 08:45:23 2016


         ---------------------------------------------------------
                                   SCF
            by Justin Turney, Rob Parrish, and Andy Simmonett
                              RHF Reference
                       12 Threads,  60000 MiB Core
         ---------------------------------------------------------

  ==> Geometry <==

    Molecular point group: c1
    Full point group: C1

    Geometry (in Angstrom), charge = 0, multiplicity = 1:

       Center              X                  Y                   Z               Mass       
    ------------   -----------------  -----------------  -----------------  -----------------
           C          3.043184527258     0.556773066188    -0.704289596233    12.000000000000
           H          3.840346628512    -0.144311354248    -0.452666191728     1.007825032070
           H          2.952344981171     1.264667116447     0.119502690419     1.007825032070
           H          3.354142248825     1.116220252574    -1.586366768297     1.007825032070
           C         -3.043191110526    -0.556686932390    -0.704299604682    12.000000000000
           H         -3.354170486642    -1.116018230544    -1.586443061956     1.007825032070
           H         -3.840352715763     0.144355774916    -0.452557015849     1.007825032070
           H         -2.952319102930    -1.264691319374     0.119394804267     1.007825032070
           C          1.734487905368    -0.185926187153    -0.953634117316    12.000000000000
           H          1.869130953254    -0.867173892645    -1.797324201996     1.007825032070
           H          0.963238885557     0.525232462076    -1.251780434210     1.007825032070
           C         -1.734508945378     0.186058983096    -0.953582677350    12.000000000000
           H         -0.963261546054    -0.525051645428    -1.251849191001     1.007825032070
           H         -1.869184413590     0.867420553538    -1.797176029467     1.007825032070
           C          1.275174540477    -0.988395809847     0.266713299169    12.000000000000
           H          2.128260003740    -1.582680460625     0.607090741856     1.007825032070
           H          0.504587733759    -1.708083075995    -0.023022949370     1.007825032070
           C          0.751954271673    -0.143563150366     1.436296608568    12.000000000000
           H          1.292649725507     0.806688944157     1.473960917305     1.007825032070
           H          0.985063442627    -0.656983603669     2.372241126940     1.007825032070
           C         -0.751934923782     0.143370365810     1.436323807088    12.000000000000
           H         -1.292630203401    -0.806887180826     1.473860888617     1.007825032070
           H         -0.985034829828     0.656660536919     2.372342158426     1.007825032070
           C         -1.275165910246     0.988364614138     0.266861836636    12.000000000000
           H         -2.128239684007     1.582613473109     0.607331879819     1.007825032070
           H         -0.504575845810     1.708081785334    -0.022792320418     1.007825032070

  Running in c1 symmetry.

  Rotational constants: A =      0.09932  B =      0.03412  C =      0.03023 [cm^-1]
  Rotational constants: A =   2977.61937  B =   1022.86122  C =    906.41555 [MHz]
  Nuclear repulsion =  406.114112343770557

  Charge       = 0
  Multiplicity = 1
  Electrons    = 66
  Nalpha       = 33
  Nbeta        = 33

  ==> Algorithm <==

  SCF Algorithm Type is DF.
  DIIS enabled.
  MOM disabled.
  Fractional occupation disabled.
  Guess Type is READ.
  Energy threshold   = 1.00e-10
  Density threshold  = 1.00e-10
  Integral threshold = 0.00e+00

  ==> Primary Basis <==

  Basis Set: AUG-CC-PVTZ
    Number of shells: 274
    Number of basis function: 782
    Number of Cartesian functions: 890
    Spherical Harmonics?: true
    Max angular momentum: 3

  ==> Pre-Iterations <==

   -------------------------------------------------------
    Irrep   Nso     Nmo     Nalpha   Nbeta   Ndocc  Nsocc
   -------------------------------------------------------
     A        782     782       0       0       0       0
   -------------------------------------------------------
    Total     782     782      33      33      33       0
   -------------------------------------------------------

  ==> Integral Setup <==

  ==> DFJK: Density-Fitted J/K Matrices <==

    J tasked:                  Yes
    K tasked:                  Yes
    wK tasked:                  No
    OpenMP threads:             12
    Integrals threads:          12
    Memory (MB):             42915
    Algorithm:                Core
    Integral Cache:           NONE
    Schwarz Cutoff:          1E-12
    Fitting Condition:       1E-12

   => Auxiliary Basis Set <=

  Basis Set: 
    Number of shells: 492
    Number of basis function: 1660
    Number of Cartesian functions: 2038
    Spherical Harmonics?: true
    Max angular momentum: 4

  Minimum eigenvalue in the overlap matrix is 2.0164468275E-06.
  Using Symmetric Orthogonalization.
  SCF Guess: Reading in previously saved MOs, projecting if necessary.

  Using orbitals from previous SCF, no projection.
  Recomputing DOCC and SOCC from number of alpha and beta electrons from previous calculation.
              A 
    DOCC [    33 ]

  ==> Iterations <==

                           Total Energy        Delta E     RMS |[F,P]|

   @DF-RHF iter   0:  -313.53129900388024   -3.13531e+02   7.21867e-08 
   @DF-RHF iter   1:  -313.53130332313674   -4.31926e-06   1.52485e-08 
   @DF-RHF iter   2:  -313.53130332326793   -1.31195e-10   6.10315e-09 DIIS
   @DF-RHF iter   3:  -313.53130332328669   -1.87583e-11   2.68859e-09 DIIS
   @DF-RHF iter   4:  -313.53130332329158   -4.88853e-12   2.99998e-10 DIIS
   @DF-RHF iter   5:  -313.53130332329113    4.54747e-13   9.83674e-11 DIIS

  ==> Post-Iterations <==

    Orbital Energies (a.u.)
    -----------------------

    Doubly Occupied:                                                      

       1A    -11.211981     2A    -11.211978     3A    -11.211067  
       4A    -11.210931     5A    -11.210499     6A    -11.210034  
       7A    -11.206655     8A    -11.206655     9A     -1.093306  
      10A     -1.056474    11A     -1.008231    12A     -0.945083  
      13A     -0.892385    14A     -0.830987    15A     -0.784949  
      16A     -0.755728    17A     -0.644649    18A     -0.622358  
      19A     -0.613213    20A     -0.602835    21A     -0.574664  
      22A     -0.560373    23A     -0.543761    24A     -0.534833  
      25A     -0.511102    26A     -0.500715    27A     -0.498309  
      28A     -0.471349    29A     -0.468720    30A     -0.455093  
      31A     -0.447137    32A     -0.433911    33A     -0.431801  

    Virtual:                                                              

      34A      0.029168    35A      0.033187    36A      0.033832  
      37A      0.035714    38A      0.048006    39A      0.049085  
      40A      0.049755    41A      0.053368    42A      0.053597  
      43A      0.066613    44A      0.070816    45A      0.072086  
      46A      0.075218    47A      0.078408    48A      0.080055  
      49A      0.088689    50A      0.096023    51A      0.101610  
      52A      0.115907    53A      0.116485    54A      0.125523  
      55A      0.127141    56A      0.130841    57A      0.130936  
      58A      0.134421    59A      0.138872    60A      0.139061  
      61A      0.140973    62A      0.148315    63A      0.149015  
      64A      0.153515    65A      0.158540    66A      0.162433  
      67A      0.165610    68A      0.166909    69A      0.169440  
      70A      0.178879    71A      0.181649    72A      0.181936  
      73A      0.189856    74A      0.192955    75A      0.193060  
      76A      0.201623    77A      0.203402    78A      0.217439  
      79A      0.227997    80A      0.233637    81A      0.236584  
      82A      0.249971    83A      0.254004    84A      0.261389  
      85A      0.261989    86A      0.273581    87A      0.285502  
      88A      0.293645    89A      0.296363    90A      0.297861  
      91A      0.303892    92A      0.307420    93A      0.311706  
      94A      0.311896    95A      0.325581    96A      0.326484  
      97A      0.329621    98A      0.332030    99A      0.332832  
     100A      0.337929   101A      0.341022   102A      0.341332  
     103A      0.350829   104A      0.351264   105A      0.355117  
     106A      0.357915   107A      0.362947   108A      0.367490  
     109A      0.374171   110A      0.374618   111A      0.378292  
     112A      0.380713   113A      0.386881   114A      0.388831  
     115A      0.391138   116A      0.396450   117A      0.403173  
     118A      0.408379   119A      0.411345   120A      0.414448  
     121A      0.422326   122A      0.425279   123A      0.429676  
     124A      0.431622   125A      0.432674   126A      0.438498  
     127A      0.441543   128A      0.448528   129A      0.450650  
     130A      0.455234   131A      0.457390   132A      0.462103  
     133A      0.471915   134A      0.473359   135A      0.474294  
     136A      0.476375   137A      0.482936   138A      0.487937  
     139A      0.491289   140A      0.494604   141A      0.501993  
     142A      0.503496   143A      0.505215   144A      0.513659  
     145A      0.517335   146A      0.523524   147A      0.526127  
     148A      0.530527   149A      0.532023   150A      0.535017  
     151A      0.542193   152A      0.546909   153A      0.548566  
     154A      0.552624   155A      0.554929   156A      0.561631  
     157A      0.561880   158A      0.562564   159A      0.573221  
     160A      0.580136   161A      0.589975   162A      0.590349  
     163A      0.591686   164A      0.598928   165A      0.603587  
     166A      0.605930   167A      0.608886   168A      0.618144  
     169A      0.625639   170A      0.625759   171A      0.633104  
     172A      0.634235   173A      0.644438   174A      0.650041  
     175A      0.654633   176A      0.657695   177A      0.662261  
     178A      0.665073   179A      0.670395   180A      0.679590  
     181A      0.681413   182A      0.685188   183A      0.686523  
     184A      0.687785   185A      0.688619   186A      0.705339  
     187A      0.706755   188A      0.711785   189A      0.718996  
     190A      0.723288   191A      0.732452   192A      0.741642  
     193A      0.742633   194A      0.746912   195A      0.751699  
     196A      0.759437   197A      0.765964   198A      0.774328  
     199A      0.788471   200A      0.792215   201A      0.798227  
     202A      0.798310   203A      0.810725   204A      0.820805  
     205A      0.833579   206A      0.845097   207A      0.848978  
     208A      0.857470   209A      0.860794   210A      0.870340  
     211A      0.880741   212A      0.880753   213A      0.884169  
     214A      0.886953   215A      0.891332   216A      0.899516  
     217A      0.906322   218A      0.907380   219A      0.913215  
     220A      0.917157   221A      0.924052   222A      0.932680  
     223A      0.935400   224A      0.939563   225A      0.946268  
     226A      0.951544   227A      0.952414   228A      0.960440  
     229A      0.961764   230A      0.968313   231A      0.973682  
     232A      0.984815   233A      0.987422   234A      0.987973  
     235A      0.994900   236A      0.995425   237A      1.003669  
     238A      1.005253   239A      1.006356   240A      1.016579  
     241A      1.020903   242A      1.031243   243A      1.031933  
     244A      1.034132   245A      1.036720   246A      1.046629  
     247A      1.050932   248A      1.063742   249A      1.068464  
     250A      1.075870   251A      1.079331   252A      1.086782  
     253A      1.093317   254A      1.096035   255A      1.101917  
     256A      1.104732   257A      1.112538   258A      1.119410  
     259A      1.126943   260A      1.131570   261A      1.134096  
     262A      1.142671   263A      1.144884   264A      1.149220  
     265A      1.154767   266A      1.156045   267A      1.156645  
     268A      1.168690   269A      1.175720   270A      1.181437  
     271A      1.188036   272A      1.194215   273A      1.203996  
     274A      1.207162   275A      1.213025   276A      1.215953  
     277A      1.221658   278A      1.225348   279A      1.228107  
     280A      1.239304   281A      1.246955   282A      1.256685  
     283A      1.257080   284A      1.264215   285A      1.270142  
[...]
	 D(13,12,24,26)   =         1.269002	      72.708439
	 D(14,12,24,21)   =        -2.919313	    -167.264330
	 D(14,12,24,25)   =         1.241452	      71.129979
	 D(14,12,24,26)   =        -0.764500	     -43.802614
	 D(15,18,21,22)   =         1.047935	      60.042243
	 D(15,18,21,23)   =         3.039695	     174.161705
	 D(15,18,21,24)   =        -1.118355	     -64.077046
	 D(16,15,18,19)   =         1.532175	      87.787178
	 D(16,15,18,20)   =        -0.480181	     -27.512326
	 D(16,15,18,21)   =        -2.591969	    -148.508858
	 D(17,15,18,19)   =        -2.740306	    -157.007941
	 D(17,15,18,20)   =         1.530524	      87.692555
	 D(17,15,18,21)   =        -0.581264	     -33.303976
	 D(18,21,24,25)   =        -2.591967	    -148.508759
	 D(18,21,24,26)   =        -0.581262	     -33.303872
	 D(19,18,21,22)   =        -3.068960	    -175.838450
	 D(19,18,21,23)   =        -1.077200	     -61.718989
	 D(19,18,21,24)   =         1.047935	      60.042260
	 D(20,18,21,22)   =        -1.077198	     -61.718919
	 D(20,18,21,23)   =         0.914562	      52.400542
	 D(20,18,21,24)   =         3.039697	     174.161791
	 D(22,21,24,25)   =         1.532178	      87.787322
	 D(22,21,24,26)   =        -2.740303	    -157.007790
	 D(23,21,24,25)   =        -0.480177	     -27.512139
	 D(23,21,24,26)   =         1.530527	      87.692748
	 R(9,12)          =         6.593019	       3.488875
	 R(9,24)          =         6.526163	       3.453497
	 R(12,15)         =         6.526171	       3.453501

	Current energy   :      -314.9766334536

	Energy change for the previous step:
		Projected    :        -0.0000000200
		Actual       :        -0.0000000171

	Performing BFGS update.
	Previous computed or guess Hessian on step 1.
	Denominators (dg)(dq) or (dq)(dq) are very small.
	 Skipping Hessian update for step 7.
	Denominators (dg)(dq) or (dq)(dq) are very small.
	 Skipping Hessian update for step 6.
	Denominators (dg)(dq) or (dq)(dq) are very small.
	 Skipping Hessian update for step 5.
	Denominators (dg)(dq) or (dq)(dq) are very small.
	 Skipping Hessian update for step 4.
	Denominators (dg)(dq) or (dq)(dq) are very small.
	 Skipping Hessian update for step 3.
	Denominators (dg)(dq) or (dq)(dq) are very small.
	 Skipping Hessian update for step 2.
	Steps to be used in Hessian update: 1
	Taking RFO optimization step.
	Going to follow RFO solution 1.
	Using RFO vector 1.
	Norm of target step-size    0.00002
	Projected energy change by RFO approximation:        -0.0000000000

	Back-transformation to cartesian coordinates...
	Successfully converged to displaced geometry.

	--- Internal Coordinate Step in ANG or DEG, aJ/ANG or AJ/DEG ---
	 ---------------------------------------------------------------------------
	   Coordinate                Previous        Force       Change         New 
	   ----------                --------       ------       ------       ------
	    1 R(1,2)          =      1.091009     0.000002     0.000000     1.091009
	    2 R(1,3)          =      1.089954     0.000002     0.000000     1.089954
	    3 R(1,4)          =      1.089833     0.000002     0.000000     1.089833
	    4 R(1,9)          =      1.525274     0.000001     0.000000     1.525275
	    5 R(5,6)          =      1.089833     0.000001     0.000000     1.089834
	    6 R(5,7)          =      1.091010     0.000001     0.000000     1.091010
	    7 R(5,8)          =      1.089954     0.000001     0.000000     1.089954
	    8 R(5,12)         =      1.525275     0.000000     0.000000     1.525275
	    9 R(9,10)         =      1.092722     0.000003     0.000000     1.092722
	   10 R(9,11)         =      1.090625     0.000003     0.000000     1.090625
	   11 R(9,15)         =      1.531070     0.000003     0.000000     1.531070
	   12 R(12,13)        =      1.090626     0.000002     0.000000     1.090626
	   13 R(12,14)        =      1.092722     0.000002     0.000000     1.092722
	   14 R(12,24)        =      1.531070     0.000001     0.000000     1.531070
	   15 R(15,16)        =      1.093977     0.000001    -0.000000     1.093977
	   16 R(15,17)        =      1.093481     0.000002     0.000000     1.093481
	   17 R(15,18)        =      1.534740     0.000001    -0.000000     1.534740
	   18 R(18,19)        =      1.093960     0.000000    -0.000000     1.093960
	   19 R(18,20)        =      1.092672    -0.000001    -0.000000     1.092672
	   20 R(18,21)        =      1.531017     0.000000     0.000000     1.531017
	   21 R(21,22)        =      1.093961    -0.000001    -0.000000     1.093961
	   22 R(21,23)        =      1.092672    -0.000000    -0.000000     1.092672
	   23 R(21,24)        =      1.534740    -0.000000    -0.000000     1.534740
	   24 R(24,25)        =      1.093978     0.000001     0.000000     1.093978
	   25 R(24,26)        =      1.093481     0.000002     0.000000     1.093482
	   26 B(1,9,10)       =    108.909143    -0.000000    -0.000000   108.909143
	   27 B(1,9,11)       =    109.507535    -0.000000    -0.000017   109.507518
	   28 B(1,9,15)       =    112.476812     0.000000     0.000000   112.476812
	   29 B(2,1,3)        =    107.693981    -0.000000    -0.000004   107.693977
	   30 B(2,1,4)        =    107.942283    -0.000000    -0.000007   107.942276
	   31 B(2,1,9)        =    110.592417     0.000000     0.000005   110.592421
	   32 B(3,1,4)        =    107.584362     0.000000     0.000003   107.584364
	   33 B(3,1,9)        =    111.610352    -0.000000    -0.000015   111.610337
	   34 B(4,1,9)        =    111.251142     0.000000     0.000018   111.251160
	   35 B(5,12,13)      =    109.507603    -0.000000    -0.000033   109.507570
	   36 B(5,12,14)      =    108.909086    -0.000000     0.000005   108.909091
	   37 B(5,12,24)      =    112.476893     0.000000     0.000018   112.476911
	   38 B(6,5,7)        =    107.942265    -0.000000    -0.000004   107.942260
	   39 B(6,5,8)        =    107.584359    -0.000000    -0.000003   107.584356
	   40 B(6,5,12)       =    111.251117    -0.000000    -0.000007   111.251110
	   41 B(7,5,8)        =    107.693985    -0.000000     0.000001   107.693986
	   42 B(7,5,12)       =    110.592428     0.000000     0.000001   110.592430
	   43 B(8,5,12)       =    111.610382     0.000000     0.000012   111.610393
	   44 B(9,15,16)      =    107.384261    -0.000000     0.000022   107.384283
	   45 B(9,15,17)      =    110.192449     0.000000     0.000019   110.192468
	   46 B(9,15,18)      =    114.908580     0.000000    -0.000026   114.908554
	   47 B(10,9,11)      =    106.414805     0.000000     0.000011   106.414816
	   48 B(10,9,15)      =    109.002614     0.000000     0.000035   109.002648
	   49 B(11,9,15)      =    110.335106    -0.000000    -0.000028   110.335078
	   50 B(12,24,21)     =    114.908620     0.000000     0.000069   114.908689
	   51 B(12,24,25)     =    107.384172    -0.000000    -0.000024   107.384147
	   52 B(12,24,26)     =    110.192496    -0.000000    -0.000010   110.192487
	   53 B(13,12,14)     =    106.414768     0.000000     0.000016   106.414784
	   54 B(13,12,24)     =    110.335078    -0.000000     0.000003   110.335080
	   55 B(14,12,24)     =    109.002579    -0.000000    -0.000009   109.002570
	   56 B(15,18,19)     =    109.627097     0.000000    -0.000008   109.627089
	   57 B(15,18,20)     =    108.746401     0.000000     0.000025   108.746426
	   58 B(15,18,21)     =    115.979924    -0.000000    -0.000029   115.979895
	   59 B(16,15,17)     =    105.928642     0.000000    -0.000008   105.928634
	   60 B(16,15,18)     =    109.133717     0.000000     0.000027   109.133744
	   61 B(17,15,18)     =    108.903552    -0.000000    -0.000031   108.903521
	   62 B(18,21,22)     =    108.826424    -0.000000    -0.000003   108.826421
	   63 B(18,21,23)     =    107.313761     0.000000     0.000008   107.313769
	   64 B(18,21,24)     =    115.980018    -0.000000     0.000015   115.980034
	   65 B(19,18,20)     =    105.855744    -0.000000    -0.000006   105.855738
	   66 B(19,18,21)     =    108.826499     0.000000     0.000014   108.826513
	   67 B(20,18,21)     =    107.313750     0.000000     0.000006   107.313755
	   68 B(21,24,25)     =    109.133712    -0.000000    -0.000020   109.133692
	   69 B(21,24,26)     =    108.903547    -0.000000    -0.000028   108.903519
	   70 B(22,21,23)     =    105.855712    -0.000000     0.000002   105.855713
	   71 B(22,21,24)     =    109.627078     0.000000     0.000006   109.627084
	   72 B(23,21,24)     =    108.746412    -0.000000    -0.000030   108.746382
	   73 B(25,24,26)     =    105.928652     0.000000     0.000009   105.928661
	   74 D(1,9,15,16)    =    -49.760448    -0.000000     0.000176   -49.760272
	   75 D(1,9,15,17)    =   -164.693055    -0.000000     0.000164  -164.692891
	   76 D(1,9,15,18)    =     71.845289     0.000000     0.000210    71.845499
	   77 D(2,1,9,10)     =    -61.205206    -0.000000     0.000137   -61.205069
	   78 D(2,1,9,11)     =   -177.197877    -0.000000     0.000133  -177.197744
	   79 D(2,1,9,15)     =     59.739459     0.000000     0.000180    59.739639
	   80 D(3,1,9,10)     =    178.922847    -0.000000     0.000148   178.922995
	   81 D(3,1,9,11)     =     62.930176    -0.000000     0.000144    62.930320
	   82 D(3,1,9,15)     =    -60.132488     0.000000     0.000192   -60.132297
	   83 D(4,1,9,10)     =     58.742899    -0.000000     0.000142    58.743041
	   84 D(4,1,9,11)     =    -57.249772    -0.000000     0.000138   -57.249633
	   85 D(4,1,9,15)     =    179.687564     0.000000     0.000186   179.687750
	   86 D(5,12,24,21)   =     71.844653    -0.000000    -0.000080    71.844573
	   87 D(5,12,24,25)   =    -49.761038    -0.000000    -0.000081   -49.761119
	   88 D(5,12,24,26)   =   -164.693632    -0.000000    -0.000073  -164.693705
	   89 D(6,5,12,13)    =    -57.250134     0.000000    -0.000018   -57.250152
	   90 D(6,5,12,14)    =     58.742498    -0.000000    -0.000014    58.742483
	   91 D(6,5,12,24)    =    179.687132    -0.000000    -0.000010   179.687122
	   92 D(7,5,12,13)    =   -177.198207     0.000000    -0.000009  -177.198216
	   93 D(7,5,12,14)    =    -61.205575     0.000000    -0.000005   -61.205581
	   94 D(7,5,12,24)    =     59.739059    -0.000000    -0.000001    59.739058
	   95 D(8,5,12,13)    =     62.929813     0.000000    -0.000019    62.929795
	   96 D(8,5,12,14)    =    178.922445    -0.000000    -0.000015   178.922430
	   97 D(8,5,12,24)    =    -60.132921    -0.000000    -0.000011   -60.132931
	   98 D(9,15,18,19)   =    -32.862741     0.000000     0.000117   -32.862624
	   99 D(9,15,18,20)   =   -148.162246     0.000000     0.000115  -148.162131
	  100 D(9,15,18,21)   =     90.841223     0.000000     0.000108    90.841331
	  101 D(10,9,15,16)   =     71.130613    -0.000000     0.000200    71.130812
	  102 D(10,9,15,17)   =    -43.801994    -0.000000     0.000187   -43.801807
	  103 D(10,9,15,18)   =   -167.263650     0.000000     0.000233  -167.263417
	  104 D(11,9,15,16)   =   -172.358254    -0.000000     0.000218  -172.358036
	  105 D(11,9,15,17)   =     72.709139    -0.000000     0.000205    72.709345
	  106 D(11,9,15,18)   =    -50.752516     0.000000     0.000251   -50.752265
	  107 D(12,24,21,18)  =     90.841414    -0.000000    -0.000125    90.841289
	  108 D(12,24,21,22)  =    -32.862504    -0.000000    -0.000138   -32.862643
	  109 D(12,24,21,23)  =   -148.161966     0.000000    -0.000127  -148.162093
	  110 D(13,12,24,21)  =    -50.753277     0.000000    -0.000052   -50.753329
	  111 D(13,12,24,25)  =   -172.358968     0.000000    -0.000053  -172.359021
	  112 D(13,12,24,26)  =     72.708439     0.000000    -0.000045    72.708394
	  113 D(14,12,24,21)  =   -167.264330     0.000000    -0.000067  -167.264397
	  114 D(14,12,24,25)  =     71.129979    -0.000000    -0.000068    71.129911
	  115 D(14,12,24,26)  =    -43.802614     0.000000    -0.000060   -43.802674
	  116 D(15,18,21,22)  =     60.042243     0.000000     0.000163    60.042406
	  117 D(15,18,21,23)  =    174.161705     0.000000     0.000167   174.161872
	  118 D(15,18,21,24)  =    -64.077046     0.000000     0.000145   -64.076901
	  119 D(16,15,18,19)  =     87.787178     0.000000     0.000148    87.787326
	  120 D(16,15,18,20)  =    -27.512326     0.000000     0.000146   -27.512181
	  121 D(16,15,18,21)  =   -148.508858     0.000000     0.000139  -148.508719
	  122 D(17,15,18,19)  =   -157.007941    -0.000000     0.000136  -157.007805
	  123 D(17,15,18,20)  =     87.692555    -0.000000     0.000134    87.692689
	  124 D(17,15,18,21)  =    -33.303976    -0.000000     0.000127   -33.303850
	  125 D(18,21,24,25)  =   -148.508759    -0.000000    -0.000125  -148.508884
	  126 D(18,21,24,26)  =    -33.303872    -0.000000    -0.000141   -33.304013
	  127 D(19,18,21,22)  =   -175.838450     0.000000     0.000142  -175.838308
	  128 D(19,18,21,23)  =    -61.718989     0.000000     0.000147   -61.718842
	  129 D(19,18,21,24)  =     60.042260     0.000000     0.000125    60.042385
	  130 D(20,18,21,22)  =    -61.718919     0.000000     0.000145   -61.718774
	  131 D(20,18,21,23)  =     52.400542     0.000000     0.000150    52.400692
	  132 D(20,18,21,24)  =    174.161791     0.000000     0.000128   174.161919
	  133 D(22,21,24,25)  =     87.787322     0.000000    -0.000138    87.787184
	  134 D(22,21,24,26)  =   -157.007790    -0.000000    -0.000154  -157.007944
	  135 D(23,21,24,25)  =    -27.512139     0.000000    -0.000127   -27.512266
	  136 D(23,21,24,26)  =     87.692748    -0.000000    -0.000143    87.692606
	  137 R(9,12)         =      3.488875    -0.000000     0.000000     3.488876
	  138 R(9,24)         =      3.453497     0.000000    -0.000000     3.453496
	  139 R(12,15)        =      3.453501     0.000000    -0.000002     3.453499
	 ---------------------------------------------------------------------------

  ==> Convergence Check <==

  Measures of convergence in internal coordinates in au.
  Criteria marked as inactive (o), active & met (*), and active & unmet ( ).
  ---------------------------------------------------------------------------------------------
   Step     Total Energy     Delta E     MAX Force     RMS Force      MAX Disp      RMS Disp   
  ---------------------------------------------------------------------------------------------
    Convergence Criteria             o    2.00e-06 *    1.00e-06 *    6.00e-06 *    4.00e-06 *
  ---------------------------------------------------------------------------------------------
      8    -314.97663345   -1.71e-08 o    4.01e-07 *    9.70e-08 *    4.38e-06 *    1.65e-06 *  ~
  ---------------------------------------------------------------------------------------------


  **** Optimization is complete! (in 8 steps) ****

  ==> Optimization Summary <==

  Measures of convergence in internal coordinates in au.
  --------------------------------------------------------------------------------------------------------------- ~
   Step         Total Energy             Delta E       MAX Force       RMS Force        MAX Disp        RMS Disp  ~
  --------------------------------------------------------------------------------------------------------------- ~
      1    -314.976633456591   -314.976633456591      0.00000072      0.00000015      0.00003298      0.00001100  ~
      2    -314.976633453775      0.000000002816      0.00000184      0.00000050      0.00029647      0.00008991  ~
      3    -314.976633455161     -0.000000001386      0.00000690      0.00000162      0.00031844      0.00009418  ~
      4    -314.976633453245      0.000000001916      0.00000081      0.00000021      0.00002109      0.00000760  ~
      5    -314.976633454801     -0.000000001555      0.00000090      0.00000018      0.00002155      0.00000601  ~
      6    -314.976633458278     -0.000000003477      0.00000171      0.00000043      0.00062591      0.00023839  ~
      7    -314.976633436471      0.000000021807      0.00002640      0.00000507      0.00062516      0.00023514  ~
      8    -314.976633453581     -0.000000017110      0.00000040      0.00000010      0.00000438      0.00000165  ~
  --------------------------------------------------------------------------------------------------------------- ~

	Writing optimization data to binary file.
	Final energy is   -314.9766334535810
	Final (previous) structure:
	Cartesian Geometry (in Angstrom)
	    C     3.0431769821   0.5567842617  -0.7042827052
	    H     3.8403446409  -0.1442922148  -0.4526544054
	    H     2.9523284828   1.2646802291   0.1195070446
	    H     3.3541323594   1.1162313789  -1.5863609140
	    C    -3.0431801019  -0.5566929333  -0.7043291225
	    H    -3.3541485128  -1.1160089751  -1.5864862835
	    H    -3.8403478946   0.1443408458  -0.4525803879
	    H    -2.9523120855  -1.2647129923   0.1193524026
	    C     1.7344875388  -0.1859275733  -0.9536283045
	    H     1.8691393368  -0.8671779329  -1.7973150574
	    H     0.9632334296   0.5252233245  -1.2517802438
	    C    -1.7344999048   0.1860645897  -0.9535876190
	    H    -0.9632441773  -0.5250368344  -1.2518554712
	    H    -1.8691709196   0.8674360003  -1.7971740094
	    C     1.2751774104  -0.9883954114   0.2667214443
	    H     2.1282657035  -1.5826743539   0.6071018743
	    H     0.5045944333  -1.7080879393  -0.0230126430
	    C     0.7519522546  -0.1435611021   1.4363008273
	    H     1.2926416641   0.8066944322   1.4739606521
	    H     0.9850643810  -0.6569758036   2.3722476994
	    C    -0.7519386874   0.1433617917   1.4363265523
	    H    -1.2926268804  -0.8069002983   1.4738566105
	    H    -0.9850444170   0.6566437451   2.3723481352
	    C    -1.2751750769   0.9883606298   0.2668701784
	    H    -2.1282600942   1.5825924068   0.6073424080
	    H    -0.5045943904   1.7080934116  -0.0227705528
	Saving final (previous) structure.
			--------------------------
			 OPTKING Finished Execution 
			--------------------------

    Final optimized geometry and variables:
    Molecular point group: c1
    Full point group: C1

    Geometry (in Angstrom), charge = 0, multiplicity = 1:

    C            3.043176982098     0.556784261668    -0.704282705176
    H            3.840344640943    -0.144292214756    -0.452654405406
    H            2.952328482796     1.264680229134     0.119507044602
    H            3.354132359416     1.116231378882    -1.586360913982
    C           -3.043180101870    -0.556692933269    -0.704329122477
    H           -3.354148512832    -1.116008975093    -1.586486283453
    H           -3.840347894607     0.144340845790    -0.452580387910
    H           -2.952312085471    -1.264712992278     0.119352402648
    C            1.734487538848    -0.185927573259    -0.953628304514
    H            1.869139336814    -0.867177932947    -1.797315057364
    H            0.963233429646     0.525223324507    -1.251780243769
    C           -1.734499904813     0.186064589726    -0.953587618990
    H           -0.963244177331    -0.525036834424    -1.251855471207
    H           -1.869170919580     0.867436000288    -1.797174009429
    C            1.275177410356    -0.988395411372     0.266721444286
    H            2.128265703478    -1.582674353910     0.607101874321
    H            0.504594433317    -1.708087939300    -0.023012643017
    C            0.751952254609    -0.143561102132     1.436300827301
    H            1.292641664084     0.806694432155     1.473960652065
    H            0.985064380984    -0.656975803590     2.372247699427
    C           -0.751938687419     0.143361791715     1.436326552265
    H           -1.292626880408    -0.806900298337     1.473856610461
    H           -0.985044416998     0.656643745112     2.372348135208
    C           -1.275175076897     0.988360629829     0.266870178424
    H           -2.128260094182     1.582592406816     0.607342408030
    H           -0.504594390366     1.708093411609    -0.022770552807

	Cleaning optimization helper files.

*** Psi4 exiting successfully. Buy a developer a beer!
