    -----------------------------------------------------------------------
          Psi4: An Open-Source Ab Initio Electronic Structure Package
                              Psi4 1.0.0 Driver

                          Git: Rev {master} 6a9a71b dirty

    J. M. Turney, A. C. Simmonett, R. M. Parrish, E. G. Hohenstein,
    F. A. Evangelista, J. T. Fermann, B. J. Mintz, L. A. Burns, J. J. Wilke,
    M. L. Abrams, N. J. Russ, M. L. Leininger, C. L. Janssen, E. T. Seidl,
    W. D. Allen, H. F. Schaefer, R. A. King, E. F. Valeev, C. D. Sherrill,
    and T. D. Crawford, WIREs Comput. Mol. Sci. 2, 556-565 (2012)
    (doi: 10.1002/wcms.93)

                         Additional Contributions by
    A. E. DePrince, U. Bozkaya, A. Yu. Sokolov, D. G. A. Smith, R. Di Remigio,
    R. M. Richard, J. F. Gonthier, H. R. McAlexander, M. Saitow, and
    B. P. Pritchard
    -----------------------------------------------------------------------


    Psi4 started on: Tue Sep 20 22:40:02 2016

    Process ID:   3994
    PSI4DATADIR: /usr/local/hpc5/psi4conda/share/psi4
    Memory level set to 256.000 MB

  ==> Input File <==

--------------------------------------------------------------------------
memory 60 Gb

molecule molecule_32_psi {
0 1
C           -2.558560902554    -1.434803656312    -0.671479108770
H           -3.511905811695    -1.899283174133    -0.922687895896
H           -1.930039580928    -2.194201086888    -0.202972628017
H           -2.082230579754    -1.137216172340    -1.604889376682
C            3.059171360194    -1.425960681599     0.065370279565
H            3.015157866606    -2.412618304286     0.525883136389
H            3.948517081739    -0.918541706774     0.441228447092
H            3.185016055492    -1.562776883947    -1.009527877917
C           -2.752340613569    -0.247704373337     0.266795449256
H           -3.305467318365    -0.577972244707     1.148842224788
H           -3.370755830172     0.511192537678    -0.220913199009
C            1.806102212335    -0.610126032427     0.360598593438
H            0.928250372000    -1.153038261974     0.003022104989
H            1.684520961042    -0.495019282990     1.441425149189
C           -1.436577389704     0.386130965938     0.711967784396
H           -0.802819493862    -0.382276243652     1.161911531452
H           -1.634727366756     1.120046394019     1.498301467708
C           -0.685304756603     1.092142896470    -0.414974952957
H           -1.328377292600     1.890996823840    -0.794260589502
H           -0.525119011330     0.406687313419    -1.251989071026
C            0.668694350710     1.673281955689     0.016935652176
H            0.833434695143     2.630107122781    -0.483061461960
H            0.642856515470     1.888578778283     1.089905075680
C            1.860020708007     0.766863536824    -0.290575007206
H            1.934502353600     0.638910639054    -1.375677875313
H            2.781112174446     1.267146339739     0.023955604751
}

set globals {
  reference rhf
  g_convergence gau_verytight
  basis aug-cc-pvtz
  freeze_core true
  scf_type df
  mp_type df
}
optimize('mp2')
--------------------------------------------------------------------------
/usr/local/hpc5/psi4conda/lib/python2.7/site-packages/v2rdm_casscf/v2rdm_casscf.so loaded.

  Memory set to  60.000 GiB by Python script.
gradient() will perform analytic gradient computation.

*** tstart() called on wr31
*** at Tue Sep 20 22:40:03 2016


         ---------------------------------------------------------
                                   SCF
            by Justin Turney, Rob Parrish, and Andy Simmonett
                              RHF Reference
                       12 Threads,  60000 MiB Core
         ---------------------------------------------------------

  ==> Geometry <==

    Molecular point group: c1
    Full point group: C1

    Geometry (in Angstrom), charge = 0, multiplicity = 1:

       Center              X                  Y                   Z               Mass       
    ------------   -----------------  -----------------  -----------------  -----------------
           C         -2.558560902554    -1.434803656312    -0.671479108770    12.000000000000
           H         -3.511905811695    -1.899283174133    -0.922687895896     1.007825032070
           H         -1.930039580928    -2.194201086888    -0.202972628017     1.007825032070
           H         -2.082230579754    -1.137216172340    -1.604889376682     1.007825032070
           C          3.059171360194    -1.425960681599     0.065370279565    12.000000000000
           H          3.015157866606    -2.412618304286     0.525883136389     1.007825032070
           H          3.948517081739    -0.918541706774     0.441228447092     1.007825032070
           H          3.185016055492    -1.562776883947    -1.009527877917     1.007825032070
           C         -2.752340613569    -0.247704373337     0.266795449256    12.000000000000
           H         -3.305467318365    -0.577972244707     1.148842224788     1.007825032070
           H         -3.370755830172     0.511192537678    -0.220913199009     1.007825032070
           C          1.806102212335    -0.610126032427     0.360598593438    12.000000000000
           H          0.928250372000    -1.153038261974     0.003022104989     1.007825032070
           H          1.684520961042    -0.495019282990     1.441425149189     1.007825032070
           C         -1.436577389704     0.386130965938     0.711967784396    12.000000000000
           H         -0.802819493862    -0.382276243652     1.161911531452     1.007825032070
           H         -1.634727366756     1.120046394019     1.498301467708     1.007825032070
           C         -0.685304756603     1.092142896470    -0.414974952957    12.000000000000
           H         -1.328377292600     1.890996823840    -0.794260589502     1.007825032070
           H         -0.525119011330     0.406687313419    -1.251989071026     1.007825032070
           C          0.668694350710     1.673281955689     0.016935652176    12.000000000000
           H          0.833434695143     2.630107122781    -0.483061461960     1.007825032070
           H          0.642856515470     1.888578778283     1.089905075680     1.007825032070
           C          1.860020708007     0.766863536824    -0.290575007206    12.000000000000
           H          1.934502353600     0.638910639054    -1.375677875313     1.007825032070
           H          2.781112174446     1.267146339739     0.023955604751     1.007825032070

  Running in c1 symmetry.

  Rotational constants: A =      0.09137  B =      0.03165  C =      0.02600 [cm^-1]
  Rotational constants: A =   2739.19205  B =    948.77680  C =    779.36705 [MHz]
  Nuclear repulsion =  397.773987472092870

  Charge       = 0
  Multiplicity = 1
  Electrons    = 66
  Nalpha       = 33
  Nbeta        = 33

  ==> Algorithm <==

  SCF Algorithm Type is DF.
  DIIS enabled.
  MOM disabled.
  Fractional occupation disabled.
  Guess Type is SAD.
  Energy threshold   = 1.00e-10
  Density threshold  = 1.00e-10
  Integral threshold = 0.00e+00

  ==> Primary Basis <==

  Basis Set: AUG-CC-PVTZ
    Number of shells: 274
    Number of basis function: 782
    Number of Cartesian functions: 890
    Spherical Harmonics?: true
    Max angular momentum: 3

  ==> Pre-Iterations <==

   -------------------------------------------------------
    Irrep   Nso     Nmo     Nalpha   Nbeta   Ndocc  Nsocc
   -------------------------------------------------------
     A        782     782       0       0       0       0
   -------------------------------------------------------
    Total     782     782      33      33      33       0
   -------------------------------------------------------

  ==> Integral Setup <==

  ==> DFJK: Density-Fitted J/K Matrices <==

    J tasked:                  Yes
    K tasked:                  Yes
    wK tasked:                  No
    OpenMP threads:             12
    Integrals threads:          12
    Memory (MB):             42915
    Algorithm:                Core
    Integral Cache:           NONE
    Schwarz Cutoff:          1E-12
    Fitting Condition:       1E-12

   => Auxiliary Basis Set <=

  Basis Set: 
    Number of shells: 492
    Number of basis function: 1660
    Number of Cartesian functions: 2038
    Spherical Harmonics?: true
    Max angular momentum: 4

  Minimum eigenvalue in the overlap matrix is 1.5706848002E-06.
  Using Symmetric Orthogonalization.
  SCF Guess: Superposition of Atomic Densities via on-the-fly atomic UHF.

  ==> Iterations <==

                           Total Energy        Delta E     RMS |[F,P]|

   @DF-RHF iter   0:  -317.02961738683751   -3.17030e+02   7.03685e-03 
   @DF-RHF iter   1:  -313.30694997557799    3.72267e+00   6.89289e-04 
   @DF-RHF iter   2:  -313.51218390921821   -2.05234e-01   2.28767e-04 DIIS
   @DF-RHF iter   3:  -313.53441357367404   -2.22297e-02   9.38437e-05 DIIS
   @DF-RHF iter   4:  -313.53855342948333   -4.13986e-03   1.72122e-05 DIIS
   @DF-RHF iter   5:  -313.53874102050037   -1.87591e-04   4.62932e-06 DIIS
   @DF-RHF iter   6:  -313.53875345012426   -1.24296e-05   1.31335e-06 DIIS
   @DF-RHF iter   7:  -313.53875452049323   -1.07037e-06   2.47335e-07 DIIS
   @DF-RHF iter   8:  -313.53875456605027   -4.55570e-08   6.48982e-08 DIIS
   @DF-RHF iter   9:  -313.53875456857230   -2.52203e-09   1.91272e-08 DIIS
   @DF-RHF iter  10:  -313.53875456878103   -2.08729e-10   5.22774e-09 DIIS
   @DF-RHF iter  11:  -313.53875456879967   -1.86446e-11   1.17467e-09 DIIS
   @DF-RHF iter  12:  -313.53875456880047   -7.95808e-13   3.07366e-10 DIIS
   @DF-RHF iter  13:  -313.53875456880070   -2.27374e-13   8.76390e-11 DIIS

  ==> Post-Iterations <==

    Orbital Energies (a.u.)
    -----------------------

    Doubly Occupied:                                                      

       1A    -11.212536     2A    -11.212235     3A    -11.210879  
       4A    -11.210280     5A    -11.209646     6A    -11.208973  
       7A    -11.207114     8A    -11.206965     9A     -1.093677  
      10A     -1.059698    11A     -1.008868    12A     -0.947240  
      13A     -0.883640    14A     -0.831020    15A     -0.778379  
      16A     -0.768553    17A     -0.646811    18A     -0.620799  
      19A     -0.608314    20A     -0.602516    21A     -0.580336  
      22A     -0.557619    23A     -0.545296    24A     -0.528882  
      25A     -0.511166    26A     -0.504009    27A     -0.485515  
      28A     -0.482536    29A     -0.463886    30A     -0.460207  
      31A     -0.448601    32A     -0.437659    33A     -0.431642  

    Virtual:                                                              

      34A      0.029063    35A      0.033119    36A      0.033636  
      37A      0.035162    38A      0.046392    39A      0.047911  
      40A      0.050165    41A      0.053785    42A      0.055860  
      43A      0.066939    44A      0.068544    45A      0.071080  
      46A      0.073819    47A      0.077413    48A      0.086002  
      49A      0.091573    50A      0.099027    51A      0.100979  
      52A      0.113213    53A      0.116579    54A      0.119340  
      55A      0.122910    56A      0.127705    57A      0.131094  
      58A      0.136214    59A      0.137545    60A      0.141503  
      61A      0.146254    62A      0.146969    63A      0.150402  
      64A      0.158160    65A      0.158695    66A      0.162945  
      67A      0.165120    68A      0.168466    69A      0.170566  
      70A      0.173217    71A      0.174770    72A      0.179551  
      73A      0.187768    74A      0.193329    75A      0.200401  
      76A      0.201872    77A      0.215686    78A      0.218899  
      79A      0.226923    80A      0.236105    81A      0.240997  
      82A      0.244336    83A      0.248667    84A      0.254098  
      85A      0.269533    86A      0.272241    87A      0.273455  
      88A      0.278994    89A      0.291083    90A      0.294213  
      91A      0.300153    92A      0.302961    93A      0.304132  
      94A      0.313549    95A      0.316457    96A      0.317778  
      97A      0.321798    98A      0.330156    99A      0.333742  
     100A      0.336925   101A      0.339171   102A      0.346129  
     103A      0.346742   104A      0.352741   105A      0.359155  
     106A      0.360321   107A      0.361173   108A      0.366167  
     109A      0.371989   110A      0.376055   111A      0.377713  
     112A      0.383313   113A      0.384936   114A      0.387728  
     115A      0.394044   116A      0.396452   117A      0.398249  
     118A      0.402383   119A      0.404188   120A      0.408110  
     121A      0.417332   122A      0.418366   123A      0.424312  
     124A      0.428450   125A      0.433684   126A      0.437800  
     127A      0.439471   128A      0.446587   129A      0.447544  
     130A      0.450566   131A      0.453663   132A      0.457514  
     133A      0.463165   134A      0.470955   135A      0.471721  
     136A      0.475467   137A      0.478007   138A      0.483060  
     139A      0.484921   140A      0.491319   141A      0.494242  
     142A      0.499590   143A      0.501176   144A      0.504131  
     145A      0.509300   146A      0.512043   147A      0.514206  
     148A      0.519151   149A      0.523979   150A      0.525030  
     151A      0.529519   152A      0.532050   153A      0.533858  
     154A      0.544105   155A      0.549825   156A      0.550560  
     157A      0.553404   158A      0.558892   159A      0.563516  
     160A      0.571028   161A      0.574167   162A      0.579865  
     163A      0.583926   164A      0.592589   165A      0.598958  
     166A      0.602528   167A      0.604222   168A      0.610586  
     169A      0.613101   170A      0.618889   171A      0.622812  
     172A      0.625899   173A      0.629845   174A      0.635146  
     175A      0.641902   176A      0.647200   177A      0.651068  
     178A      0.655687   179A      0.662064   180A      0.666411  
     181A      0.677998   182A      0.682007   183A      0.686831  
     184A      0.692948   185A      0.699723   186A      0.701632  
     187A      0.710139   188A      0.712334   189A      0.716521  
     190A      0.719549   191A      0.727145   192A      0.734211  
     193A      0.737459   194A      0.739746   195A      0.748578  
     196A      0.751009   197A      0.761678   198A      0.773112  
     199A      0.785675   200A      0.791076   201A      0.798392  
     202A      0.808407   203A      0.817923   204A      0.822844  
     205A      0.828476   206A      0.834861   207A      0.842196  
     208A      0.852112   209A      0.855170   210A      0.866673  
     211A      0.870091   212A      0.875486   213A      0.881604  
     214A      0.885464   215A      0.887439   216A      0.887872  
     217A      0.895212   218A      0.906476   219A      0.907725  
     220A      0.914485   221A      0.916816   222A      0.923288  
     223A      0.926326   224A      0.931485   225A      0.932351  
     226A      0.940607   227A      0.945355   228A      0.951453  
     229A      0.954146   230A      0.957695   231A      0.970848  
     232A      0.972683   233A      0.976054   234A      0.978218  
     235A      0.986585   236A      0.993714   237A      0.994346  
     238A      1.005775   239A      1.007840   240A      1.012066  
     241A      1.018269   242A      1.023255   243A      1.029637  
     244A      1.033327   245A      1.038938   246A      1.042534  
     247A      1.048274   248A      1.051297   249A      1.051870  
     250A      1.061828   251A      1.069708   252A      1.077605  
     253A      1.085922   254A      1.092709   255A      1.096570  
     256A      1.100297   257A      1.105596   258A      1.110116  
     259A      1.113839   260A      1.118749   261A      1.122208  
     262A      1.130277   263A      1.136294   264A      1.136823  
     265A      1.145377   266A      1.148334   267A      1.152383  
     268A      1.160221   269A      1.165043   270A      1.172801  
     271A      1.178899   272A      1.181361   273A      1.184527  
     274A      1.190276   275A      1.192910   276A      1.198918  
     277A      1.206546   278A      1.210745   279A      1.211747  
     280A      1.222283   281A      1.226556   282A      1.233780  
     283A      1.238154   284A      1.246005   285A      1.250451  
     286A      1.252044   287A      1.260253   288A      1.264805  
     289A      1.270079   290A      1.274835   291A      1.280294  
     292A      1.289511   293A      1.294111   294A      1.296860  
     295A      1.304490   296A      1.313994   297A      1.316090  
     298A      1.322606   299A      1.328635   300A      1.334299  
     301A      1.336829   302A      1.341420   303A      1.350055  
     304A      1.357166   305A      1.360449   306A      1.369437  
     307A      1.377405   308A      1.388412   309A      1.397523  
     310A      1.400749   311A      1.407742   312A      1.411790  
     313A      1.417437   314A      1.427024   315A      1.438004  
     316A      1.445005   317A      1.457093   318A      1.458856  
     319A      1.463393   320A      1.472750   321A      1.490058  
     322A      1.492513   323A      1.497897   324A      1.509568  
     325A      1.519240   326A      1.524396   327A      1.525563  
     328A      1.532051   329A      1.539655   330A      1.551438  
     331A      1.553956   332A      1.567736   333A      1.573566  
     334A      1.576851   335A      1.578380   336A      1.590999  
     337A      1.609052   338A      1.610726   339A      1.618726  
     340A      1.620837   341A      1.628697   342A      1.646691  
     343A      1.650100   344A      1.653470   345A      1.656855  
     346A      1.668965   347A      1.670087   348A      1.673942  
     349A      1.682325   350A      1.685662   351A      1.689119  
     352A      1.695745   353A      1.704577   354A      1.706307  
     355A      1.717621   356A      1.719605   357A      1.719905  
     358A      1.726196   359A      1.739292   360A      1.747678  
     361A      1.750485   362A      1.756972   363A      1.763736  
     364A      1.767453   365A      1.772112   366A      1.777197  
     367A      1.788791   368A      1.791940   369A      1.798915  
     370A      1.802197   371A      1.809751   372A      1.812610  
     373A      1.819997   374A      1.824884   375A      1.835638  
     376A      1.843235   377A      1.847912   378A      1.853023  
     379A      1.854219   380A      1.865194   381A      1.866981  
     382A      1.874594   383A      1.883763   384A      1.888134  
     385A      1.896423   386A      1.899667   387A      1.909456  
     388A      1.911984   389A      1.921362   390A      1.933448  
     391A      1.936864   392A      1.943588   393A      1.955486  
     394A      1.958560   395A      1.963454   396A      1.973029  
     397A      1.975799   398A      1.984661   399A      1.999272  
     400A      2.000847   401A      2.007968   402A      2.014945  
     403A      2.018946   404A      2.025348   405A      2.033086  
     406A      2.044387   407A      2.051691   408A      2.061605  
     409A      2.066550   410A      2.067170   411A      2.079282  
     412A      2.084975   413A      2.093456   414A      2.098817  
     415A      2.107671   416A      2.114415   417A      2.125171  
     418A      2.130470   419A      2.133784   420A      2.147701  
     421A      2.156114   422A      2.159561   423A      2.174488  
     424A      2.176721   425A      2.183991   426A      2.197201  
     427A      2.198704   428A      2.204971   429A      2.213775  
     430A      2.228810   431A      2.239224   432A      2.243654  
     433A      2.261481   434A      2.266671   435A      2.270793  
     436A      2.287474   437A      2.295596   438A      2.301925  
     439A      2.311960   440A      2.317240   441A      2.330546  
     442A      2.336886   443A      2.347161   444A      2.354954  
     445A      2.358215   446A      2.366190   447A      2.368587  
     448A      2.380752   449A      2.389842   450A      2.399257  
     451A      2.405325   452A      2.409200   453A      2.422776  
     454A      2.433336   455A      2.442203   456A      2.449460  
     457A      2.459870   458A      2.477930   459A      2.484426  
     460A      2.492502   461A      2.496322   462A      2.514823  
     463A      2.522623   464A      2.542645   465A      2.549631  
     466A      2.554618   467A      2.560475   468A      2.590747  
     469A      2.600923   470A      2.605151   471A      2.624883  
     472A      2.628538   473A      2.641528   474A      2.656333  
     475A      2.671163   476A      2.708266   477A      2.713244  
     478A      2.729561   479A      2.752023   480A      2.765659  
     481A      2.778536   482A      2.790266   483A      2.825887  
     484A      2.853413   485A      2.936088   486A      2.950946  
     487A      3.014764   488A      3.021009   489A      3.080884  
     490A      3.124337   491A      3.202286   492A      3.213805  
     493A      3.307949   494A      3.343219   495A      3.366423  
     496A      3.427242   497A      3.431582   498A      3.456753  
     499A      3.467082   500A      3.480276   501A      3.497441  
     502A      3.501599   503A      3.506121   504A      3.526794  
     505A      3.537619   506A      3.546305   507A      3.561288  
     508A      3.570002   509A      3.587900   510A      3.592953  
     511A      3.611492   512A      3.623480   513A      3.634777  
     514A      3.636482   515A      3.646653   516A      3.659961  
     517A      3.680007   518A      3.685987   519A      3.692034  
     520A      3.700141   521A      3.705545   522A      3.718431  
     523A      3.724691   524A      3.732025   525A      3.748766  
     526A      3.758199   527A      3.765788   528A      3.775508  
     529A      3.782287   530A      3.786918   531A      3.796092  
     532A      3.807023   533A      3.813718   534A      3.824217  
     535A      3.824434   536A      3.834921   537A      3.842485  
     538A      3.848590   539A      3.856269   540A      3.858969  
     541A      3.883746   542A      3.884711   543A      3.895105  
     544A      3.898624   545A      3.909140   546A      3.916045  
     547A      3.922004   548A      3.924907   549A      3.933563  
     550A      3.947912   551A      3.950559   552A      3.958539  
     553A      3.968702   554A      3.975218   555A      3.983283  
     556A      3.999454   557A      4.002371   558A      4.006683  
     559A      4.012198   560A      4.017534   561A      4.020383  
     562A      4.027441   563A      4.042872   564A      4.047162  
     565A      4.054144   566A      4.060634   567A      4.066610  
     568A      4.074575   569A      4.081876   570A      4.092152  
     571A      4.103661   572A      4.105713   573A      4.111545  
     574A      4.125621   575A      4.137343   576A      4.146572  
     577A      4.153242   578A      4.163087   579A      4.169893  
     580A      4.185402   581A      4.188748   582A      4.196383  
     583A      4.216743   584A      4.224873   585A      4.235628  
     586A      4.245251   587A      4.250139   588A      4.259396  
     589A      4.278997   590A      4.288758   591A      4.293477  
     592A      4.305070   593A      4.313011   594A      4.328772  
     595A      4.335016   596A      4.338052   597A      4.340823  
     598A      4.349852   599A      4.365599   600A      4.372303  
     601A      4.379107   602A      4.394032   603A      4.406389  
     604A      4.409940   605A      4.414097   606A      4.429921  
     607A      4.445140   608A      4.461982   609A      4.465577  
     610A      4.485121   611A      4.492763   612A      4.519468  
     613A      4.541522   614A      4.555380   615A      4.562818  
     616A      4.577876   617A      4.592647   618A      4.609074  
     619A      4.611048   620A      4.622132   621A      4.634530  
     622A      4.649097   623A      4.663800   624A      4.675427  
     625A      4.680399   626A      4.693998   627A      4.709468  
     628A      4.719069   629A      4.729652   630A      4.739019  
     631A      4.747134   632A      4.763679   633A      4.767221  
     634A      4.778296   635A      4.783719   636A      4.796299  
     637A      4.802360   638A      4.821985   639A      4.835474  
     640A      4.841333   641A      4.854737   642A      4.861180  
     643A      4.869131   644A      4.882274   645A      4.886229  
     646A      4.887623   647A      4.897354   648A      4.911124  
     649A      4.914323   650A      4.933571   651A      4.941983  
     652A      4.969646   653A      4.981745   654A      4.990529  
     655A      4.993343   656A      5.004281   657A      5.022533  
     658A      5.035862   659A      5.048904   660A      5.054680  
     661A      5.069359   662A      5.076136   663A      5.097591  
     664A      5.127286   665A      5.136278   666A      5.143616  
     667A      5.158548   668A      5.165404   669A      5.181485  
     670A      5.183513   671A      5.194219   672A      5.207117  
     673A      5.209049   674A      5.222591   675A      5.239479  
     676A      5.243059   677A      5.256658   678A      5.268278  
     679A      5.284294   680A      5.289956   681A      5.304938  
     682A      5.316469   683A      5.327117   684A      5.342962  
     685A      5.362659   686A      5.365548   687A      5.375337  
     688A      5.387899   689A      5.395633   690A      5.408820  
     691A      5.421061   692A      5.428135   693A      5.440918  
     694A      5.449228   695A      5.457160   696A      5.463385  
     697A      5.471708   698A      5.484433   699A      5.499552  
     700A      5.513339   701A      5.517325   702A      5.523938  
     703A      5.551777   704A      5.558300   705A      5.570950  
     706A      5.577621   707A      5.579626   708A      5.603973  
     709A      5.627305   710A      5.639371   711A      5.658808  
     712A      5.664744   713A      5.682769   714A      5.687103  
     715A      5.704050   716A      5.706187   717A      5.713632  
     718A      5.730301   719A      5.740284   720A      5.752039  
     721A      5.757562   722A      5.775875   723A      5.796592  
     724A      5.801627   725A      5.804211   726A      5.836174  
     727A      5.850063   728A      5.857585   729A      5.884506  
     730A      5.891647   731A      5.928546   732A      5.974064  
     733A      5.977897   734A      6.005608   735A      6.033031  
     736A      6.052452   737A      6.072670   738A      6.089939  
     739A      6.112343   740A      6.122304   741A      6.139004  
     742A      6.168026   743A      6.191135   744A      6.223134  
     745A      6.231887   746A      6.238398   747A      6.245336  
     748A      6.273315   749A      6.297504   750A      6.299398  
     751A      6.315037   752A      6.323315   753A      6.331563  
     754A      6.379051   755A      6.382723   756A      6.397805  
     757A      6.433490   758A      6.486857   759A      6.595724  
     760A      6.635221   761A      6.673886   762A      6.677613  
     763A      6.717894   764A      6.790551   765A      6.807425  
     766A      6.821840   767A      6.879949   768A      6.899258  
     769A      6.949453   770A      6.963796   771A      7.011059  
     772A      7.047451   773A      7.100434   774A      7.147972  
     775A     17.989733   776A     18.253324   777A     18.341287  
     778A     18.517589   779A     18.714860   780A     19.094987  
     781A     19.617319   782A     19.867736  

    Final Occupation by Irrep:
              A 
    DOCC [    33 ]

  Energy converged.

  @DF-RHF Final Energy:  -313.53875456880070

   => Energetics <=

    Nuclear Repulsion Energy =            397.7739874720928697
    One-Electron Energy =               -1210.6944883746484720
    Two-Electron Energy =                 499.3817463337551317
    DFT Exchange-Correlation Energy =       0.0000000000000000
    Empirical Dispersion Energy =           0.0000000000000000
    PCM Polarization Energy =               0.0000000000000000
    EFP Energy =                            0.0000000000000000
    Total Energy =                       -313.5387545688005275


  Saving occupied orbitals to File 180.

*** tstop() called on wr31 at Tue Sep 20 22:41:24 2016
Module time:
	user time   =     869.23 seconds =      14.49 minutes
	system time =      11.77 seconds =       0.20 minutes
	total time  =         81 seconds =       1.35 minutes
Total time:
	user time   =     869.23 seconds =      14.49 minutes
	system time =      11.77 seconds =       0.20 minutes
	total time  =         81 seconds =       1.35 minutes


Properties will be evaluated at   0.000000,   0.000000,   0.000000 Bohr

Properties computed using the SCF density matrix

  Nuclear Dipole Moment: (a.u.)
     X:     0.4330      Y:    -2.2305      Z:    -0.4983

  Electronic Dipole Moment: (a.u.)
     X:    -0.4606      Y:     2.2615      Z:     0.5188

  Dipole Moment: (a.u.)
     X:    -0.0275      Y:     0.0310      Z:     0.0206     Total:     0.0463

  Dipole Moment: (Debye)
     X:    -0.0699      Y:     0.0787      Z:     0.0523     Total:     0.1176


  //>>>>>>>>>>>>>>>>>>>>>>>>>>>>>>>>>>>//
  //               DFMP2               //
  //<<<<<<<<<<<<<<<<<<<<<<<<<<<<<<<<<<<//


*** tstart() called on wr31
*** at Tue Sep 20 22:41:24 2016


*** tstop() called on wr31 at Tue Sep 20 22:41:24 2016
Module time:
	user time   =       3.50 seconds =       0.06 minutes
	system time =       0.04 seconds =       0.00 minutes
	total time  =          0 seconds =       0.00 minutes
Total time:
	user time   =     874.08 seconds =      14.57 minutes
	system time =      11.88 seconds =       0.20 minutes
	total time  =         81 seconds =       1.35 minutes
	 --------------------------------------------------------
	                          DF-MP2                         
	      2nd-Order Density-Fitted Moller-Plesset Theory     
	              RMP2 Wavefunction,  12 Threads             
	                                                         
	        Rob Parrish, Justin Turney, Andy Simmonett,      
	           Ed Hohenstein, and C. David Sherrill          
	 --------------------------------------------------------

   => Auxiliary Basis Set <=

  Basis Set: 
    Number of shells: 476
    Number of basis function: 1676
    Number of Cartesian functions: 2078
    Spherical Harmonics?: true
    Max angular momentum: 4

	 --------------------------------------------------------
	                 NBF =   782, NAUX =  1676
	 --------------------------------------------------------
	   CLASS    FOCC     OCC    AOCC    AVIR     VIR    FVIR
	   PAIRS       8      33      25     749     749       0
	 --------------------------------------------------------

DGAS Warning! /src/lib/libfock/apps.cc:80 is not currently checking restricted

         ------------------------------------------------------------
                                     CPHF                           
                                  Rob Parrish                       
         ------------------------------------------------------------

  ==> Geometry <==

    Molecular point group: c1
    Full point group: C1

    Geometry (in Angstrom), charge = 0, multiplicity = 1:

       Center              X                  Y                   Z               Mass       
    ------------   -----------------  -----------------  -----------------  -----------------
           C         -2.558560902554    -1.434803656312    -0.671479108770    12.000000000000
           H         -3.511905811695    -1.899283174133    -0.922687895896     1.007825032070
           H         -1.930039580928    -2.194201086888    -0.202972628017     1.007825032070
           H         -2.082230579754    -1.137216172340    -1.604889376682     1.007825032070
           C          3.059171360194    -1.425960681599     0.065370279565    12.000000000000
           H          3.015157866606    -2.412618304286     0.525883136389     1.007825032070
           H          3.948517081739    -0.918541706774     0.441228447092     1.007825032070
           H          3.185016055492    -1.562776883947    -1.009527877917     1.007825032070
           C         -2.752340613569    -0.247704373337     0.266795449256    12.000000000000
           H         -3.305467318365    -0.577972244707     1.148842224788     1.007825032070
           H         -3.370755830172     0.511192537678    -0.220913199009     1.007825032070
           C          1.806102212335    -0.610126032427     0.360598593438    12.000000000000
           H          0.928250372000    -1.153038261974     0.003022104989     1.007825032070
           H          1.684520961042    -0.495019282990     1.441425149189     1.007825032070
           C         -1.436577389704     0.386130965938     0.711967784396    12.000000000000
           H         -0.802819493862    -0.382276243652     1.161911531452     1.007825032070
           H         -1.634727366756     1.120046394019     1.498301467708     1.007825032070
           C         -0.685304756603     1.092142896470    -0.414974952957    12.000000000000
           H         -1.328377292600     1.890996823840    -0.794260589502     1.007825032070
           H         -0.525119011330     0.406687313419    -1.251989071026     1.007825032070
           C          0.668694350710     1.673281955689     0.016935652176    12.000000000000
           H          0.833434695143     2.630107122781    -0.483061461960     1.007825032070
           H          0.642856515470     1.888578778283     1.089905075680     1.007825032070
           C          1.860020708007     0.766863536824    -0.290575007206    12.000000000000
           H          1.934502353600     0.638910639054    -1.375677875313     1.007825032070
           H          2.781112174446     1.267146339739     0.023955604751     1.007825032070

  Nuclear repulsion =  397.773987472092870
  Reference energy  = -313.538754568800698

  ==> Basis Set <==

  Basis Set: AUG-CC-PVTZ
    Number of shells: 274
    Number of basis function: 782
    Number of Cartesian functions: 890
    Spherical Harmonics?: true
    Max angular momentum: 3

  ==> CGRSolver (by Rob Parrish) <==

   Number of roots    =         1
   Preconditioning    =    JACOBI
   Convergence cutoff =     1E-06
   Maximum iterations =       100

  ==> CPHFRHamiltonian (by Rob Parrish) <== 

  ==> DFJK: Density-Fitted J/K Matrices <==

    J tasked:                  Yes
    K tasked:                  Yes
    wK tasked:                  No
    OpenMP threads:             12
    Integrals threads:          12
    Memory (MB):             42915
    Algorithm:                Core
    Integral Cache:           NONE
    Schwarz Cutoff:          1E-12
    Fitting Condition:       1E-12

   => Auxiliary Basis Set <=

  Basis Set: 
    Number of shells: 492
    Number of basis function: 1660
    Number of Cartesian functions: 2038
    Spherical Harmonics?: true
    Max angular momentum: 4

  ==> CPHF Iterations <==

  => Iterations <=

             Iter  Converged  Remaining    Residual
  CGR           1          0          1   9.113E-02
  CGR           2          0          1   1.329E-02
  CGR           3          0          1   3.949E-03
  CGR           4          0          1   8.593E-04
  CGR           5          0          1   1.968E-04
  CGR           6          0          1   4.551E-05
  CGR           7          0          1   1.231E-05
  CGR           8          0          1   3.233E-06
  CGR           9          1          0   8.686E-07

    CGRSolver converged.

  ==> DFCorrGrad: Density-Fitted Correlated Gradients <==

    OpenMP threads:             12
    Integrals threads:          12
    Memory (MB):             42915
    Schwarz Cutoff:          0E+00
    Fitting Condition:       1E-12

   => Auxiliary Basis Set <=

  Basis Set: 
    Number of shells: 492
    Number of basis function: 1660
    Number of Cartesian functions: 2038
    Spherical Harmonics?: true
    Max angular momentum: 4

	-----------------------------------------------------------
	 ==================> DF-MP2 Energies <==================== 
	-----------------------------------------------------------
	 Reference Energy          =    -313.5387545688006981 [Eh]
	 Singles Energy            =      -0.0000000000000004 [Eh]
	 Same-Spin Energy          =      -0.3164262295227155 [Eh]
	 Opposite-Spin Energy      =      -1.1257708711399728 [Eh]
	 Correlation Energy        =      -1.4421971006626888 [Eh]
	 Total Energy              =    -314.9809516694633658 [Eh]
	-----------------------------------------------------------
	 ================> DF-SCS-MP2 Energies <================== 
	-----------------------------------------------------------
	 SCS Same-Spin Scale       =       0.3333333333333333 [-]
	 SCS Opposite-Spin Scale   =       1.2000000000000000 [-]
	 SCS Same-Spin Energy      =      -0.1054754098409052 [Eh]
	 SCS Opposite-Spin Energy  =      -1.3509250453679673 [Eh]
	 SCS Correlation Energy    =      -1.4564004552088730 [Eh]
	 SCS Total Energy          =    -314.9951550240095912 [Eh]
	-----------------------------------------------------------


  -Total Gradient:
     Atom            X                  Y                   Z
    ------   -----------------  -----------------  -----------------
       1       -0.000000015186     0.000000136131     0.000000097831
       2        0.000000055678     0.000000027343     0.000000008386
       3       -0.000000024934     0.000000013300    -0.000000034985
       4        0.000000006975    -0.000000040762    -0.000000025597
       5       -0.000000308820     0.000000197008     0.000000074467
       6        0.000000033814    -0.000000333780     0.000000138241
       7        0.000000322971     0.000000162656     0.000000111028
       8        0.000000090369    -0.000000062267    -0.000000383205
       9        0.000000139399    -0.000000079667    -0.000000005171
      10        0.000000050720     0.000000075215    -0.000000096783
      11        0.000000037205    -0.000000092926     0.000000062351
      12        0.000000711614     0.000000282756    -0.000000367324
      13       -0.000000558315    -0.000000393234    -0.000000033788
      14       -0.000000113978    -0.000000016870     0.000000607181
      15        0.000000243187     0.000000064004    -0.000000437847
      16       -0.000000086972     0.000000057182     0.000000055541
      17        0.000000070476    -0.000000162751    -0.000000128480
      18       -0.000000333779    -0.000000040042     0.000000678166
      19       -0.000000132263     0.000000122882    -0.000000006488
      20        0.000000150121    -0.000000239922    -0.000000282765
      21       -0.000000187891    -0.000000257037    -0.000000118702
      22        0.000000076713     0.000000177661    -0.000000153515
      23       -0.000000088336     0.000000083011     0.000000297948
      24       -0.000000470969     0.000000142291     0.000000345782
      25        0.000000065235     0.000000012858    -0.000000523491
      26        0.000000266962     0.000000164959     0.000000121218


			-----------------------------------------
			 OPTKING 2.0: for geometry optimizations 
			  - R.A. King,  Bethel University        
			-----------------------------------------

	Internal coordinates to be generated automatically.
	Detected frag 1 with atoms:  1 2 3 4 5 6 7 8 9 10 11 12 13 14 15 16 17 18 19 20
	 21 22 23 24 25 26
	---Fragment 1 Bond Connectivity---
	 1 : 2 3 4 9
	 2 : 1
	 3 : 1
	 4 : 1
	 5 : 6 7 8 12
	 6 : 5
	 7 : 5
	 8 : 5
	 9 : 1 10 11 15
	 10 : 9
	 11 : 9
	 12 : 5 13 14 24
	 13 : 12
	 14 : 12
	 15 : 9 16 17 18
	 16 : 15
	 17 : 15
	 18 : 15 19 20 21
	 19 : 18
	 20 : 18
	 21 : 18 22 23 24
	 22 : 21
	 23 : 21
	 24 : 12 21 25 26
	 25 : 24
	 26 : 24

	---Fragment 1 Geometry and Gradient---
	 C          -4.8349794001       -2.7113859649       -1.2689116195
	 H          -6.6365401886       -3.5891250479       -1.7436274294
	 H          -3.6472462336       -4.1464391347       -0.3835626794
	 H          -3.9348455413       -2.1490271196       -3.0328013955
	 C           5.7809960643       -2.6946751645        0.1235319256
	 H           5.6978226153       -4.5591878583        0.9937751057
	 H           7.4616159155       -1.7357922674        0.8338009270
	 H           6.0188080737       -2.9532203175       -1.9077312128
	 C          -5.2011699841       -0.4680934275        0.5041703326
	 H          -6.2464279729       -1.0922092549        2.1709971747
	 H          -6.3698053799        0.9660138974       -0.4174654453
	 C           3.4130385493       -1.1529711078        0.6814325855
	 H           1.7541389858       -2.1789265359        0.0057109508
	 H           3.1832832815       -0.9354508753        2.7238987730
	 C          -2.7147378352        0.7296817770        1.3454241279
	 H          -1.5171089775       -0.7223974076        2.1956945851
	 H          -3.0891870251        2.1165809408        2.8313794385
	 C          -1.2950383075        2.0638509723       -0.7841890131
	 H          -2.5102692842        3.5734661152       -1.5009349923
	 H          -0.9923311186        0.7685276441       -2.3659164656
	 C           1.2636491894        3.1620446394        0.0320037445
	 H           1.5749633235        4.9701821622       -0.9128538685
	 H           1.2148227570        3.5688966713        2.0596221039
	 C           3.5149297396        1.4491620659       -0.5491071847
	 H           3.6556796517        1.2073661312       -2.5996544314
	 H           5.2555403545        2.3945595524        0.0452695323
	            -0.0000000152        0.0000001361        0.0000000978
	             0.0000000557        0.0000000273        0.0000000084
	            -0.0000000249        0.0000000133       -0.0000000350
	             0.0000000070       -0.0000000408       -0.0000000256
	            -0.0000003088        0.0000001970        0.0000000745
	             0.0000000338       -0.0000003338        0.0000001382
	             0.0000003230        0.0000001627        0.0000001110
	             0.0000000904       -0.0000000623       -0.0000003832
	             0.0000001394       -0.0000000797       -0.0000000052
	             0.0000000507        0.0000000752       -0.0000000968
	             0.0000000372       -0.0000000929        0.0000000624
	             0.0000007116        0.0000002828       -0.0000003673
	            -0.0000005583       -0.0000003932       -0.0000000338
	            -0.0000001140       -0.0000000169        0.0000006072
	             0.0000002432        0.0000000640       -0.0000004378
	            -0.0000000870        0.0000000572        0.0000000555
	             0.0000000705       -0.0000001628       -0.0000001285
	            -0.0000003338       -0.0000000400        0.0000006782
	            -0.0000001323        0.0000001229       -0.0000000065
	             0.0000001501       -0.0000002399       -0.0000002828
	            -0.0000001879       -0.0000002570       -0.0000001187
	             0.0000000767        0.0000001777       -0.0000001535
	            -0.0000000883        0.0000000830        0.0000002979
	            -0.0000004710        0.0000001423        0.0000003458
	             0.0000000652        0.0000000129       -0.0000005235
	             0.0000002670        0.0000001650        0.0000001212

	Previous optimization step data not found.  Starting new optimization.

	---Fragment 1 Intrafragment Coordinates---
	 - Coordinate -           - BOHR/RAD -       - ANG/DEG -
	 R(1,2)           =         2.059467	       1.089823
	 R(1,3)           =         2.062506	       1.091431
	 R(1,4)           =         2.058591	       1.089359
	 R(1,9)           =         2.882755	       1.525488
	 R(5,6)           =         2.059284	       1.089726
	 R(5,7)           =         2.061170	       1.090724
	 R(5,8)           =         2.061415	       1.090854
	 R(5,12)          =         2.880161	       1.524116
	 R(9,10)          =         2.064073	       1.092260
	 R(9,11)          =         2.066830	       1.093719
	 R(9,15)          =         2.885259	       1.526813
	 R(12,13)         =         2.064251	       1.092355
	 R(12,14)         =         2.066826	       1.093717
	 R(12,24)         =         2.880227	       1.524150
	 R(15,16)         =         2.065383	       1.092954
	 R(15,17)         =         2.066825	       1.093717
	 R(15,18)         =         2.886314	       1.527371
	 R(18,19)         =         2.066265	       1.093420
	 R(18,20)         =         2.066726	       1.093664
	 R(18,21)         =         2.901565	       1.535442
	 R(21,22)         =         2.063743	       1.092086
	 R(21,23)         =         2.068610	       1.094661
	 R(21,24)         =         2.887892	       1.528207
	 R(24,25)         =         2.069546	       1.095156
	 R(24,26)         =         2.068039	       1.094359
	 B(1,9,10)        =         1.902570	     109.009257
	 B(1,9,11)        =         1.915065	     109.725139
	 B(1,9,15)        =         1.974595	     113.135970
	 B(2,1,3)         =         1.881952	     107.827913
	 B(2,1,4)         =         1.876979	     107.542969
	 B(2,1,9)         =         1.941543	     111.242224
	 B(3,1,4)         =         1.881865	     107.822904
	 B(3,1,9)         =         1.928976	     110.522191
	 B(4,1,9)         =         1.949782	     111.714304
	 B(5,12,13)       =         1.908441	     109.345613
	 B(5,12,14)       =         1.916811	     109.825160
	 B(5,12,24)       =         1.951699	     111.824089
	 B(6,5,7)         =         1.884434	     107.970091
	 B(6,5,8)         =         1.883377	     107.909526
	 B(6,5,12)        =         1.949365	     111.690364
	 B(7,5,8)         =         1.879515	     107.688284
	 B(7,5,12)        =         1.933279	     110.768723
	 B(8,5,12)        =         1.931417	     110.662030
	 B(9,15,16)       =         1.904848	     109.139748
	 B(9,15,17)       =         1.909289	     109.394213
	 B(9,15,18)       =         1.983017	     113.618507
	 B(10,9,11)       =         1.858310	     106.473341
	 B(10,9,15)       =         1.903369	     109.055013
	 B(11,9,15)       =         1.906287	     109.222189
	 B(12,24,21)      =         2.006788	     114.980508
	 B(12,24,25)      =         1.896702	     108.672992
	 B(12,24,26)      =         1.896516	     108.662356
	 B(13,12,14)      =         1.861326	     106.646098
	 B(13,12,24)      =         1.915161	     109.730649
	 B(14,12,24)      =         1.908215	     109.332644
	 B(15,18,19)      =         1.880070	     107.720088
	 B(15,18,20)      =         1.925186	     110.305051
	 B(15,18,21)      =         1.983569	     113.650140
	 B(16,15,17)      =         1.855473	     106.310749
	 B(16,15,18)      =         1.921450	     110.090989
	 B(17,15,18)      =         1.885364	     108.023379
	 B(18,21,22)      =         1.913296	     109.623795
	 B(18,21,23)      =         1.906406	     109.229034
	 B(18,21,24)      =         1.989249	     113.975571
	 B(19,18,20)      =         1.853100	     106.174822
	 B(19,18,21)      =         1.917379	     109.857698
	 B(20,18,21)      =         1.900052	     108.864946
	 B(21,24,25)      =         1.898312	     108.765266
	 B(21,24,26)      =         1.904086	     109.096085
	 B(22,21,23)      =         1.854596	     106.260545
	 B(22,21,24)      =         1.885927	     108.055653
	 B(23,21,24)      =         1.909528	     109.407909
	 B(25,24,26)      =         1.855571	     106.316378
	 D(1,9,15,16)     =        -0.962616	     -55.153837
	 D(1,9,15,17)     =        -2.986054	    -171.088285
	 D(1,9,15,18)     =         1.188887	      68.118182
	 D(2,1,9,10)      =         0.962316	      55.136635
	 D(2,1,9,11)      =        -1.066468	     -61.104098
	 D(2,1,9,15)      =         3.083136	     176.650705
	 D(3,1,9,10)      =        -1.127748	     -64.615229
	 D(3,1,9,11)      =         3.126653	     179.144039
	 D(3,1,9,15)      =         0.993072	      56.898841
	 D(4,1,9,10)      =         3.060060	     175.328538
	 D(4,1,9,11)      =         1.031277	      59.087805
	 D(4,1,9,15)      =        -1.102304	     -63.157393
	 D(5,12,24,21)    =        -3.090653	    -177.081363
	 D(5,12,24,25)    =         1.060702	      60.773766
	 D(5,12,24,26)    =        -0.951436	     -54.513269
	 D(6,5,12,13)     =        -1.009648	     -57.848581
	 D(6,5,12,14)     =         1.027133	      58.850387
	 D(6,5,12,24)     =        -3.134360	    -179.585619
	 D(7,5,12,13)     =        -3.110926	    -178.242943
	 D(7,5,12,14)     =        -1.074145	     -61.543975
	 D(7,5,12,24)     =         1.047547	      60.020019
	 D(8,5,12,13)     =         1.089019	      62.396219
	 D(8,5,12,14)     =         3.125801	     179.095187
	 D(8,5,12,24)     =        -1.035693	     -59.340818
	 D(9,15,18,19)    =         1.060069	      60.737475
	 D(9,15,18,20)    =        -0.955275	     -54.733253
	 D(9,15,18,21)    =        -3.094625	    -177.308942
	 D(10,9,15,16)    =         1.157755	      66.334477
	 D(10,9,15,17)    =        -0.865683	     -49.599971
	 D(10,9,15,18)    =        -2.973928	    -170.393504
	 D(11,9,15,16)    =        -3.101091	    -177.679431
	 D(11,9,15,17)    =         1.158656	      66.386122
	 D(11,9,15,18)    =        -0.949588	     -54.407412
	 D(12,24,21,18)   =        -1.032581	     -59.162526
	 D(12,24,21,22)   =         3.119357	     178.725966
	 D(12,24,21,23)   =         1.107274	      63.442129
	 D(13,12,24,21)   =         1.071693	      61.403473
	 D(13,12,24,25)   =        -1.060137	     -60.741398
	 D(13,12,24,26)   =        -3.072276	    -176.028432
	 D(14,12,24,21)   =        -0.964012	     -55.233803
	 D(14,12,24,25)   =        -3.095842	    -177.378674
	 D(14,12,24,26)   =         1.175205	      67.334291
	 D(15,18,21,22)   =        -2.482839	    -142.256203
	 D(15,18,21,23)   =        -0.457331	     -26.203108
	 D(15,18,21,24)   =         1.684232	      96.499396
	 D(16,15,18,19)   =        -3.080721	    -176.512322
	 D(16,15,18,20)   =         1.187120	      68.016951
	 D(16,15,18,21)   =        -0.952230	     -54.558739
	 D(17,15,18,19)   =        -1.061567	     -60.823319
	 D(17,15,18,20)   =        -3.076912	    -176.294046
	 D(17,15,18,21)   =         1.066924	      61.130264
	 D(18,21,24,25)   =         1.098380	      62.932538
	 D(18,21,24,26)   =         3.115459	     178.502636
	 D(19,18,21,22)   =        -0.375179	     -21.496146
	 D(19,18,21,23)   =         1.650330	      94.556949
	 D(19,18,21,24)   =        -2.491293	    -142.740547
	 D(20,18,21,22)   =         1.647210	      94.378207
	 D(20,18,21,23)   =        -2.610466	    -149.568698
	 D(20,18,21,24)   =        -0.468904	     -26.866194
	 D(22,21,24,25)   =        -1.032868	     -59.178970
	 D(22,21,24,26)   =         0.984211	      56.391128
	 D(23,21,24,25)   =        -3.044950	    -174.462807
	 D(23,21,24,26)   =        -1.027872	     -58.892709
	 R(12,15)         =         6.444758	       3.410419

	Current energy   :      -314.9809516695

	Generating empirical Hessian (Schlegel '84) for each fragment.
	Taking RFO optimization step.
	Going to follow RFO solution 1.
	Using RFO vector 1.
	Norm of target step-size    0.00017
	Projected energy change by RFO approximation:        -0.0000000003

	Back-transformation to cartesian coordinates...
	Successfully converged to displaced geometry.

	--- Internal Coordinate Step in ANG or DEG, aJ/ANG or AJ/DEG ---
	 ---------------------------------------------------------------------------
	   Coordinate                Previous        Force       Change         New 
	   ----------                --------       ------       ------       ------
	    1 R(1,2)          =      1.089823     0.000001     0.000000     1.089823
	    2 R(1,3)          =      1.091431     0.000000     0.000000     1.091431
	    3 R(1,4)          =      1.089359    -0.000000    -0.000000     1.089359
	    4 R(1,9)          =      1.525488     0.000002     0.000000     1.525489
	    5 R(5,6)          =      1.089726    -0.000003    -0.000001     1.089725
	    6 R(5,7)          =      1.090724    -0.000003    -0.000001     1.090724
	    7 R(5,8)          =      1.090854    -0.000003    -0.000001     1.090853
	    8 R(5,12)         =      1.524116    -0.000001    -0.000000     1.524115
	    9 R(9,10)         =      1.092260     0.000001     0.000000     1.092260
	   10 R(9,11)         =      1.093719     0.000001     0.000000     1.093719
	   11 R(9,15)         =      1.526813     0.000002     0.000000     1.526814
	   12 R(12,13)        =      1.092355    -0.000005    -0.000001     1.092354
	   13 R(12,14)        =      1.093717    -0.000005    -0.000001     1.093716
	   14 R(12,24)        =      1.524150    -0.000003    -0.000001     1.524150
	   15 R(15,16)        =      1.092954     0.000001     0.000000     1.092954
	   16 R(15,17)        =      1.093717     0.000002     0.000000     1.093717
	   17 R(15,18)        =      1.527371     0.000005     0.000001     1.527372
	   18 R(18,19)        =      1.093420    -0.000001    -0.000000     1.093420
	   19 R(18,20)        =      1.093664    -0.000003    -0.000001     1.093664
	   20 R(18,21)        =      1.535442     0.000001     0.000000     1.535442
	   21 R(21,22)        =      1.092086    -0.000002    -0.000000     1.092085
	   22 R(21,23)        =      1.094661    -0.000002    -0.000000     1.094661
	   23 R(21,24)        =      1.528207     0.000000    -0.000000     1.528206
	   24 R(24,25)        =      1.095156    -0.000004    -0.000001     1.095156
	   25 R(24,26)        =      1.094359    -0.000003    -0.000001     1.094359
	   26 B(1,9,10)       =    109.009257    -0.000000    -0.000031   109.009225
	   27 B(1,9,11)       =    109.725139     0.000000     0.000013   109.725152
	   28 B(1,9,15)       =    113.135970    -0.000000    -0.000035   113.135935
	   29 B(2,1,3)        =    107.827913    -0.000000     0.000002   107.827915
	   30 B(2,1,4)        =    107.542969     0.000000     0.000006   107.542975
	   31 B(2,1,9)        =    111.242224     0.000000     0.000026   111.242250
	   32 B(3,1,4)        =    107.822904     0.000000    -0.000004   107.822900
	   33 B(3,1,9)        =    110.522191    -0.000000    -0.000005   110.522186
	   34 B(4,1,9)        =    111.714304    -0.000000    -0.000024   111.714279
	   35 B(5,12,13)      =    109.345613     0.000000     0.000025   109.345637
	   36 B(5,12,14)      =    109.825160    -0.000000     0.000002   109.825162
	   37 B(5,12,24)      =    111.824089    -0.000000    -0.000029   111.824061
	   38 B(6,5,7)        =    107.970091     0.000000     0.000015   107.970106
	   39 B(6,5,8)        =    107.909526     0.000000     0.000023   107.909549
	   40 B(6,5,12)       =    111.690364    -0.000000    -0.000007   111.690357
	   41 B(7,5,8)        =    107.688284     0.000000     0.000010   107.688294
	   42 B(7,5,12)       =    110.768723    -0.000000    -0.000020   110.768704
	   43 B(8,5,12)       =    110.662030    -0.000000    -0.000019   110.662011
	   44 B(9,15,16)      =    109.139748    -0.000000    -0.000065   109.139683
	   45 B(9,15,17)      =    109.394213     0.000000     0.000054   109.394267
	   46 B(9,15,18)      =    113.618507     0.000000     0.000008   113.618515
	   47 B(10,9,11)      =    106.473341     0.000000     0.000029   106.473371
	   48 B(10,9,15)      =    109.055013     0.000000     0.000007   109.055020
	   49 B(11,9,15)      =    109.222189     0.000000     0.000021   109.222210
	   50 B(12,24,21)     =    114.980508    -0.000000    -0.000121   114.980386
	   51 B(12,24,25)     =    108.672992    -0.000000    -0.000039   108.672952
	   52 B(12,24,26)     =    108.662356     0.000000     0.000078   108.662434
	   53 B(13,12,14)     =    106.646098     0.000000     0.000086   106.646184
	   54 B(13,12,24)     =    109.730649    -0.000000    -0.000060   109.730588
	   55 B(14,12,24)     =    109.332644    -0.000000    -0.000018   109.332626
	   56 B(15,18,19)     =    107.720088    -0.000000     0.000037   107.720126
	   57 B(15,18,20)     =    110.305051    -0.000000    -0.000040   110.305011
	   58 B(15,18,21)     =    113.650140     0.000000    -0.000009   113.650130
	   59 B(16,15,17)     =    106.310749     0.000000     0.000037   106.310786
	   60 B(16,15,18)     =    110.090989    -0.000000    -0.000083   110.090907
	   61 B(17,15,18)     =    108.023379     0.000000     0.000054   108.023433
	   62 B(18,21,22)     =    109.623795    -0.000000     0.000072   109.623867
	   63 B(18,21,23)     =    109.229034     0.000000    -0.000034   109.228999
	   64 B(18,21,24)     =    113.975571     0.000000    -0.000065   113.975506
	   65 B(19,18,20)     =    106.174822    -0.000000    -0.000028   106.174793
	   66 B(19,18,21)     =    109.857698     0.000000     0.000047   109.857745
	   67 B(20,18,21)     =    108.864946    -0.000000    -0.000007   108.864940
	   68 B(21,24,25)     =    108.765266     0.000000     0.000032   108.765298
	   69 B(21,24,26)     =    109.096085     0.000000     0.000027   109.096112
	   70 B(22,21,23)     =    106.260545    -0.000000    -0.000002   106.260543
	   71 B(22,21,24)     =    108.055653     0.000000     0.000099   108.055752
	   72 B(23,21,24)     =    109.407909    -0.000000    -0.000064   109.407845
	   73 B(25,24,26)     =    106.316378    -0.000000     0.000035   106.316412
	   74 D(1,9,15,16)    =    -55.153837     0.000000     0.000077   -55.153760
	   75 D(1,9,15,17)    =   -171.088285     0.000000     0.000039  -171.088246
	   76 D(1,9,15,18)    =     68.118182    -0.000000    -0.000074    68.118107
	   77 D(2,1,9,10)     =     55.136635     0.000000    -0.000123    55.136512
	   78 D(2,1,9,11)     =    -61.104098    -0.000000    -0.000147   -61.104245
	   79 D(2,1,9,15)     =    176.650705    -0.000000    -0.000159   176.650546
	   80 D(3,1,9,10)     =    -64.615229    -0.000000    -0.000139   -64.615367
	   81 D(3,1,9,11)     =    179.144039    -0.000000    -0.000163   179.143876
	   82 D(3,1,9,15)     =     56.898841    -0.000000    -0.000175    56.898666
	   83 D(4,1,9,10)     =    175.328538     0.000000    -0.000114   175.328424
	   84 D(4,1,9,11)     =     59.087805     0.000000    -0.000139    59.087666
	   85 D(4,1,9,15)     =    -63.157393     0.000000    -0.000150   -63.157543
	   86 D(5,12,24,21)   =   -177.081363     0.000000     0.001187  -177.080177
	   87 D(5,12,24,25)   =     60.773766     0.000000     0.001259    60.775025
	   88 D(5,12,24,26)   =    -54.513269     0.000000     0.001197   -54.512071
	   89 D(6,5,12,13)    =    -57.848581    -0.000000     0.000033   -57.848548
	   90 D(6,5,12,14)    =     58.850387     0.000000     0.000152    58.850539
	   91 D(6,5,12,24)    =   -179.585619     0.000000     0.000112  -179.585508
	   92 D(7,5,12,13)    =   -178.242943    -0.000000     0.000033  -178.242911
	   93 D(7,5,12,14)    =    -61.543975     0.000000     0.000152   -61.543823
	   94 D(7,5,12,24)    =     60.020019     0.000000     0.000111    60.020130
	   95 D(8,5,12,13)    =     62.396219    -0.000000     0.000045    62.396264
	   96 D(8,5,12,14)    =    179.095187     0.000000     0.000164   179.095352
	   97 D(8,5,12,24)    =    -59.340818     0.000000     0.000123   -59.340695
	   98 D(9,15,18,19)   =     60.737475     0.000000     0.001903    60.739378
	   99 D(9,15,18,20)   =    -54.733253     0.000000     0.001937   -54.731316
	  100 D(9,15,18,21)   =   -177.308942     0.000000     0.001982  -177.306960
	  101 D(10,9,15,16)   =     66.334477     0.000000     0.000018    66.334495
	  102 D(10,9,15,17)   =    -49.599971    -0.000000    -0.000020   -49.599990
	  103 D(10,9,15,18)   =   -170.393504    -0.000000    -0.000133  -170.393637
	  104 D(11,9,15,16)   =   -177.679431     0.000000     0.000069  -177.679361
	  105 D(11,9,15,17)   =     66.386122     0.000000     0.000031    66.386153
	  106 D(11,9,15,18)   =    -54.407412    -0.000000    -0.000082   -54.407494
	  107 D(12,24,21,18)  =    -59.162526     0.000000     0.001942   -59.160584
	  108 D(12,24,21,22)  =    178.725966     0.000000     0.001821   178.727787
	  109 D(12,24,21,23)  =     63.442129     0.000000     0.001804    63.443933
	  110 D(13,12,24,21)  =     61.403473     0.000000     0.001216    61.404689
	  111 D(13,12,24,25)  =    -60.741398     0.000000     0.001288   -60.740109
	  112 D(13,12,24,26)  =   -176.028432     0.000000     0.001227  -176.027206
	  113 D(14,12,24,21)  =    -55.233803     0.000000     0.001158   -55.232645
	  114 D(14,12,24,25)  =   -177.378674     0.000000     0.001230  -177.377444
	  115 D(14,12,24,26)  =     67.334291    -0.000000     0.001169    67.335460
	  116 D(15,18,21,22)  =   -142.256203     0.000000     0.001443  -142.254759
	  117 D(15,18,21,23)  =    -26.203108     0.000000     0.001461   -26.201646
	  118 D(15,18,21,24)  =     96.499396     0.000000     0.001307    96.500704
	  119 D(16,15,18,19)  =   -176.512322    -0.000000     0.001760  -176.510561
	  120 D(16,15,18,20)  =     68.016951     0.000000     0.001794    68.018745
	  121 D(16,15,18,21)  =    -54.558739     0.000000     0.001840   -54.556899
	  122 D(17,15,18,19)  =    -60.823319    -0.000000     0.001790   -60.821528
	  123 D(17,15,18,20)  =   -176.294046     0.000000     0.001824  -176.292222
	  124 D(17,15,18,21)  =     61.130264     0.000000     0.001870    61.132134
	  125 D(18,21,24,25)  =     62.932538     0.000000     0.001831    62.934370
	  126 D(18,21,24,26)  =    178.502636     0.000000     0.001905   178.504541
	  127 D(19,18,21,22)  =    -21.496146     0.000000     0.001518   -21.494628
	  128 D(19,18,21,23)  =     94.556949     0.000000     0.001536    94.558485
	  129 D(19,18,21,24)  =   -142.740547     0.000000     0.001382  -142.739165
	  130 D(20,18,21,22)  =     94.378207     0.000000     0.001507    94.379714
	  131 D(20,18,21,23)  =   -149.568698     0.000000     0.001525  -149.567173
	  132 D(20,18,21,24)  =    -26.866194    -0.000000     0.001371   -26.864823
	  133 D(22,21,24,25)  =    -59.178970    -0.000000     0.001710   -59.177260
	  134 D(22,21,24,26)  =     56.391128     0.000000     0.001784    56.392912
	  135 D(23,21,24,25)  =   -174.462807    -0.000000     0.001693  -174.461114
	  136 D(23,21,24,26)  =    -58.892709     0.000000     0.001766   -58.890943
	  137 R(12,15)        =      3.410419    -0.000000     0.000005     3.410424
	 ---------------------------------------------------------------------------

  ==> Convergence Check <==

  Measures of convergence in internal coordinates in au.
  Criteria marked as inactive (o), active & met (*), and active & unmet ( ).
  --------------------------------------------------------------------------------------------- ~
   Step     Total Energy     Delta E     MAX Force     RMS Force      MAX Disp      RMS Disp    ~
  --------------------------------------------------------------------------------------------- ~
    Convergence Criteria             o    2.00e-06 *    1.00e-06 *    6.00e-06 *    4.00e-06 *  ~
  --------------------------------------------------------------------------------------------- ~
      1    -314.98095167   -3.15e+02 o    6.65e-07 *    1.47e-07 *    3.46e-05      1.44e-05    ~
  ---------------------------------------------------------------------------------------------

	Writing optimization data to binary file.
	Structure for next step:
	Cartesian Geometry (in Angstrom)
	    C    -2.5585128076  -1.4348261594  -0.6714442308
	    H    -3.5118435220  -1.8993308325  -0.9226607812
	    H    -1.9299876667  -2.1941982541  -0.2029016178
	    H    -2.0821671499  -1.1372568879  -1.6048524709
	    C     3.0591484224  -1.4259719810   0.0653493667
	    H     3.0151123598  -2.4126444408   0.5258269020
	    H     3.9484805329  -0.9185693352   0.4412602001
	    H     3.1850352929  -1.5627519093  -1.0095478549
	    C    -2.7523350093  -0.2477026422   0.2667915192
	    H    -3.3054771945  -0.5779549263   1.1488346679
	    H    -3.3707512217   0.5111700571  -0.2209538794
	    C     1.8060710469  -0.6101423263   0.3605550926
	    H     0.9282317751  -1.1530382760   0.0029261460
	    H     1.6844485843  -0.4950694043   1.4413796649
	    C    -1.4365922173   0.3861669693   0.7119770666
	    H    -0.8028329657  -0.3822182133   1.1619568001
	    H    -1.6347717663   1.1201018967   1.4982855360
	    C    -0.6853024925   1.0921573642  -0.4149691885
	    H    -1.3283638551   1.8910117592  -0.7942720353
	    H    -0.5251160659   0.4066889293  -1.2519718658
	    C     0.6686986824   1.6732886708   0.0169457090
	    H     0.8334424240   2.6301178322  -0.4830418422
	    H     0.6428618517   1.8885749755   1.0899167940
	    C     1.8600207025   0.7668672970  -0.2905720690
	    H     1.9345214869   0.6389483051  -1.3756767926
	    H     2.7811115315   1.2671287306   0.0239926200
			--------------------------
			 OPTKING Finished Execution 
			--------------------------

    Structure for next step:
    Molecular point group: c1
    Full point group: C1

    Geometry (in Angstrom), charge = 0, multiplicity = 1:

    C           -2.558511975397    -1.434827371041    -0.671443708437
    H           -3.511842689844    -1.899332044103    -0.922660258811
    H           -1.929986834483    -2.194199465718    -0.202901095477
    H           -2.082166317699    -1.137258099527    -1.604851948555
    C            3.059149254608    -1.425973192605     0.065349889015
    H            3.015113191948    -2.412645652439     0.525827424342
    H            3.948481365122    -0.918570546768     0.441260722478
    H            3.185036125050    -1.562753120914    -1.009547332573
    C           -2.752334177093    -0.247703853785     0.266792041576
    H           -3.305476362318    -0.577956137858     1.148835190288
    H           -3.370750389560     0.511168845537    -0.220953357006
    C            1.806071879102    -0.610143537858     0.360555614987
    H            0.928232607329    -1.153039487644     0.002926668389
    H            1.684449416455    -0.495070615916     1.441380187292
    C           -1.436591385157     0.386165757689     0.711977588957
    H           -0.802832133553    -0.382219424939     1.161957322490
    H           -1.634770934084     1.120100685109     1.498286058316
    C           -0.685301660271     1.092156152555    -0.414968666140
    H           -1.328363022877     1.891010547641    -0.794271512908
    H           -0.525115233762     0.406687717661    -1.251971343476
    C            0.668699514567     1.673287459180     0.016946231391
    H            0.833443256171     2.630116620577    -0.483041319830
    H            0.642862683929     1.888573763910     1.089917316350
    C            1.860021534673     0.766866085371    -0.290571546678
    H            1.934522319094     0.638947093482    -1.375676270281
    H            2.781112363729     1.267127519007     0.023993142410

gradient() will perform analytic gradient computation.

*** tstart() called on wr31
*** at Tue Sep 20 22:47:04 2016


         ---------------------------------------------------------
                                   SCF
            by Justin Turney, Rob Parrish, and Andy Simmonett
                              RHF Reference
                       12 Threads,  60000 MiB Core
         ---------------------------------------------------------

  ==> Geometry <==

    Molecular point group: c1
    Full point group: C1

    Geometry (in Angstrom), charge = 0, multiplicity = 1:

       Center              X                  Y                   Z               Mass       
    ------------   -----------------  -----------------  -----------------  -----------------
           C         -2.558511975397    -1.434827371041    -0.671443708437    12.000000000000
           H         -3.511842689844    -1.899332044103    -0.922660258811     1.007825032070
           H         -1.929986834483    -2.194199465718    -0.202901095477     1.007825032070
           H         -2.082166317699    -1.137258099527    -1.604851948555     1.007825032070
           C          3.059149254608    -1.425973192605     0.065349889015    12.000000000000
           H          3.015113191948    -2.412645652439     0.525827424342     1.007825032070
           H          3.948481365122    -0.918570546768     0.441260722478     1.007825032070
           H          3.185036125050    -1.562753120914    -1.009547332573     1.007825032070
           C         -2.752334177093    -0.247703853785     0.266792041576    12.000000000000
           H         -3.305476362318    -0.577956137858     1.148835190288     1.007825032070
           H         -3.370750389560     0.511168845537    -0.220953357006     1.007825032070
           C          1.806071879102    -0.610143537858     0.360555614987    12.000000000000
           H          0.928232607329    -1.153039487644     0.002926668389     1.007825032070
           H          1.684449416455    -0.495070615916     1.441380187292     1.007825032070
           C         -1.436591385157     0.386165757689     0.711977588957    12.000000000000
           H         -0.802832133553    -0.382219424939     1.161957322490     1.007825032070
           H         -1.634770934084     1.120100685109     1.498286058316     1.007825032070
           C         -0.685301660271     1.092156152555    -0.414968666140    12.000000000000
           H         -1.328363022877     1.891010547641    -0.794271512908     1.007825032070
           H         -0.525115233762     0.406687717661    -1.251971343476     1.007825032070
           C          0.668699514567     1.673287459180     0.016946231391    12.000000000000
           H          0.833443256171     2.630116620577    -0.483041319830     1.007825032070
           H          0.642862683929     1.888573763910     1.089917316350     1.007825032070
           C          1.860021534673     0.766866085371    -0.290571546678    12.000000000000
           H          1.934522319094     0.638947093482    -1.375676270281     1.007825032070
           H          2.781112363729     1.267127519007     0.023993142410     1.007825032070

  Running in c1 symmetry.

  Rotational constants: A =      0.09137  B =      0.03165  C =      0.02600 [cm^-1]
  Rotational constants: A =   2739.16277  B =    948.79187  C =    779.37221 [MHz]
  Nuclear repulsion =  397.774477962017841

  Charge       = 0
  Multiplicity = 1
  Electrons    = 66
  Nalpha       = 33
  Nbeta        = 33

  ==> Algorithm <==

  SCF Algorithm Type is DF.
  DIIS enabled.
  MOM disabled.
  Fractional occupation disabled.
  Guess Type is READ.
  Energy threshold   = 1.00e-10
  Density threshold  = 1.00e-10
  Integral threshold = 0.00e+00

  ==> Primary Basis <==

  Basis Set: AUG-CC-PVTZ
    Number of shells: 274
    Number of basis function: 782
    Number of Cartesian functions: 890
    Spherical Harmonics?: true
    Max angular momentum: 3

  ==> Pre-Iterations <==

   -------------------------------------------------------
    Irrep   Nso     Nmo     Nalpha   Nbeta   Ndocc  Nsocc
   -------------------------------------------------------
     A        782     782       0       0       0       0
   -------------------------------------------------------
    Total     782     782      33      33      33       0
   -------------------------------------------------------

  ==> Integral Setup <==

  ==> DFJK: Density-Fitted J/K Matrices <==

    J tasked:                  Yes
    K tasked:                  Yes
    wK tasked:                  No
    OpenMP threads:             12
    Integrals threads:          12
    Memory (MB):             42915
    Algorithm:                Core
    Integral Cache:           NONE
    Schwarz Cutoff:          1E-12
    Fitting Condition:       1E-12

   => Auxiliary Basis Set <=

  Basis Set: 
    Number of shells: 492
    Number of basis function: 1660
    Number of Cartesian functions: 2038
    Spherical Harmonics?: true
    Max angular momentum: 4

  Minimum eigenvalue in the overlap matrix is 1.5706687088E-06.
  Using Symmetric Orthogonalization.
  SCF Guess: Reading in previously saved MOs, projecting if necessary.

  Using orbitals from previous SCF, no projection.
  Recomputing DOCC and SOCC from number of alpha and beta electrons from previous calculation.
              A 
    DOCC [    33 ]

  ==> Iterations <==

                           Total Energy        Delta E     RMS |[F,P]|

   @DF-RHF iter   0:  -313.53875370444484   -3.13539e+02   1.42252e-07 
   @DF-RHF iter   1:  -313.53875450123735   -7.96793e-07   2.96620e-08 
   @DF-RHF iter   2:  -313.53875450178305   -5.45697e-10   1.12968e-08 DIIS
   @DF-RHF iter   3:  -313.53875450186240   -7.93534e-11   5.01228e-09 DIIS
   @DF-RHF iter   4:  -313.53875450187661   -1.42109e-11   5.72031e-10 DIIS
   @DF-RHF iter   5:  -313.53875450187604    5.68434e-13   1.62267e-10 DIIS
   @DF-RHF iter   6:  -313.53875450187502    1.02318e-12   4.31848e-11 DIIS

  ==> Post-Iterations <==

    Orbital Energies (a.u.)
    -----------------------

    Doubly Occupied:                                                      

       1A    -11.212536     2A    -11.212235     3A    -11.210878  
       4A    -11.210280     5A    -11.209646     6A    -11.208973  
       7A    -11.207114     8A    -11.206965     9A     -1.093677  
      10A     -1.059698    11A     -1.008868    12A     -0.947240  
      13A     -0.883640    14A     -0.831020    15A     -0.778379  
      16A     -0.768553    17A     -0.646811    18A     -0.620800  
      19A     -0.608314    20A     -0.602516    21A     -0.580336  
      22A     -0.557619    23A     -0.545296    24A     -0.528882  
      25A     -0.511166    26A     -0.504009    27A     -0.485515  
      28A     -0.482536    29A     -0.463886    30A     -0.460207  
      31A     -0.448601    32A     -0.437659    33A     -0.431643  

    Virtual:                                                              

      34A      0.029063    35A      0.033118    36A      0.033636  
      37A      0.035162    38A      0.046392    39A      0.047911  
      40A      0.050165    41A      0.053785    42A      0.055860  
      43A      0.066939    44A      0.068544    45A      0.071080  
      46A      0.073819    47A      0.077413    48A      0.086002  
      49A      0.091573    50A      0.099027    51A      0.100980  
      52A      0.113213    53A      0.116579    54A      0.119340  
      55A      0.122909    56A      0.127705    57A      0.131095  
      58A      0.136214    59A      0.137544    60A      0.141503  
      61A      0.146255    62A      0.146969    63A      0.150402  
      64A      0.158159    65A      0.158695    66A      0.162946  
      67A      0.165120    68A      0.168467    69A      0.170567  
      70A      0.173217    71A      0.174770    72A      0.179550  
      73A      0.187769    74A      0.193329    75A      0.200401  
      76A      0.201872    77A      0.215686    78A      0.218900  
      79A      0.226924    80A      0.236104    81A      0.240997  
      82A      0.244336    83A      0.248668    84A      0.254098  
      85A      0.269533    86A      0.272242    87A      0.273455  
      88A      0.278995    89A      0.291084    90A      0.294213  
      91A      0.300152    92A      0.302961    93A      0.304131  
      94A      0.313550    95A      0.316457    96A      0.317779  
      97A      0.321797    98A      0.330155    99A      0.333741  
     100A      0.336925   101A      0.339172   102A      0.346129  
     103A      0.346742   104A      0.352741   105A      0.359156  
     106A      0.360321   107A      0.361174   108A      0.366167  
     109A      0.371989   110A      0.376056   111A      0.377714  
     112A      0.383313   113A      0.384937   114A      0.387728  
     115A      0.394044   116A      0.396452   117A      0.398249  
     118A      0.402383   119A      0.404188   120A      0.408110  
     121A      0.417332   122A      0.418366   123A      0.424313  
     124A      0.428450   125A      0.433684   126A      0.437799  
     127A      0.439470   128A      0.446589   129A      0.447544  
     130A      0.450566   131A      0.453663   132A      0.457515  
     133A      0.463165   134A      0.470953   135A      0.471724  
     136A      0.475467   137A      0.478010   138A      0.483059  
     139A      0.484922   140A      0.491321   141A      0.494242  
     142A      0.499591   143A      0.501177   144A      0.504130  
     145A      0.509301   146A      0.512043   147A      0.514206  
     148A      0.519151   149A      0.523980   150A      0.525031  
     151A      0.529520   152A      0.532050   153A      0.533858  
     154A      0.544106   155A      0.549826   156A      0.550560  
     157A      0.553404   158A      0.558893   159A      0.563516  
     160A      0.571028   161A      0.574167   162A      0.579865  
     163A      0.583928   164A      0.592590   165A      0.598959  
     166A      0.602530   167A      0.604221   168A      0.610588  
     169A      0.613101   170A      0.618888   171A      0.622812  
     172A      0.625901   173A      0.629849   174A      0.635146  
     175A      0.641902   176A      0.647198   177A      0.651066  
     178A      0.655688   179A      0.662065   180A      0.666410  
     181A      0.677999   182A      0.682006   183A      0.686831  
     184A      0.692954   185A      0.699725   186A      0.701632  
     187A      0.710141   188A      0.712334   189A      0.716522  
     190A      0.719550   191A      0.727144   192A      0.734207  
     193A      0.737460   194A      0.739747   195A      0.748579  
     196A      0.751008   197A      0.761679   198A      0.773111  
     199A      0.785677   200A      0.791077   201A      0.798391  
     202A      0.808405   203A      0.817925   204A      0.822842  
     205A      0.828475   206A      0.834862   207A      0.842197  
     208A      0.852110   209A      0.855170   210A      0.866674  
     211A      0.870090   212A      0.875486   213A      0.881604  
     214A      0.885466   215A      0.887441   216A      0.887871  
     217A      0.895211   218A      0.906478   219A      0.907724  
     220A      0.914483   221A      0.916816   222A      0.923291  
     223A      0.926326   224A      0.931485   225A      0.932352  
     226A      0.940609   227A      0.945354   228A      0.951452  
     229A      0.954151   230A      0.957696   231A      0.970848  
     232A      0.972687   233A      0.976055   234A      0.978217  
     235A      0.986586   236A      0.993714   237A      0.994349  
     238A      1.005776   239A      1.007840   240A      1.012068  
     241A      1.018269   242A      1.023253   243A      1.029636  
     244A      1.033332   245A      1.038940   246A      1.042533  
     247A      1.048275   248A      1.051296   249A      1.051873  
     250A      1.061830   251A      1.069708   252A      1.077606  
     253A      1.085922   254A      1.092706   255A      1.096571  
     256A      1.100296   257A      1.105596   258A      1.110118  
     259A      1.113843   260A      1.118748   261A      1.122207  
     262A      1.130276   263A      1.136296   264A      1.136827  
     265A      1.145378   266A      1.148340   267A      1.152383  
     268A      1.160218   269A      1.165044   270A      1.172800  
     271A      1.178902   272A      1.181359   273A      1.184527  
     274A      1.190277   275A      1.192908   276A      1.198921  
     277A      1.206543   278A      1.210746   279A      1.211749  
     280A      1.222283   281A      1.226554   282A      1.233779  
     283A      1.238153   284A      1.246000   285A      1.250452  
     286A      1.252044   287A      1.260252   288A      1.264802  
     289A      1.270079   290A      1.274832   291A      1.280294  
     292A      1.289511   293A      1.294109   294A      1.296864  
     295A      1.304493   296A      1.313995   297A      1.316094  
[...]
	 D(15,18,21,24)   =         1.684230	      96.499282
	 D(16,15,18,19)   =        -3.080712	    -176.511788
	 D(16,15,18,20)   =         1.187129	      68.017487
	 D(16,15,18,21)   =        -0.952220	     -54.558162
	 D(17,15,18,19)   =        -1.061557	     -60.822759
	 D(17,15,18,20)   =        -3.076902	    -176.293484
	 D(17,15,18,21)   =         1.066935	      61.130867
	 D(18,21,24,25)   =         1.098382	      62.932647
	 D(18,21,24,26)   =         3.115461	     178.502759
	 D(19,18,21,22)   =        -0.375180	     -21.496219
	 D(19,18,21,23)   =         1.650329	      94.556866
	 D(19,18,21,24)   =        -2.491294	    -142.740619
	 D(20,18,21,22)   =         1.647209	      94.378141
	 D(20,18,21,23)   =        -2.610468	    -149.568773
	 D(20,18,21,24)   =        -0.468905	     -26.866259
	 D(22,21,24,25)   =        -1.032866	     -59.178863
	 D(22,21,24,26)   =         0.984213	      56.391250
	 D(23,21,24,25)   =        -3.044948	    -174.462680
	 D(23,21,24,26)   =        -1.027869	     -58.892568
	 R(12,15)         =         6.444754	       3.410417

	Current energy   :      -314.9809516679

	Energy change for the previous step:
		Projected    :        -0.0000000000
		Actual       :        -0.0000000001

	Performing BFGS update.
	Previous computed or guess Hessian on step 1.
	Denominators (dg)(dq) or (dq)(dq) are very small.
	 Skipping Hessian update for step 10.
	Denominators (dg)(dq) or (dq)(dq) are very small.
	 Skipping Hessian update for step 9.
	Denominators (dg)(dq) or (dq)(dq) are very small.
	 Skipping Hessian update for step 8.
	Denominators (dg)(dq) or (dq)(dq) are very small.
	 Skipping Hessian update for step 7.
	Denominators (dg)(dq) or (dq)(dq) are very small.
	 Skipping Hessian update for step 6.
	Denominators (dg)(dq) or (dq)(dq) are very small.
	 Skipping Hessian update for step 5.
	Denominators (dg)(dq) or (dq)(dq) are very small.
	 Skipping Hessian update for step 4.
	Denominators (dg)(dq) or (dq)(dq) are very small.
	 Skipping Hessian update for step 3.
	Denominators (dg)(dq) or (dq)(dq) are very small.
	 Skipping Hessian update for step 2.
	Steps to be used in Hessian update: 1
	Taking RFO optimization step.
	Going to follow RFO solution 1.
	Using RFO vector 1.
	Norm of target step-size    0.00002
	Projected energy change by RFO approximation:        -0.0000000000

	Back-transformation to cartesian coordinates...
	Successfully converged to displaced geometry.

	--- Internal Coordinate Step in ANG or DEG, aJ/ANG or AJ/DEG ---
	 ---------------------------------------------------------------------------
	   Coordinate                Previous        Force       Change         New 
	   ----------                --------       ------       ------       ------
	    1 R(1,2)          =      1.089823     0.000002     0.000000     1.089823
	    2 R(1,3)          =      1.091431     0.000002     0.000000     1.091431
	    3 R(1,4)          =      1.089359     0.000003     0.000000     1.089360
	    4 R(1,9)          =      1.525489    -0.000001     0.000000     1.525489
	    5 R(5,6)          =      1.089726     0.000005     0.000000     1.089726
	    6 R(5,7)          =      1.090724     0.000004     0.000000     1.090724
	    7 R(5,8)          =      1.090853     0.000005     0.000000     1.090854
	    8 R(5,12)         =      1.524116     0.000001    -0.000000     1.524115
	    9 R(9,10)         =      1.092261     0.000001     0.000000     1.092261
	   10 R(9,11)         =      1.093719     0.000002     0.000000     1.093720
	   11 R(9,15)         =      1.526814    -0.000002     0.000000     1.526814
	   12 R(12,13)        =      1.092354     0.000007     0.000000     1.092354
	   13 R(12,14)        =      1.093717     0.000007     0.000000     1.093717
	   14 R(12,24)        =      1.524150     0.000003    -0.000000     1.524150
	   15 R(15,16)        =      1.092954     0.000003     0.000000     1.092954
	   16 R(15,17)        =      1.093717     0.000002     0.000000     1.093717
	   17 R(15,18)        =      1.527372    -0.000007    -0.000000     1.527372
	   18 R(18,19)        =      1.093420     0.000006     0.000000     1.093420
	   19 R(18,20)        =      1.093664     0.000007     0.000000     1.093664
	   20 R(18,21)        =      1.535442    -0.000001     0.000000     1.535442
	   21 R(21,22)        =      1.092086     0.000007     0.000000     1.092086
	   22 R(21,23)        =      1.094662     0.000009     0.000000     1.094662
	   23 R(21,24)        =      1.528207     0.000000     0.000000     1.528207
	   24 R(24,25)        =      1.095156     0.000008     0.000000     1.095157
	   25 R(24,26)        =      1.094359     0.000005     0.000000     1.094359
	   26 B(1,9,10)       =    109.009235     0.000000    -0.000014   109.009221
	   27 B(1,9,11)       =    109.725140     0.000000     0.000012   109.725152
	   28 B(1,9,15)       =    113.135947    -0.000000    -0.000021   113.135926
	   29 B(2,1,3)        =    107.827922     0.000000     0.000000   107.827922
	   30 B(2,1,4)        =    107.542971     0.000000    -0.000001   107.542970
	   31 B(2,1,9)        =    111.242227    -0.000000     0.000006   111.242233
	   32 B(3,1,4)        =    107.822906    -0.000000    -0.000004   107.822902
	   33 B(3,1,9)        =    110.522187     0.000000     0.000003   110.522190
	   34 B(4,1,9)        =    111.714292     0.000000    -0.000003   111.714288
	   35 B(5,12,13)      =    109.345605     0.000000     0.000014   109.345619
	   36 B(5,12,14)      =    109.825132     0.000000    -0.000015   109.825117
	   37 B(5,12,24)      =    111.824094    -0.000000    -0.000036   111.824058
	   38 B(6,5,7)        =    107.970100    -0.000000     0.000002   107.970101
	   39 B(6,5,8)        =    107.909535    -0.000000     0.000003   107.909538
	   40 B(6,5,12)       =    111.690354     0.000000    -0.000003   111.690351
	   41 B(7,5,8)        =    107.688291    -0.000000    -0.000001   107.688290
	   42 B(7,5,12)       =    110.768722     0.000000     0.000001   110.768723
	   43 B(8,5,12)       =    110.662018     0.000000    -0.000002   110.662016
	   44 B(9,15,16)      =    109.139734     0.000000    -0.000025   109.139709
	   45 B(9,15,17)      =    109.394248     0.000000     0.000014   109.394262
	   46 B(9,15,18)      =    113.618476    -0.000000    -0.000029   113.618448
	   47 B(10,9,11)      =    106.473357    -0.000000     0.000005   106.473362
	   48 B(10,9,15)      =    109.055031     0.000000     0.000001   109.055031
	   49 B(11,9,15)      =    109.222203     0.000000     0.000019   109.222222
	   50 B(12,24,21)     =    114.980500     0.000000     0.000031   114.980531
	   51 B(12,24,25)     =    108.672973    -0.000000    -0.000006   108.672967
	   52 B(12,24,26)     =    108.662366    -0.000000    -0.000003   108.662363
	   53 B(13,12,14)     =    106.646132    -0.000000     0.000012   106.646144
	   54 B(13,12,24)     =    109.730641     0.000000     0.000012   109.730653
	   55 B(14,12,24)     =    109.332650     0.000000     0.000016   109.332666
	   56 B(15,18,19)     =    107.720104    -0.000000    -0.000034   107.720071
	   57 B(15,18,20)     =    110.305016     0.000000     0.000056   110.305072
	   58 B(15,18,21)     =    113.650152    -0.000000    -0.000020   113.650132
	   59 B(16,15,17)     =    106.310776    -0.000000     0.000015   106.310791
	   60 B(16,15,18)     =    110.090968     0.000000     0.000026   110.090995
	   61 B(17,15,18)     =    108.023388     0.000000     0.000002   108.023390
	   62 B(18,21,22)     =    109.623799     0.000000    -0.000016   109.623783
	   63 B(18,21,23)     =    109.229051    -0.000000    -0.000005   109.229046
	   64 B(18,21,24)     =    113.975563     0.000000     0.000045   113.975608
	   65 B(19,18,20)     =    106.174827     0.000000     0.000008   106.174836
	   66 B(19,18,21)     =    109.857717     0.000000     0.000010   109.857727
	   67 B(20,18,21)     =    108.864929    -0.000000    -0.000018   108.864910
	   68 B(21,24,25)     =    108.765277    -0.000000     0.000009   108.765286
	   69 B(21,24,26)     =    109.096084    -0.000000    -0.000032   109.096052
	   70 B(22,21,23)     =    106.260526     0.000000     0.000012   106.260538
	   71 B(22,21,24)     =    108.055655    -0.000000    -0.000036   108.055619
	   72 B(23,21,24)     =    109.407911     0.000000    -0.000002   109.407909
	   73 B(25,24,26)     =    106.316385     0.000000    -0.000002   106.316383
	   74 D(1,9,15,16)    =    -55.153804    -0.000000     0.000072   -55.153733
	   75 D(1,9,15,17)    =   -171.088296    -0.000000     0.000060  -171.088236
	   76 D(1,9,15,18)    =     68.118155     0.000000     0.000067    68.118222
	   77 D(2,1,9,10)     =     55.136653     0.000000    -0.000177    55.136476
	   78 D(2,1,9,11)     =    -61.104087     0.000000    -0.000182   -61.104268
	   79 D(2,1,9,15)     =    176.650714     0.000000    -0.000200   176.650514
	   80 D(3,1,9,10)     =    -64.615221     0.000000    -0.000183   -64.615404
	   81 D(3,1,9,11)     =    179.144039     0.000000    -0.000187   179.143852
	   82 D(3,1,9,15)     =     56.898840     0.000000    -0.000206    56.898634
	   83 D(4,1,9,10)     =    175.328552    -0.000000    -0.000177   175.328375
	   84 D(4,1,9,11)     =     59.087813    -0.000000    -0.000182    59.087631
	   85 D(4,1,9,15)     =    -63.157387    -0.000000    -0.000200   -63.157587
	   86 D(5,12,24,21)   =   -177.081222    -0.000000     0.000149  -177.081073
	   87 D(5,12,24,25)   =     60.773913    -0.000000     0.000121    60.774034
	   88 D(5,12,24,26)   =    -54.513126    -0.000000     0.000128   -54.512998
	   89 D(6,5,12,13)    =    -57.848499     0.000000     0.000025   -57.848474
	   90 D(6,5,12,14)    =     58.850490    -0.000000     0.000038    58.850528
	   91 D(6,5,12,24)    =   -179.585525    -0.000000     0.000024  -179.585501
	   92 D(7,5,12,13)    =   -178.242864     0.000000     0.000023  -178.242840
	   93 D(7,5,12,14)    =    -61.543875    -0.000000     0.000037   -61.543838
	   94 D(7,5,12,24)    =     60.020110    -0.000000     0.000023    60.020133
	   95 D(8,5,12,13)    =     62.396299     0.000000     0.000025    62.396324
	   96 D(8,5,12,14)    =    179.095288    -0.000000     0.000039   179.095327
	   97 D(8,5,12,24)    =    -59.340727    -0.000000     0.000025   -59.340702
	   98 D(9,15,18,19)   =     60.738065     0.000000    -0.000003    60.738063
	   99 D(9,15,18,20)   =    -54.732660    -0.000000    -0.000023   -54.732683
	  100 D(9,15,18,21)   =   -177.308309     0.000000    -0.000026  -177.308335
	  101 D(10,9,15,16)   =     66.334479    -0.000000     0.000041    66.334520
	  102 D(10,9,15,17)   =    -49.600013    -0.000000     0.000029   -49.599984
	  103 D(10,9,15,18)   =   -170.393562     0.000000     0.000036  -170.393526
	  104 D(11,9,15,16)   =   -177.679393    -0.000000     0.000057  -177.679335
	  105 D(11,9,15,17)   =     66.386116    -0.000000     0.000046    66.386161
	  106 D(11,9,15,18)   =    -54.407434     0.000000     0.000053   -54.407381
	  107 D(12,24,21,18)  =    -59.162396    -0.000000     0.000120   -59.162276
	  108 D(12,24,21,22)  =    178.726095    -0.000000     0.000136   178.726231
	  109 D(12,24,21,23)  =     63.442277    -0.000000     0.000143    63.442421
	  110 D(13,12,24,21)  =     61.403626    -0.000000     0.000148    61.403774
	  111 D(13,12,24,25)  =    -60.741238    -0.000000     0.000119   -60.741119
	  112 D(13,12,24,26)  =   -176.028278    -0.000000     0.000126  -176.028152
	  113 D(14,12,24,21)  =    -55.233690    -0.000000     0.000117   -55.233573
	  114 D(14,12,24,25)  =   -177.378555    -0.000000     0.000089  -177.378466
	  115 D(14,12,24,26)  =     67.334406    -0.000000     0.000096    67.334502
	  116 D(15,18,21,22)  =   -142.256318    -0.000000    -0.000002  -142.256320
	  117 D(15,18,21,23)  =    -26.203233    -0.000000     0.000000   -26.203232
	  118 D(15,18,21,24)  =     96.499282     0.000000     0.000025    96.499307
	  119 D(16,15,18,19)  =   -176.511788    -0.000000    -0.000036  -176.511824
	  120 D(16,15,18,20)  =     68.017487    -0.000000    -0.000056    68.017431
	  121 D(16,15,18,21)  =    -54.558162    -0.000000    -0.000060   -54.558222
	  122 D(17,15,18,19)  =    -60.822759     0.000000    -0.000003   -60.822762
	  123 D(17,15,18,20)  =   -176.293484    -0.000000    -0.000023  -176.293507
	  124 D(17,15,18,21)  =     61.130867     0.000000    -0.000027    61.130840
	  125 D(18,21,24,25)  =     62.932647     0.000000     0.000141    62.932787
	  126 D(18,21,24,26)  =    178.502759    -0.000000     0.000126   178.502885
	  127 D(19,18,21,22)  =    -21.496219    -0.000000    -0.000051   -21.496270
	  128 D(19,18,21,23)  =     94.556866    -0.000000    -0.000049    94.556817
	  129 D(19,18,21,24)  =   -142.740619    -0.000000    -0.000024  -142.740644
	  130 D(20,18,21,22)  =     94.378141    -0.000000    -0.000046    94.378095
	  131 D(20,18,21,23)  =   -149.568773    -0.000000    -0.000044  -149.568817
	  132 D(20,18,21,24)  =    -26.866259     0.000000    -0.000019   -26.866278
	  133 D(22,21,24,25)  =    -59.178863     0.000000     0.000157   -59.178706
	  134 D(22,21,24,26)  =     56.391250    -0.000000     0.000142    56.391392
	  135 D(23,21,24,25)  =   -174.462680     0.000000     0.000164  -174.462516
	  136 D(23,21,24,26)  =    -58.892568    -0.000000     0.000149   -58.892419
	  137 R(12,15)        =      3.410417     0.000002     0.000001     3.410418
	 ---------------------------------------------------------------------------

  ==> Convergence Check <==

  Measures of convergence in internal coordinates in au.
  Criteria marked as inactive (o), active & met (*), and active & unmet ( ).
  ---------------------------------------------------------------------------------------------
   Step     Total Energy     Delta E     MAX Force     RMS Force      MAX Disp      RMS Disp   
  ---------------------------------------------------------------------------------------------
    Convergence Criteria             o    2.00e-06 *    1.00e-06 *    6.00e-06 *    4.00e-06 *
  ---------------------------------------------------------------------------------------------
     11    -314.98095167   -1.32e-10 o    1.12e-06 *    2.54e-07 *    3.59e-06 *    1.28e-06 *  ~
  ---------------------------------------------------------------------------------------------


  **** Optimization is complete! (in 11 steps) ****

  ==> Optimization Summary <==

  Measures of convergence in internal coordinates in au.
  --------------------------------------------------------------------------------------------------------------- ~
   Step         Total Energy             Delta E       MAX Force       RMS Force        MAX Disp        RMS Disp  ~
  --------------------------------------------------------------------------------------------------------------- ~
      1    -314.980951669463   -314.980951669463      0.00000066      0.00000015      0.00003460      0.00001442  ~
      2    -314.980951668870      0.000000000593      0.00000253      0.00000061      0.00006098      0.00001589  ~
      3    -314.980951668597      0.000000000273      0.00000156      0.00000035      0.00007027      0.00001894  ~
      4    -314.980951666148      0.000000002449      0.00000148      0.00000037      0.00010701      0.00002893  ~
      5    -314.980951668595     -0.000000002447      0.00000225      0.00000047      0.00009246      0.00002595  ~
      6    -314.980951664120      0.000000004476      0.00000043      0.00000011      0.00001938      0.00000491  ~
      7    -314.980951666389     -0.000000002269      0.00000101      0.00000021      0.00001312      0.00000421  ~
      8    -314.980951662372      0.000000004017      0.00000070      0.00000016      0.00006335      0.00001581  ~
      9    -314.980951668501     -0.000000006129      0.00000197      0.00000041      0.00004844      0.00001237  ~
     10    -314.980951667798      0.000000000703      0.00000088      0.00000019      0.00001220      0.00000407  ~
     11    -314.980951667930     -0.000000000132      0.00000112      0.00000025      0.00000359      0.00000128  ~
  --------------------------------------------------------------------------------------------------------------- ~

	Writing optimization data to binary file.
	Final energy is   -314.9809516679299
	Final (previous) structure:
	Cartesian Geometry (in Angstrom)
	    C    -2.5585464382  -1.4348080974  -0.6714760021
	    H    -3.5118876749  -1.8992940510  -0.9226873842
	    H    -1.9300222063  -2.1942005211  -0.2029649457
	    H    -2.0822141799  -1.1372200191  -1.6048852384
	    C     3.0591628626  -1.4259654948   0.0653679229
	    H     3.0151447602  -2.4126242257   0.5258775049
	    H     3.9485087338  -0.9185504052   0.4412304928
	    H     3.1850104019  -1.5627785856  -1.0095301472
	    C    -2.7523369643  -0.2477072069   0.2667948086
	    H    -3.3054650715  -0.5779765449   1.1488404832
	    H    -3.3707550864   0.5111848373  -0.2209183613
	    C     1.8060952222  -0.6101280393   0.3605947362
	    H     0.9282430574  -1.1530371744   0.0030150250
	    H     1.6845122735  -0.4950230842   1.4414210568
	    C    -1.4365786607   0.3861370261   0.7119702462
	    H    -0.8028177433  -0.3822658614   1.1619179121
	    H    -1.6347350907   1.1200539518   1.4983013707
	    C    -0.6853059502   1.0921497829  -0.4149729295
	    H    -1.3283772719   1.8910056096  -0.7942564668
	    H    -0.5251230730   0.4066949063  -1.2519880631
	    C     0.6686955380   1.6732847980   0.0169361908
	    H     0.8334381782   2.6301095658  -0.4830608834
	    H     0.6428598903   1.8885817855   1.0899057677
	    C     1.8600188411   0.7668626475  -0.2905762354
	    H     1.9345000194   0.6389112243  -1.3756792334
	    H     2.7811120442   1.2671415976   0.0239553058
	Saving final (previous) structure.
			--------------------------
			 OPTKING Finished Execution 
			--------------------------

    Final optimized geometry and variables:
    Molecular point group: c1
    Full point group: C1

    Geometry (in Angstrom), charge = 0, multiplicity = 1:

    C           -2.558546438236    -1.434808097382    -0.671476002056
    H           -3.511887674864    -1.899294051025    -0.922687384151
    H           -1.930022206283    -2.194200521143    -0.202964945730
    H           -2.082214179950    -1.137220019063    -1.604885238363
    C            3.059162862592    -1.425965494843     0.065367922940
    H            3.015144760186    -2.412624225740     0.525877504926
    H            3.948508733778    -0.918550405180     0.441230492802
    H            3.185010401920    -1.562778585550    -1.009530147181
    C           -2.752336964257    -0.247707206883     0.266794808629
    H           -3.305465071546    -0.577976544916     1.148840483154
    H           -3.370755086446     0.511184837279    -0.220918361269
    C            1.806095222156    -0.610128039346     0.360594736238
    H            0.928243057446    -1.153037174363     0.003015025014
    H            1.684512273542    -0.495023084178     1.441421056823
    C           -1.436578660658     0.386137026068     0.711970246196
    H           -0.802817743298    -0.382265861390     1.161917912091
    H           -1.634735090653     1.120053951766     1.498301370665
    C           -0.685305950167     1.092149782905    -0.414972929487
    H           -1.328377271928     1.891005609576    -0.794256466768
    H           -0.525123072953     0.406694906333    -1.251988063059
    C            0.668695537987     1.673284797979     0.016936190778
    H            0.833438178245     2.630109565778    -0.483060883425
    H            0.642859890264     1.888581785481     1.089905767739
    C            1.860018841124     0.766862647456    -0.290576235382
    H            1.934500019417     0.638911224339    -1.375679233372
    H            2.781112044212     1.267141597597     0.023955305788

	Cleaning optimization helper files.

*** Psi4 exiting successfully. Buy a developer a beer!
