    -----------------------------------------------------------------------
          Psi4: An Open-Source Ab Initio Electronic Structure Package
                              Psi4 1.0.0 Driver

                          Git: Rev {master} 6a9a71b dirty

    J. M. Turney, A. C. Simmonett, R. M. Parrish, E. G. Hohenstein,
    F. A. Evangelista, J. T. Fermann, B. J. Mintz, L. A. Burns, J. J. Wilke,
    M. L. Abrams, N. J. Russ, M. L. Leininger, C. L. Janssen, E. T. Seidl,
    W. D. Allen, H. F. Schaefer, R. A. King, E. F. Valeev, C. D. Sherrill,
    and T. D. Crawford, WIREs Comput. Mol. Sci. 2, 556-565 (2012)
    (doi: 10.1002/wcms.93)

                         Additional Contributions by
    A. E. DePrince, U. Bozkaya, A. Yu. Sokolov, D. G. A. Smith, R. Di Remigio,
    R. M. Richard, J. F. Gonthier, H. R. McAlexander, M. Saitow, and
    B. P. Pritchard
    -----------------------------------------------------------------------


    Psi4 started on: Wed Sep 21 04:57:33 2016

    Process ID:   1317
    PSI4DATADIR: /usr/local/hpc5/psi4conda/share/psi4
    Memory level set to 256.000 MB

  ==> Input File <==

--------------------------------------------------------------------------
memory 60 Gb

molecule molecule_46_psi {
0 1
C            3.230125459276     0.233540303966     0.005669262265
H            4.022278690902     0.541749349083    -0.676294659142
H            3.665661860850    -0.445525303215     0.740784008445
H            2.887730816018     1.121684382903     0.536503917432
C           -2.596992627774    -1.223651145492    -0.048659699192
H           -3.556648137330    -1.592945633186     0.313993989009
H           -1.822825518195    -1.608631505663     0.611918391462
H           -2.430187278151    -1.650116571373    -1.039073360257
C            2.089553576586    -0.444898252318    -0.744931655498
H            2.489967195582    -1.265187904211    -1.344837615464
H            1.645578594604     0.259945151670    -1.452030740903
C           -2.592124237351     0.301405707157    -0.119287021488
H           -3.437889650302     0.611943291329    -0.736395329969
H           -2.772821349862     0.719663868800     0.875405654946
C            1.007373715900    -1.001601132698     0.179658850021
H            1.447561084262    -1.783397948638     0.806046557669
H            0.240780605839    -1.489994268481    -0.425847309617
C            0.358839659388     0.044765988308     1.086896950530
H            1.100397601310     0.413223056966     1.800214969012
H           -0.417491402691    -0.432435582308     1.689547737644
C           -0.230918163392     1.240586868178     0.340418550608
H           -0.657971987026     1.933360434950     1.071671676964
H            0.577044226473     1.786121438504    -0.154933074814
C           -1.308916198533     0.915190755091    -0.695275805996
H           -1.563359675707     1.848863624108    -1.202374910241
H           -0.905111732337     0.253698741687    -1.467754790952
}

set globals {
  reference rhf
  g_convergence gau_verytight
  basis aug-cc-pvtz
  freeze_core true
  scf_type df
  mp_type df
}
optimize('mp2')
--------------------------------------------------------------------------
/usr/local/hpc5/psi4conda/lib/python2.7/site-packages/v2rdm_casscf/v2rdm_casscf.so loaded.

  Memory set to  60.000 GiB by Python script.
gradient() will perform analytic gradient computation.

*** tstart() called on wr39
*** at Wed Sep 21 04:57:34 2016


         ---------------------------------------------------------
                                   SCF
            by Justin Turney, Rob Parrish, and Andy Simmonett
                              RHF Reference
                       12 Threads,  60000 MiB Core
         ---------------------------------------------------------

  ==> Geometry <==

    Molecular point group: c1
    Full point group: C1

    Geometry (in Angstrom), charge = 0, multiplicity = 1:

       Center              X                  Y                   Z               Mass       
    ------------   -----------------  -----------------  -----------------  -----------------
           C          3.230125459276     0.233540303966     0.005669262265    12.000000000000
           H          4.022278690902     0.541749349083    -0.676294659142     1.007825032070
           H          3.665661860850    -0.445525303215     0.740784008445     1.007825032070
           H          2.887730816018     1.121684382903     0.536503917432     1.007825032070
           C         -2.596992627774    -1.223651145492    -0.048659699192    12.000000000000
           H         -3.556648137330    -1.592945633186     0.313993989009     1.007825032070
           H         -1.822825518195    -1.608631505663     0.611918391462     1.007825032070
           H         -2.430187278151    -1.650116571373    -1.039073360257     1.007825032070
           C          2.089553576586    -0.444898252318    -0.744931655498    12.000000000000
           H          2.489967195582    -1.265187904211    -1.344837615464     1.007825032070
           H          1.645578594604     0.259945151670    -1.452030740903     1.007825032070
           C         -2.592124237351     0.301405707157    -0.119287021488    12.000000000000
           H         -3.437889650302     0.611943291329    -0.736395329969     1.007825032070
           H         -2.772821349862     0.719663868800     0.875405654946     1.007825032070
           C          1.007373715900    -1.001601132698     0.179658850021    12.000000000000
           H          1.447561084262    -1.783397948638     0.806046557669     1.007825032070
           H          0.240780605839    -1.489994268481    -0.425847309617     1.007825032070
           C          0.358839659388     0.044765988308     1.086896950530    12.000000000000
           H          1.100397601310     0.413223056966     1.800214969012     1.007825032070
           H         -0.417491402691    -0.432435582308     1.689547737644     1.007825032070
           C         -0.230918163392     1.240586868178     0.340418550608    12.000000000000
           H         -0.657971987026     1.933360434950     1.071671676964     1.007825032070
           H          0.577044226473     1.786121438504    -0.154933074814     1.007825032070
           C         -1.308916198533     0.915190755091    -0.695275805996    12.000000000000
           H         -1.563359675707     1.848863624108    -1.202374910241     1.007825032070
           H         -0.905111732337     0.253698741687    -1.467754790952     1.007825032070

  Running in c1 symmetry.

  Rotational constants: A =      0.12066  B =      0.03247  C =      0.03000 [cm^-1]
  Rotational constants: A =   3617.40325  B =    973.39935  C =    899.38139 [MHz]
  Nuclear repulsion =  408.291434135238148

  Charge       = 0
  Multiplicity = 1
  Electrons    = 66
  Nalpha       = 33
  Nbeta        = 33

  ==> Algorithm <==

  SCF Algorithm Type is DF.
  DIIS enabled.
  MOM disabled.
  Fractional occupation disabled.
  Guess Type is SAD.
  Energy threshold   = 1.00e-10
  Density threshold  = 1.00e-10
  Integral threshold = 0.00e+00

  ==> Primary Basis <==

  Basis Set: AUG-CC-PVTZ
    Number of shells: 274
    Number of basis function: 782
    Number of Cartesian functions: 890
    Spherical Harmonics?: true
    Max angular momentum: 3

  ==> Pre-Iterations <==

   -------------------------------------------------------
    Irrep   Nso     Nmo     Nalpha   Nbeta   Ndocc  Nsocc
   -------------------------------------------------------
     A        782     782       0       0       0       0
   -------------------------------------------------------
    Total     782     782      33      33      33       0
   -------------------------------------------------------

  ==> Integral Setup <==

  ==> DFJK: Density-Fitted J/K Matrices <==

    J tasked:                  Yes
    K tasked:                  Yes
    wK tasked:                  No
    OpenMP threads:             12
    Integrals threads:          12
    Memory (MB):             42915
    Algorithm:                Core
    Integral Cache:           NONE
    Schwarz Cutoff:          1E-12
    Fitting Condition:       1E-12

   => Auxiliary Basis Set <=

  Basis Set: 
    Number of shells: 492
    Number of basis function: 1660
    Number of Cartesian functions: 2038
    Spherical Harmonics?: true
    Max angular momentum: 4

  Minimum eigenvalue in the overlap matrix is 1.2973950488E-06.
  Using Symmetric Orthogonalization.
  SCF Guess: Superposition of Atomic Densities via on-the-fly atomic UHF.

  ==> Iterations <==

                           Total Energy        Delta E     RMS |[F,P]|

   @DF-RHF iter   0:  -317.04464541483668   -3.17045e+02   7.04034e-03 
   @DF-RHF iter   1:  -313.29420672816144    3.75044e+00   7.11597e-04 
   @DF-RHF iter   2:  -313.50221703855101   -2.08010e-01   2.65794e-04 DIIS
   @DF-RHF iter   3:  -313.52914230727566   -2.69253e-02   1.01386e-04 DIIS
   @DF-RHF iter   4:  -313.53425593775393   -5.11363e-03   1.56126e-05 DIIS
   @DF-RHF iter   5:  -313.53442108704991   -1.65149e-04   4.88944e-06 DIIS
   @DF-RHF iter   6:  -313.53443382586516   -1.27388e-05   1.42883e-06 DIIS
   @DF-RHF iter   7:  -313.53443499974327   -1.17388e-06   2.60708e-07 DIIS
   @DF-RHF iter   8:  -313.53443505303409   -5.32908e-08   8.14356e-08 DIIS
   @DF-RHF iter   9:  -313.53443505689160   -3.85751e-09   2.28288e-08 DIIS
   @DF-RHF iter  10:  -313.53443505728234   -3.90742e-10   4.85430e-09 DIIS
   @DF-RHF iter  11:  -313.53443505730098   -1.86446e-11   1.17182e-09 DIIS
   @DF-RHF iter  12:  -313.53443505730178   -7.95808e-13   3.49522e-10 DIIS
   @DF-RHF iter  13:  -313.53443505730178    0.00000e+00   9.15116e-11 DIIS

  ==> Post-Iterations <==

    Orbital Energies (a.u.)
    -----------------------

    Doubly Occupied:                                                      

       1A    -11.213316     2A    -11.212186     3A    -11.210814  
       4A    -11.210229     5A    -11.209647     6A    -11.209027  
       7A    -11.206721     8A    -11.206439     9A     -1.095813  
      10A     -1.056092    11A     -1.003246    12A     -0.950720  
      13A     -0.891881    14A     -0.834953    15A     -0.789121  
      16A     -0.738621    17A     -0.651097    18A     -0.639611  
      19A     -0.603659    20A     -0.597093    21A     -0.575683  
      22A     -0.555779    23A     -0.544818    24A     -0.533057  
      25A     -0.521362    26A     -0.500952    27A     -0.492752  
      28A     -0.474026    29A     -0.468389    30A     -0.457862  
      31A     -0.439759    32A     -0.436357    33A     -0.433867  

    Virtual:                                                              

      34A      0.029878    35A      0.033684    36A      0.033960  
      37A      0.034864    38A      0.045644    39A      0.048752  
      40A      0.050929    41A      0.053367    42A      0.055099  
      43A      0.067920    44A      0.068606    45A      0.072299  
      46A      0.073338    47A      0.079704    48A      0.080100  
      49A      0.093150    50A      0.097628    51A      0.102039  
      52A      0.113828    53A      0.116038    54A      0.116574  
      55A      0.125265    56A      0.127268    57A      0.132555  
      58A      0.135038    59A      0.136183    60A      0.137304  
      61A      0.142078    62A      0.146077    63A      0.153427  
      64A      0.155721    65A      0.160442    66A      0.164103  
      67A      0.166789    68A      0.167574    69A      0.169195  
      70A      0.173425    71A      0.175578    72A      0.178236  
      73A      0.186064    74A      0.189096    75A      0.193090  
      76A      0.197910    77A      0.211090    78A      0.220427  
      79A      0.223214    80A      0.228241    81A      0.236307  
      82A      0.250805    83A      0.256302    84A      0.266958  
      85A      0.270304    86A      0.276879    87A      0.281791  
      88A      0.290097    89A      0.292720    90A      0.297748  
      91A      0.303003    92A      0.305365    93A      0.308918  
      94A      0.313261    95A      0.320576    96A      0.325129  
      97A      0.329594    98A      0.336311    99A      0.337860  
     100A      0.339943   101A      0.341849   102A      0.344780  
     103A      0.350227   104A      0.352080   105A      0.357160  
     106A      0.357427   107A      0.360000   108A      0.367241  
     109A      0.371438   110A      0.374750   111A      0.377830  
     112A      0.380950   113A      0.381067   114A      0.386981  
     115A      0.394764   116A      0.395829   117A      0.400233  
     118A      0.405257   119A      0.413554   120A      0.415265  
     121A      0.420900   122A      0.425753   123A      0.429869  
     124A      0.440541   125A      0.441947   126A      0.444141  
     127A      0.450877   128A      0.452812   129A      0.457760  
     130A      0.463716   131A      0.463940   132A      0.468742  
     133A      0.470483   134A      0.471018   135A      0.475684  
     136A      0.478715   137A      0.479908   138A      0.486063  
     139A      0.488920   140A      0.492373   141A      0.495602  
     142A      0.501752   143A      0.504096   144A      0.507815  
     145A      0.510298   146A      0.517974   147A      0.521237  
     148A      0.525585   149A      0.536089   150A      0.542351  
     151A      0.546149   152A      0.550240   153A      0.552644  
     154A      0.555619   155A      0.560670   156A      0.563084  
     157A      0.571358   158A      0.574100   159A      0.582998  
     160A      0.584444   161A      0.587528   162A      0.588807  
     163A      0.596614   164A      0.598772   165A      0.602416  
     166A      0.604409   167A      0.608630   168A      0.618297  
     169A      0.623486   170A      0.626873   171A      0.629435  
     172A      0.631036   173A      0.637096   174A      0.645351  
     175A      0.647439   176A      0.651809   177A      0.657916  
     178A      0.659402   179A      0.668121   180A      0.675493  
     181A      0.680576   182A      0.688994   183A      0.694757  
     184A      0.699065   185A      0.703045   186A      0.709864  
     187A      0.713278   188A      0.718827   189A      0.722776  
     190A      0.727308   191A      0.732735   192A      0.737076  
     193A      0.746411   194A      0.750061   195A      0.755500  
     196A      0.761308   197A      0.761863   198A      0.774687  
     199A      0.778086   200A      0.781414   201A      0.789479  
     202A      0.797266   203A      0.813006   204A      0.824276  
     205A      0.832877   206A      0.839293   207A      0.849581  
     208A      0.854098   209A      0.860981   210A      0.866430  
     211A      0.867177   212A      0.875737   213A      0.883354  
     214A      0.893919   215A      0.894543   216A      0.896913  
     217A      0.903652   218A      0.906819   219A      0.908847  
     220A      0.915842   221A      0.921633   222A      0.929452  
     223A      0.934550   224A      0.936659   225A      0.943647  
     226A      0.947293   227A      0.951910   228A      0.958399  
     229A      0.967255   230A      0.970470   231A      0.975411  
     232A      0.978997   233A      0.987337   234A      0.992316  
     235A      0.996400   236A      0.998398   237A      1.001784  
     238A      1.007838   239A      1.012101   240A      1.021223  
     241A      1.030207   242A      1.033669   243A      1.038059  
     244A      1.047729   245A      1.051076   246A      1.053832  
     247A      1.058640   248A      1.064175   249A      1.067974  
     250A      1.069899   251A      1.079244   252A      1.081529  
     253A      1.088541   254A      1.092474   255A      1.094541  
     256A      1.098950   257A      1.106863   258A      1.116569  
     259A      1.117379   260A      1.122091   261A      1.131579  
     262A      1.143033   263A      1.149998   264A      1.159062  
     265A      1.161307   266A      1.162670   267A      1.163961  
     268A      1.174462   269A      1.180291   270A      1.183376  
     271A      1.191850   272A      1.195513   273A      1.199335  
     274A      1.208555   275A      1.217723   276A      1.222551  
     277A      1.226130   278A      1.233101   279A      1.236021  
     280A      1.241309   281A      1.242802   282A      1.248390  
     283A      1.254190   284A      1.263619   285A      1.267278  
     286A      1.275345   287A      1.280834   288A      1.285388  
     289A      1.291869   290A      1.298898   291A      1.302189  
     292A      1.308428   293A      1.314354   294A      1.317285  
     295A      1.327114   296A      1.330690   297A      1.342371  
     298A      1.343896   299A      1.347847   300A      1.350761  
     301A      1.355374   302A      1.365873   303A      1.367900  
     304A      1.376213   305A      1.382729   306A      1.397933  
     307A      1.402614   308A      1.403429   309A      1.417464  
     310A      1.425459   311A      1.433422   312A      1.440120  
     313A      1.443518   314A      1.451366   315A      1.459273  
     316A      1.463717   317A      1.469737   318A      1.481135  
     319A      1.484482   320A      1.490172   321A      1.502916  
     322A      1.510224   323A      1.514887   324A      1.524373  
     325A      1.526621   326A      1.536153   327A      1.542454  
     328A      1.547752   329A      1.564441   330A      1.566702  
     331A      1.570411   332A      1.576843   333A      1.583796  
     334A      1.599159   335A      1.609084   336A      1.612081  
     337A      1.616437   338A      1.623149   339A      1.631424  
     340A      1.636144   341A      1.636699   342A      1.642206  
     343A      1.651844   344A      1.656073   345A      1.663383  
     346A      1.670700   347A      1.682202   348A      1.684239  
     349A      1.696469   350A      1.700641   351A      1.709823  
     352A      1.717312   353A      1.719916   354A      1.737376  
     355A      1.742771   356A      1.746359   357A      1.746695  
     358A      1.753727   359A      1.759186   360A      1.764533  
     361A      1.768961   362A      1.775892   363A      1.780316  
     364A      1.784902   365A      1.790427   366A      1.799059  
     367A      1.803497   368A      1.810685   369A      1.826047  
     370A      1.829398   371A      1.835283   372A      1.842395  
     373A      1.856176   374A      1.860997   375A      1.866334  
     376A      1.873527   377A      1.880229   378A      1.884003  
     379A      1.886428   380A      1.894577   381A      1.898471  
     382A      1.901775   383A      1.910247   384A      1.913109  
     385A      1.921933   386A      1.927849   387A      1.932985  
     388A      1.937971   389A      1.942226   390A      1.948682  
     391A      1.965159   392A      1.972033   393A      1.981972  
     394A      1.990084   395A      1.995397   396A      2.000587  
     397A      2.006864   398A      2.012169   399A      2.027729  
     400A      2.030297   401A      2.038524   402A      2.045103  
     403A      2.053143   404A      2.056021   405A      2.059975  
     406A      2.071958   407A      2.074048   408A      2.079850  
     409A      2.092870   410A      2.096926   411A      2.101868  
     412A      2.108508   413A      2.112487   414A      2.118698  
     415A      2.127108   416A      2.135108   417A      2.140433  
     418A      2.149245   419A      2.154417   420A      2.155696  
     421A      2.163424   422A      2.173990   423A      2.181847  
     424A      2.193014   425A      2.201714   426A      2.204180  
     427A      2.226631   428A      2.240052   429A      2.249329  
     430A      2.254640   431A      2.262063   432A      2.265868  
     433A      2.280650   434A      2.296170   435A      2.310008  
     436A      2.314300   437A      2.315979   438A      2.319958  
     439A      2.336146   440A      2.342182   441A      2.346734  
     442A      2.354375   443A      2.367757   444A      2.374008  
     445A      2.394868   446A      2.397714   447A      2.402201  
     448A      2.409509   449A      2.420717   450A      2.429539  
     451A      2.434505   452A      2.445212   453A      2.454413  
     454A      2.473000   455A      2.480233   456A      2.485997  
     457A      2.492593   458A      2.502678   459A      2.508739  
     460A      2.530735   461A      2.533863   462A      2.534837  
     463A      2.557905   464A      2.576928   465A      2.585473  
     466A      2.593391   467A      2.601927   468A      2.607009  
     469A      2.624100   470A      2.633198   471A      2.658563  
     472A      2.665488   473A      2.672028   474A      2.686045  
     475A      2.699159   476A      2.708286   477A      2.733198  
     478A      2.741593   479A      2.749825   480A      2.755072  
     481A      2.782411   482A      2.793822   483A      2.839386  
     484A      2.883349   485A      2.952685   486A      2.964654  
     487A      3.005188   488A      3.065671   489A      3.104383  
     490A      3.144015   491A      3.227716   492A      3.261409  
     493A      3.303580   494A      3.329842   495A      3.379534  
     496A      3.392624   497A      3.423694   498A      3.433157  
     499A      3.457981   500A      3.483965   501A      3.495484  
     502A      3.510565   503A      3.514845   504A      3.533886  
     505A      3.551558   506A      3.555587   507A      3.573627  
     508A      3.586554   509A      3.610402   510A      3.619339  
     511A      3.622287   512A      3.638139   513A      3.653029  
     514A      3.667467   515A      3.671369   516A      3.683969  
     517A      3.691900   518A      3.702227   519A      3.716321  
     520A      3.721699   521A      3.725007   522A      3.739218  
     523A      3.749833   524A      3.760679   525A      3.768830  
     526A      3.779257   527A      3.783339   528A      3.792434  
     529A      3.802209   530A      3.816043   531A      3.822279  
     532A      3.824280   533A      3.846350   534A      3.853505  
     535A      3.857415   536A      3.859902   537A      3.860815  
     538A      3.873803   539A      3.876804   540A      3.878180  
     541A      3.894506   542A      3.900625   543A      3.901757  
     544A      3.919386   545A      3.940815   546A      3.942343  
     547A      3.960861   548A      3.969953   549A      3.972958  
     550A      3.982549   551A      3.989335   552A      3.994523  
     553A      4.003229   554A      4.008316   555A      4.014644  
     556A      4.027004   557A      4.029986   558A      4.038980  
     559A      4.041770   560A      4.051636   561A      4.061572  
     562A      4.062505   563A      4.066585   564A      4.078956  
     565A      4.084849   566A      4.094367   567A      4.102105  
     568A      4.105084   569A      4.112943   570A      4.120395  
     571A      4.131301   572A      4.141479   573A      4.149345  
     574A      4.156310   575A      4.167464   576A      4.172800  
     577A      4.176072   578A      4.184353   579A      4.204565  
     580A      4.208763   581A      4.217583   582A      4.222290  
     583A      4.224904   584A      4.232141   585A      4.238328  
     586A      4.248981   587A      4.271041   588A      4.275927  
     589A      4.288070   590A      4.301845   591A      4.310247  
     592A      4.319913   593A      4.322287   594A      4.335027  
     595A      4.343056   596A      4.346001   597A      4.356151  
     598A      4.363017   599A      4.378926   600A      4.388394  
     601A      4.394091   602A      4.410924   603A      4.421141  
     604A      4.425345   605A      4.433718   606A      4.443239  
     607A      4.476088   608A      4.484490   609A      4.498463  
     610A      4.506005   611A      4.521938   612A      4.524842  
     613A      4.542964   614A      4.551947   615A      4.560803  
     616A      4.569641   617A      4.593163   618A      4.603029  
     619A      4.622589   620A      4.634022   621A      4.643317  
     622A      4.654169   623A      4.665953   624A      4.682534  
     625A      4.688808   626A      4.690350   627A      4.707012  
     628A      4.714825   629A      4.730889   630A      4.740690  
     631A      4.759204   632A      4.767980   633A      4.777744  
     634A      4.791982   635A      4.809347   636A      4.813542  
     637A      4.823286   638A      4.832831   639A      4.843032  
     640A      4.861613   641A      4.870584   642A      4.876679  
     643A      4.886205   644A      4.902743   645A      4.915227  
     646A      4.922444   647A      4.937473   648A      4.946343  
     649A      4.954937   650A      4.965125   651A      4.973171  
     652A      4.983485   653A      4.986579   654A      5.008110  
     655A      5.021760   656A      5.023150   657A      5.030130  
     658A      5.048851   659A      5.051306   660A      5.077917  
     661A      5.095719   662A      5.112967   663A      5.125385  
     664A      5.153073   665A      5.159125   666A      5.168120  
     667A      5.184314   668A      5.188575   669A      5.200688  
     670A      5.213685   671A      5.223670   672A      5.244840  
     673A      5.246911   674A      5.259500   675A      5.266700  
     676A      5.268917   677A      5.285772   678A      5.299322  
     679A      5.303816   680A      5.316952   681A      5.321737  
     682A      5.343869   683A      5.361292   684A      5.368064  
     685A      5.378429   686A      5.394075   687A      5.399317  
     688A      5.408046   689A      5.416798   690A      5.430496  
     691A      5.432957   692A      5.449982   693A      5.455007  
     694A      5.467146   695A      5.472240   696A      5.474089  
     697A      5.484826   698A      5.504507   699A      5.518866  
     700A      5.527006   701A      5.530979   702A      5.548169  
     703A      5.570258   704A      5.575722   705A      5.589132  
     706A      5.602446   707A      5.612605   708A      5.631730  
     709A      5.639875   710A      5.649013   711A      5.662931  
     712A      5.692778   713A      5.700504   714A      5.708408  
     715A      5.715375   716A      5.720441   717A      5.728382  
     718A      5.738702   719A      5.748415   720A      5.760508  
     721A      5.768027   722A      5.782550   723A      5.809468  
     724A      5.825605   725A      5.833681   726A      5.837440  
     727A      5.860766   728A      5.877271   729A      5.896764  
     730A      5.916498   731A      5.952383   732A      5.966140  
     733A      5.992230   734A      6.001813   735A      6.004439  
     736A      6.048363   737A      6.076905   738A      6.088660  
     739A      6.120388   740A      6.137945   741A      6.153162  
     742A      6.162095   743A      6.180817   744A      6.205559  
     745A      6.216534   746A      6.243619   747A      6.269765  
     748A      6.287736   749A      6.314111   750A      6.326669  
     751A      6.341489   752A      6.351635   753A      6.360135  
     754A      6.383224   755A      6.405466   756A      6.410925  
     757A      6.422554   758A      6.466341   759A      6.601038  
     760A      6.638489   761A      6.672194   762A      6.691090  
     763A      6.775515   764A      6.803937   765A      6.843458  
     766A      6.870080   767A      6.922690   768A      6.977680  
     769A      6.995313   770A      7.042998   771A      7.103098  
     772A      7.126941   773A      7.174699   774A      7.235310  
     775A     18.094999   776A     18.172915   777A     18.328343  
     778A     18.424451   779A     18.952689   780A     19.309707  
     781A     19.418360   782A     19.935521  

    Final Occupation by Irrep:
              A 
    DOCC [    33 ]

  Energy converged.

  @DF-RHF Final Energy:  -313.53443505730178

   => Energetics <=

    Nuclear Repulsion Energy =            408.2914341352381484
    One-Electron Energy =               -1231.7218399539406164
    Two-Electron Energy =                 509.8959707614005765
    DFT Exchange-Correlation Energy =       0.0000000000000000
    Empirical Dispersion Energy =           0.0000000000000000
    PCM Polarization Energy =               0.0000000000000000
    EFP Energy =                            0.0000000000000000
    Total Energy =                       -313.5344350573018346


  Saving occupied orbitals to File 180.

*** tstop() called on wr39 at Wed Sep 21 04:58:56 2016
Module time:
	user time   =     899.55 seconds =      14.99 minutes
	system time =       9.29 seconds =       0.15 minutes
	total time  =         82 seconds =       1.37 minutes
Total time:
	user time   =     899.55 seconds =      14.99 minutes
	system time =       9.29 seconds =       0.15 minutes
	total time  =         82 seconds =       1.37 minutes


Properties will be evaluated at   0.000000,   0.000000,   0.000000 Bohr

Properties computed using the SCF density matrix

  Nuclear Dipole Moment: (a.u.)
     X:     0.4806      Y:    -0.7293      Z:    -0.0501

  Electronic Dipole Moment: (a.u.)
     X:    -0.5002      Y:     0.7465      Z:     0.0342

  Dipole Moment: (a.u.)
     X:    -0.0196      Y:     0.0171      Z:    -0.0159     Total:     0.0305

  Dipole Moment: (Debye)
     X:    -0.0498      Y:     0.0435      Z:    -0.0403     Total:     0.0775


  //>>>>>>>>>>>>>>>>>>>>>>>>>>>>>>>>>>>//
  //               DFMP2               //
  //<<<<<<<<<<<<<<<<<<<<<<<<<<<<<<<<<<<//


*** tstart() called on wr39
*** at Wed Sep 21 04:58:56 2016


*** tstop() called on wr39 at Wed Sep 21 04:58:56 2016
Module time:
	user time   =       4.97 seconds =       0.08 minutes
	system time =       0.26 seconds =       0.00 minutes
	total time  =          0 seconds =       0.00 minutes
Total time:
	user time   =     906.12 seconds =      15.10 minutes
	system time =       9.55 seconds =       0.16 minutes
	total time  =         82 seconds =       1.37 minutes
	 --------------------------------------------------------
	                          DF-MP2                         
	      2nd-Order Density-Fitted Moller-Plesset Theory     
	              RMP2 Wavefunction,  12 Threads             
	                                                         
	        Rob Parrish, Justin Turney, Andy Simmonett,      
	           Ed Hohenstein, and C. David Sherrill          
	 --------------------------------------------------------

   => Auxiliary Basis Set <=

  Basis Set: 
    Number of shells: 476
    Number of basis function: 1676
    Number of Cartesian functions: 2078
    Spherical Harmonics?: true
    Max angular momentum: 4

	 --------------------------------------------------------
	                 NBF =   782, NAUX =  1676
	 --------------------------------------------------------
	   CLASS    FOCC     OCC    AOCC    AVIR     VIR    FVIR
	   PAIRS       8      33      25     749     749       0
	 --------------------------------------------------------

DGAS Warning! /src/lib/libfock/apps.cc:80 is not currently checking restricted

         ------------------------------------------------------------
                                     CPHF                           
                                  Rob Parrish                       
         ------------------------------------------------------------

  ==> Geometry <==

    Molecular point group: c1
    Full point group: C1

    Geometry (in Angstrom), charge = 0, multiplicity = 1:

       Center              X                  Y                   Z               Mass       
    ------------   -----------------  -----------------  -----------------  -----------------
           C          3.230125459276     0.233540303966     0.005669262265    12.000000000000
           H          4.022278690902     0.541749349083    -0.676294659142     1.007825032070
           H          3.665661860850    -0.445525303215     0.740784008445     1.007825032070
           H          2.887730816018     1.121684382903     0.536503917432     1.007825032070
           C         -2.596992627774    -1.223651145492    -0.048659699192    12.000000000000
           H         -3.556648137330    -1.592945633186     0.313993989009     1.007825032070
           H         -1.822825518195    -1.608631505663     0.611918391462     1.007825032070
           H         -2.430187278151    -1.650116571373    -1.039073360257     1.007825032070
           C          2.089553576586    -0.444898252318    -0.744931655498    12.000000000000
           H          2.489967195582    -1.265187904211    -1.344837615464     1.007825032070
           H          1.645578594604     0.259945151670    -1.452030740903     1.007825032070
           C         -2.592124237351     0.301405707157    -0.119287021488    12.000000000000
           H         -3.437889650302     0.611943291329    -0.736395329969     1.007825032070
           H         -2.772821349862     0.719663868800     0.875405654946     1.007825032070
           C          1.007373715900    -1.001601132698     0.179658850021    12.000000000000
           H          1.447561084262    -1.783397948638     0.806046557669     1.007825032070
           H          0.240780605839    -1.489994268481    -0.425847309617     1.007825032070
           C          0.358839659388     0.044765988308     1.086896950530    12.000000000000
           H          1.100397601310     0.413223056966     1.800214969012     1.007825032070
           H         -0.417491402691    -0.432435582308     1.689547737644     1.007825032070
           C         -0.230918163392     1.240586868178     0.340418550608    12.000000000000
           H         -0.657971987026     1.933360434950     1.071671676964     1.007825032070
           H          0.577044226473     1.786121438504    -0.154933074814     1.007825032070
           C         -1.308916198533     0.915190755091    -0.695275805996    12.000000000000
           H         -1.563359675707     1.848863624108    -1.202374910241     1.007825032070
           H         -0.905111732337     0.253698741687    -1.467754790952     1.007825032070

  Nuclear repulsion =  408.291434135238148
  Reference energy  = -313.534435057301778

  ==> Basis Set <==

  Basis Set: AUG-CC-PVTZ
    Number of shells: 274
    Number of basis function: 782
    Number of Cartesian functions: 890
    Spherical Harmonics?: true
    Max angular momentum: 3

  ==> CGRSolver (by Rob Parrish) <==

   Number of roots    =         1
   Preconditioning    =    JACOBI
   Convergence cutoff =     1E-06
   Maximum iterations =       100

  ==> CPHFRHamiltonian (by Rob Parrish) <== 

  ==> DFJK: Density-Fitted J/K Matrices <==

    J tasked:                  Yes
    K tasked:                  Yes
    wK tasked:                  No
    OpenMP threads:             12
    Integrals threads:          12
    Memory (MB):             42915
    Algorithm:                Core
    Integral Cache:           NONE
    Schwarz Cutoff:          1E-12
    Fitting Condition:       1E-12

   => Auxiliary Basis Set <=

  Basis Set: 
    Number of shells: 492
    Number of basis function: 1660
    Number of Cartesian functions: 2038
    Spherical Harmonics?: true
    Max angular momentum: 4

  ==> CPHF Iterations <==

  => Iterations <=

             Iter  Converged  Remaining    Residual
  CGR           1          0          1   9.524E-02
  CGR           2          0          1   1.374E-02
  CGR           3          0          1   4.108E-03
  CGR           4          0          1   9.189E-04
  CGR           5          0          1   2.212E-04
  CGR           6          0          1   4.371E-05
  CGR           7          0          1   1.245E-05
  CGR           8          0          1   2.897E-06
  CGR           9          1          0   7.265E-07

    CGRSolver converged.

  ==> DFCorrGrad: Density-Fitted Correlated Gradients <==

    OpenMP threads:             12
    Integrals threads:          12
    Memory (MB):             42915
    Schwarz Cutoff:          0E+00
    Fitting Condition:       1E-12

   => Auxiliary Basis Set <=

  Basis Set: 
    Number of shells: 492
    Number of basis function: 1660
    Number of Cartesian functions: 2038
    Spherical Harmonics?: true
    Max angular momentum: 4

	-----------------------------------------------------------
	 ==================> DF-MP2 Energies <==================== 
	-----------------------------------------------------------
	 Reference Energy          =    -313.5344350573017778 [Eh]
	 Singles Energy            =      -0.0000000000000005 [Eh]
	 Same-Spin Energy          =      -0.3181675792374228 [Eh]
	 Opposite-Spin Energy      =      -1.1279586918272100 [Eh]
	 Correlation Energy        =      -1.4461262710646332 [Eh]
	 Total Energy              =    -314.9805613283664343 [Eh]
	-----------------------------------------------------------
	 ================> DF-SCS-MP2 Energies <================== 
	-----------------------------------------------------------
	 SCS Same-Spin Scale       =       0.3333333333333333 [-]
	 SCS Opposite-Spin Scale   =       1.2000000000000000 [-]
	 SCS Same-Spin Energy      =      -0.1060558597458076 [Eh]
	 SCS Opposite-Spin Energy  =      -1.3535504301926520 [Eh]
	 SCS Correlation Energy    =      -1.4596062899384601 [Eh]
	 SCS Total Energy          =    -314.9940413472402270 [Eh]
	-----------------------------------------------------------


  -Total Gradient:
     Atom            X                  Y                   Z
    ------   -----------------  -----------------  -----------------
       1        0.000000398875     0.000000481314     0.000000610310
       2       -0.000000446037    -0.000000149169     0.000000457959
       3       -0.000000298101     0.000000398177    -0.000000592536
       4        0.000000178072    -0.000000701531    -0.000000322371
       5       -0.000000335035    -0.000001144916     0.000000009867
       6        0.000000713010     0.000000085139    -0.000000279547
       7       -0.000000808959     0.000000644258    -0.000000678437
       8       -0.000000127560     0.000000476323     0.000000824541
       9       -0.000000705196     0.000000040612    -0.000001337250
      10       -0.000000454137     0.000000489201     0.000000243924
      11        0.000000554253    -0.000000697479     0.000001056513
      12        0.000000051499     0.000000547588     0.000000227693
      13        0.000000373826    -0.000000090051     0.000000410214
      14        0.000000097845    -0.000000246795    -0.000000630480
      15       -0.000000827176    -0.000000498721     0.000001150918
      16       -0.000000602551     0.000000668162    -0.000000525423
      17        0.000001215930     0.000000832287     0.000000783453
      18        0.000000014514    -0.000000386239    -0.000000351289
      19       -0.000000521416    -0.000000336811    -0.000000422290
      20        0.000001043255     0.000000417278    -0.000000631907
      21       -0.000000402182    -0.000000529572     0.000001003830
      22        0.000000396272    -0.000000314232    -0.000000326193
      23        0.000000622392     0.000000286819    -0.000000501133
      24       -0.000000724021     0.000001136818     0.000000084057
      25        0.000000029766    -0.000000631271     0.000000129330
      26        0.000000562858    -0.000000777188    -0.000000393754


			-----------------------------------------
			 OPTKING 2.0: for geometry optimizations 
			  - R.A. King,  Bethel University        
			-----------------------------------------

	Internal coordinates to be generated automatically.
	Detected frag 1 with atoms:  1 2 3 4 5 6 7 8 9 10 11 12 13 14 15 16 17 18 19 20
	 21 22 23 24 25 26
	---Fragment 1 Bond Connectivity---
	 1 : 2 3 4 9
	 2 : 1
	 3 : 1
	 4 : 1
	 5 : 6 7 8 12
	 6 : 5
	 7 : 5
	 8 : 5
	 9 : 1 10 11 15
	 10 : 9
	 11 : 9
	 12 : 5 13 14 24
	 13 : 12
	 14 : 12
	 15 : 9 16 17 18
	 16 : 15
	 17 : 15
	 18 : 15 19 20 21
	 19 : 18
	 20 : 18
	 21 : 18 22 23 24
	 22 : 21
	 23 : 21
	 24 : 12 21 25 26
	 25 : 24
	 26 : 24

	---Fragment 1 Geometry and Gradient---
	 C           6.1040524929        0.4413272155        0.0107133531
	 H           7.6010051559        1.0237579024       -1.2780116909
	 H           6.9270970128       -0.8419208083        1.3998788996
	 H           5.4570203878        2.1196762912        1.0138454732
	 C          -4.9076048356       -2.3123655472       -0.0919535052
	 H          -6.7210909306       -3.0102309913        0.5933626466
	 H          -3.4446410174       -3.0398729944        1.1563581755
	 H          -4.5923884073       -3.1182684072       -1.9635640829
	 C           3.9486839997       -0.8407358539       -1.4077168166
	 H           4.7053560795       -2.3908586456       -2.5413747864
	 H           3.1096928739        0.4912251462       -2.7439404368
	 C          -4.8984049110        0.5695742414       -0.2254198018
	 H          -6.4966699142        1.1564052295       -1.3915854992
	 H          -5.2398729667        1.3599676198        1.6542769430
	 C           1.9036604365       -1.8927518352        0.3395060239
	 H           2.7354940099       -3.3701337089        1.5232072443
	 H           0.4550094031       -2.8156811070       -0.8047347896
	 C           0.6781086819        0.0845954580        2.0539375712
	 H           2.0794501038        0.7808784095        3.4019132718
	 H          -0.7889444139       -0.8171848207        3.1927825126
	 C          -0.4363720879        2.3443694249        0.6432978312
	 H          -1.2433868586        3.6535217382        2.0251659738
	 H           1.0904555546        3.3752803588       -0.2927810803
	 C          -2.4734931461        1.7294598865       -1.3138808602
	 H          -2.9543216343        3.4938459066       -2.2721592894
	 H          -1.7104132938        0.4794211420       -2.7736545851
	             0.0000003989        0.0000004813        0.0000006103
	            -0.0000004460       -0.0000001492        0.0000004580
	            -0.0000002981        0.0000003982       -0.0000005925
	             0.0000001781       -0.0000007015       -0.0000003224
	            -0.0000003350       -0.0000011449        0.0000000099
	             0.0000007130        0.0000000851       -0.0000002795
	            -0.0000008090        0.0000006443       -0.0000006784
	            -0.0000001276        0.0000004763        0.0000008245
	            -0.0000007052        0.0000000406       -0.0000013372
	            -0.0000004541        0.0000004892        0.0000002439
	             0.0000005543       -0.0000006975        0.0000010565
	             0.0000000515        0.0000005476        0.0000002277
	             0.0000003738       -0.0000000901        0.0000004102
	             0.0000000978       -0.0000002468       -0.0000006305
	            -0.0000008272       -0.0000004987        0.0000011509
	            -0.0000006026        0.0000006682       -0.0000005254
	             0.0000012159        0.0000008323        0.0000007835
	             0.0000000145       -0.0000003862       -0.0000003513
	            -0.0000005214       -0.0000003368       -0.0000004223
	             0.0000010433        0.0000004173       -0.0000006319
	            -0.0000004022       -0.0000005296        0.0000010038
	             0.0000003963       -0.0000003142       -0.0000003262
	             0.0000006224        0.0000002868       -0.0000005011
	            -0.0000007240        0.0000011368        0.0000000841
	             0.0000000298       -0.0000006313        0.0000001293
	             0.0000005629       -0.0000007772       -0.0000003938

	Previous optimization step data not found.  Starting new optimization.

	---Fragment 1 Intrafragment Coordinates---
	 - Coordinate -           - BOHR/RAD -       - ANG/DEG -
	 R(1,2)           =         2.059346	       1.089759
	 R(1,3)           =         2.062501	       1.091428
	 R(1,4)           =         2.059558	       1.089871
	 R(1,9)           =         2.881188	       1.524659
	 R(5,6)           =         2.060438	       1.090337
	 R(5,7)           =         2.056164	       1.088075
	 R(5,8)           =         2.061981	       1.091154
	 R(5,12)          =         2.885043	       1.526699
	 R(9,10)          =         2.064125	       1.092288
	 R(9,11)          =         2.064829	       1.092661
	 R(9,15)          =         2.888191	       1.528365
	 R(12,13)         =         2.063677	       1.092051
	 R(12,14)         =         2.067506	       1.094077
	 R(12,24)         =         2.900048	       1.534639
	 R(15,16)         =         2.067789	       1.094227
	 R(15,17)         =         2.063898	       1.092168
	 R(15,18)         =         2.889836	       1.529236
	 R(18,19)         =         2.065334	       1.092928
	 R(18,20)         =         2.064563	       1.092520
	 R(18,21)         =         2.887655	       1.528081
	 R(21,22)         =         2.067538	       1.094094
	 R(21,23)         =         2.066452	       1.093519
	 R(21,24)         =         2.891111	       1.529910
	 R(24,25)         =         2.064595	       1.092537
	 R(24,26)         =         2.067807	       1.094236
	 B(1,9,10)        =         1.907440	     109.288258
	 B(1,9,11)        =         1.912945	     109.603697
	 B(1,9,15)        =         1.975721	     113.200452
	 B(2,1,3)         =         1.883242	     107.901839
	 B(2,1,4)         =         1.878311	     107.619298
	 B(2,1,9)         =         1.940730	     111.195666
	 B(3,1,4)         =         1.880034	     107.718038
	 B(3,1,9)         =         1.931843	     110.686462
	 B(4,1,9)         =         1.946988	     111.554190
	 B(5,12,13)       =         1.883601	     107.922373
	 B(5,12,14)       =         1.916965	     109.833993
	 B(5,12,24)       =         2.003749	     114.806380
	 B(6,5,7)         =         1.880167	     107.725662
	 B(6,5,8)         =         1.879760	     107.702313
	 B(6,5,12)        =         1.935344	     110.887044
	 B(7,5,8)         =         1.879688	     107.698180
	 B(7,5,12)        =         1.959786	     112.287476
	 B(8,5,12)        =         1.926170	     110.361414
	 B(9,15,16)       =         1.898330	     108.766298
	 B(9,15,17)       =         1.901261	     108.934227
	 B(9,15,18)       =         1.993191	     114.201459
	 B(10,9,11)       =         1.852476	     106.139044
	 B(10,9,15)       =         1.894703	     108.558503
	 B(11,9,15)       =         1.916383	     109.800648
	 B(12,24,21)      =         2.004415	     114.844518
	 B(12,24,25)      =         1.897865	     108.739628
	 B(12,24,26)      =         1.908952	     109.374901
	 B(13,12,14)      =         1.851610	     106.089450
	 B(13,12,24)      =         1.898386	     108.769510
	 B(14,12,24)      =         1.903322	     109.052331
	 B(15,18,19)      =         1.907240	     109.276818
	 B(15,18,20)      =         1.906820	     109.252765
	 B(15,18,21)      =         1.992512	     114.162520
	 B(16,15,17)      =         1.854834	     106.274176
	 B(16,15,18)      =         1.896383	     108.654768
	 B(17,15,18)      =         1.914756	     109.707456
	 B(18,21,22)      =         1.896166	     108.642317
	 B(18,21,23)      =         1.903427	     109.058356
	 B(18,21,24)      =         2.022170	     115.861832
	 B(19,18,20)      =         1.843536	     105.626838
	 B(19,18,21)      =         1.893229	     108.474045
	 B(20,18,21)      =         1.914562	     109.696336
	 B(21,24,25)      =         1.871873	     107.250417
	 B(21,24,26)      =         1.924588	     110.270786
	 B(22,21,23)      =         1.849669	     105.978224
	 B(22,21,24)      =         1.888201	     108.185977
	 B(23,21,24)      =         1.896594	     108.666836
	 B(25,24,26)      =         1.849280	     105.955957
	 D(1,9,15,16)     =        -1.104094	     -63.259920
	 D(1,9,15,17)     =        -3.118780	    -178.692909
	 D(1,9,15,18)     =         1.017171	      58.279606
	 D(2,1,9,10)      =         0.942560	      54.004688
	 D(2,1,9,11)      =        -1.080790	     -61.924703
	 D(2,1,9,15)      =         3.056543	     175.126988
	 D(3,1,9,10)      =        -1.150496	     -65.918537
	 D(3,1,9,11)      =         3.109340	     178.152072
	 D(3,1,9,15)      =         0.963487	      55.203763
	 D(4,1,9,10)      =         3.039544	     174.153030
	 D(4,1,9,11)      =         1.016194	      58.223640
	 D(4,1,9,15)      =        -1.129659	     -64.724670
	 D(5,12,24,21)    =        -1.579431	     -90.494706
	 D(5,12,24,25)    =         2.606860	     149.362089
	 D(5,12,24,26)    =         0.594874	      34.083754
	 D(6,5,12,13)     =        -0.963747	     -55.218613
	 D(6,5,12,14)     =         1.047444	      60.014105
	 D(6,5,12,24)     =        -3.083775	    -176.687290
	 D(7,5,12,13)     =        -3.068095	    -175.788905
	 D(7,5,12,14)     =        -1.056905	     -60.556187
	 D(7,5,12,24)     =         1.095062	      62.742419
	 D(8,5,12,13)     =         1.117735	      64.041476
	 D(8,5,12,14)     =         3.128925	     179.274194
	 D(8,5,12,24)     =        -1.002294	     -57.427200
	 D(9,15,18,19)    =        -1.160118	     -66.469892
	 D(9,15,18,20)    =         3.113939	     178.415544
	 D(9,15,18,21)    =         0.963200	      55.187310
	 D(10,9,15,16)    =         1.017063	      58.273414
	 D(10,9,15,17)    =        -0.997623	     -57.159575
	 D(10,9,15,18)    =         3.138328	     179.812939
	 D(11,9,15,16)    =         3.035142	     173.900815
	 D(11,9,15,17)    =         1.020456	      58.467826
	 D(11,9,15,18)    =        -1.126779	     -64.559659
	 D(12,24,21,18)   =         1.118458	      64.082900
	 D(12,24,21,22)   =        -1.014671	     -58.136368
	 D(12,24,21,23)   =        -3.015408	    -172.770142
	 D(13,12,24,21)   =         2.591810	     148.499797
	 D(13,12,24,25)   =         0.494916	      28.356592
	 D(13,12,24,26)   =        -1.517071	     -86.921744
	 D(14,12,24,21)   =         0.579810	      33.220677
	 D(14,12,24,25)   =        -1.517084	     -86.922529
	 D(14,12,24,26)   =         2.754114	     157.799136
	 D(15,18,21,22)   =        -3.130270	    -179.351232
	 D(15,18,21,23)   =        -1.121716	     -64.269616
	 D(15,18,21,24)   =         1.024015	      58.671714
	 D(16,15,18,19)   =         0.962219	      55.131106
	 D(16,15,18,20)   =        -1.046909	     -59.983459
	 D(16,15,18,21)   =         3.085538	     176.788308
	 D(17,15,18,19)   =         2.983169	     170.923008
	 D(17,15,18,20)   =         0.974041	      55.808444
	 D(17,15,18,21)   =        -1.176697	     -67.419789
	 D(18,21,24,25)   =        -3.053530	    -174.954383
	 D(18,21,24,26)   =        -1.047597	     -60.022884
	 D(19,18,21,22)   =        -0.999248	     -57.252697
	 D(19,18,21,23)   =         1.009305	      57.828920
	 D(19,18,21,24)   =        -3.128149	    -179.229750
	 D(20,18,21,22)   =         1.006376	      57.661077
	 D(20,18,21,23)   =         3.014929	     172.742694
	 D(20,18,21,24)   =        -1.122526	     -64.315976
	 D(22,21,24,25)   =         1.096527	      62.826349
	 D(22,21,24,26)   =         3.102460	     177.757848
	 D(23,21,24,25)   =        -0.904210	     -51.807425
	 D(23,21,24,26)   =         1.101723	      63.124074
	 R(1,21)          =         6.840971	       3.620086
	 R(5,15)          =         6.837804	       3.618410
	 R(5,18)          =         6.445965	       3.411058
	 R(9,24)          =         6.918025	       3.660861

	Current energy   :      -314.9805613284

	Generating empirical Hessian (Schlegel '84) for each fragment.
	Taking RFO optimization step.
	Going to follow RFO solution 1.
	Using RFO vector 1.
	Norm of target step-size    0.00027
	Projected energy change by RFO approximation:        -0.0000000003

	Back-transformation to cartesian coordinates...
	Successfully converged to displaced geometry.

	--- Internal Coordinate Step in ANG or DEG, aJ/ANG or AJ/DEG ---
	 ---------------------------------------------------------------------------
	   Coordinate                Previous        Force       Change         New 
	   ----------                --------       ------       ------       ------
	    1 R(1,2)          =      1.089759     0.000005     0.000001     1.089760
	    2 R(1,3)          =      1.091428     0.000007     0.000001     1.091430
	    3 R(1,4)          =      1.089871     0.000006     0.000001     1.089872
	    4 R(1,9)          =      1.524659    -0.000002     0.000000     1.524659
	    5 R(5,6)          =      1.090337     0.000006     0.000001     1.090338
	    6 R(5,7)          =      1.088075     0.000010     0.000002     1.088077
	    7 R(5,8)          =      1.091154     0.000008     0.000001     1.091155
	    8 R(5,12)         =      1.526699     0.000000     0.000000     1.526699
	    9 R(9,10)         =      1.092288     0.000006     0.000001     1.092289
	   10 R(9,11)         =      1.092661     0.000011     0.000002     1.092663
	   11 R(9,15)         =      1.528365     0.000001     0.000001     1.528366
	   12 R(12,13)        =      1.092051     0.000005     0.000001     1.092052
	   13 R(12,14)        =      1.094077     0.000006     0.000001     1.094078
	   14 R(12,24)        =      1.534639     0.000002     0.000001     1.534640
	   15 R(15,16)        =      1.094227     0.000009     0.000002     1.094229
	   16 R(15,17)        =      1.092168     0.000014     0.000003     1.092170
	   17 R(15,18)        =      1.529236     0.000012     0.000004     1.529239
	   18 R(18,19)        =      1.092928     0.000006     0.000001     1.092929
	   19 R(18,20)        =      1.092520     0.000010     0.000002     1.092522
	   20 R(18,21)        =      1.528081     0.000003     0.000001     1.528083
	   21 R(21,22)        =      1.094094     0.000005     0.000001     1.094095
	   22 R(21,23)        =      1.093519    -0.000007    -0.000001     1.093518
	   23 R(21,24)        =      1.529910    -0.000003     0.000000     1.529910
	   24 R(24,25)        =      1.092537     0.000005     0.000001     1.092537
	   25 R(24,26)        =      1.094236    -0.000008    -0.000001     1.094235
	   26 B(1,9,10)       =    109.288258    -0.000000    -0.000247   109.288011
	   27 B(1,9,11)       =    109.603697    -0.000000     0.000153   109.603849
	   28 B(1,9,15)       =    113.200452     0.000000     0.000171   113.200623
	   29 B(2,1,3)        =    107.901839     0.000000     0.000005   107.901844
	   30 B(2,1,4)        =    107.619298     0.000000    -0.000014   107.619285
	   31 B(2,1,9)        =    111.195666    -0.000000    -0.000061   111.195605
	   32 B(3,1,4)        =    107.718038    -0.000000    -0.000005   107.718033
	   33 B(3,1,9)        =    110.686462     0.000000     0.000042   110.686504
	   34 B(4,1,9)        =    111.554190     0.000000     0.000031   111.554221
	   35 B(5,12,13)      =    107.922373     0.000000    -0.000056   107.922317
	   36 B(5,12,14)      =    109.833993    -0.000000    -0.000007   109.833986
	   37 B(5,12,24)      =    114.806380     0.000000     0.000150   114.806530
	   38 B(6,5,7)        =    107.725662     0.000000    -0.000022   107.725641
	   39 B(6,5,8)        =    107.702313     0.000000    -0.000009   107.702304
	   40 B(6,5,12)       =    110.887044    -0.000000    -0.000181   110.886863
	   41 B(7,5,8)        =    107.698180    -0.000000    -0.000005   107.698175
	   42 B(7,5,12)       =    112.287476     0.000000     0.000136   112.287612
	   43 B(8,5,12)       =    110.361414     0.000000     0.000077   110.361491
	   44 B(9,15,16)      =    108.766298    -0.000000    -0.000301   108.765997
	   45 B(9,15,17)      =    108.934227    -0.000000     0.000150   108.934377
	   46 B(9,15,18)      =    114.201459     0.000000     0.000355   114.201814
	   47 B(10,9,11)      =    106.139044    -0.000000    -0.000053   106.138992
	   48 B(10,9,15)      =    108.558503    -0.000000    -0.000185   108.558318
	   49 B(11,9,15)      =    109.800648     0.000000     0.000141   109.800789
	   50 B(12,24,21)     =    114.844518    -0.000000     0.000161   114.844680
	   51 B(12,24,25)     =    108.739628     0.000000    -0.000145   108.739484
	   52 B(12,24,26)     =    109.374901    -0.000000     0.000108   109.375008
	   53 B(13,12,14)     =    106.089450     0.000000     0.000013   106.089464
	   54 B(13,12,24)     =    108.769510    -0.000000    -0.000082   108.769427
	   55 B(14,12,24)     =    109.052331    -0.000000    -0.000030   109.052301
	   56 B(15,18,19)     =    109.276818     0.000000     0.000028   109.276846
	   57 B(15,18,20)     =    109.252765     0.000000    -0.000025   109.252740
	   58 B(15,18,21)     =    114.162520    -0.000000     0.000212   114.162732
	   59 B(16,15,17)     =    106.274176     0.000000    -0.000073   106.274103
	   60 B(16,15,18)     =    108.654768    -0.000000    -0.000222   108.654546
	   61 B(17,15,18)     =    109.707456     0.000000     0.000056   109.707512
	   62 B(18,21,22)     =    108.642317     0.000000    -0.000017   108.642299
	   63 B(18,21,23)     =    109.058356     0.000000    -0.000020   109.058336
	   64 B(18,21,24)     =    115.861832    -0.000000     0.000211   115.862043
	   65 B(19,18,20)     =    105.626838     0.000000     0.000016   105.626853
	   66 B(19,18,21)     =    108.474045    -0.000000    -0.000049   108.473996
	   67 B(20,18,21)     =    109.696336     0.000000    -0.000195   109.696140
	   68 B(21,24,25)     =    107.250417    -0.000000    -0.000271   107.250146
	   69 B(21,24,26)     =    110.270786     0.000000     0.000226   110.271012
	   70 B(22,21,23)     =    105.978224    -0.000000    -0.000057   105.978167
	   71 B(22,21,24)     =    108.185977    -0.000000    -0.000143   108.185834
	   72 B(23,21,24)     =    108.666836    -0.000000     0.000003   108.666839
	   73 B(25,24,26)     =    105.955957    -0.000000    -0.000117   105.955840
	   74 D(1,9,15,16)    =    -63.259920    -0.000000    -0.002228   -63.262148
	   75 D(1,9,15,17)    =   -178.692909    -0.000000    -0.002060  -178.694968
	   76 D(1,9,15,18)    =     58.279606    -0.000000    -0.002495    58.277110
	   77 D(2,1,9,10)     =     54.004688    -0.000000    -0.001750    54.002938
	   78 D(2,1,9,11)     =    -61.924703     0.000000    -0.001633   -61.926335
	   79 D(2,1,9,15)     =    175.126988    -0.000000    -0.002048   175.124939
	   80 D(3,1,9,10)     =    -65.918537    -0.000000    -0.001745   -65.920282
	   81 D(3,1,9,11)     =    178.152072     0.000000    -0.001628   178.150445
	   82 D(3,1,9,15)     =     55.203763    -0.000000    -0.002043    55.201719
	   83 D(4,1,9,10)     =    174.153030    -0.000000    -0.001787   174.151242
	   84 D(4,1,9,11)     =     58.223640    -0.000000    -0.001670    58.221969
	   85 D(4,1,9,15)     =    -64.724670    -0.000000    -0.002086   -64.726756
	   86 D(5,12,24,21)   =    -90.494706     0.000000     0.002839   -90.491867
	   87 D(5,12,24,25)   =    149.362089     0.000000     0.003186   149.365275
	   88 D(5,12,24,26)   =     34.083754     0.000000     0.003346    34.087100
	   89 D(6,5,12,13)    =    -55.218613    -0.000000    -0.000326   -55.218939
	   90 D(6,5,12,14)    =     60.014105     0.000000    -0.000345    60.013760
	   91 D(6,5,12,24)    =   -176.687290    -0.000000    -0.000279  -176.687568
	   92 D(7,5,12,13)    =   -175.788905     0.000000    -0.000265  -175.789170
	   93 D(7,5,12,14)    =    -60.556187     0.000000    -0.000284   -60.556470
	   94 D(7,5,12,24)    =     62.742419     0.000000    -0.000218    62.742201
	   95 D(8,5,12,13)    =     64.041476    -0.000000    -0.000403    64.041073
	   96 D(8,5,12,14)    =    179.274194    -0.000000    -0.000422   179.273773
	   97 D(8,5,12,24)    =    -57.427200    -0.000000    -0.000356   -57.427556
	   98 D(9,15,18,19)   =    -66.469892     0.000000     0.001081   -66.468811
	   99 D(9,15,18,20)   =    178.415544    -0.000000     0.001060   178.416604
	  100 D(9,15,18,21)   =     55.187310    -0.000000     0.001184    55.188494
	  101 D(10,9,15,16)   =     58.273414    -0.000000    -0.002561    58.270853
	  102 D(10,9,15,17)   =    -57.159575    -0.000000    -0.002393   -57.161968
	  103 D(10,9,15,18)   =    179.812939    -0.000000    -0.002829   179.810111
	  104 D(11,9,15,16)   =    173.900815    -0.000000    -0.002651   173.898164
	  105 D(11,9,15,17)   =     58.467826    -0.000000    -0.002483    58.465344
	  106 D(11,9,15,18)   =    -64.559659    -0.000000    -0.002919   -64.562578
	  107 D(12,24,21,18)  =     64.082900    -0.000000     0.001624    64.084524
	  108 D(12,24,21,22)  =    -58.136368    -0.000000     0.001611   -58.134757
	  109 D(12,24,21,23)  =   -172.770142    -0.000000     0.001752  -172.768390
	  110 D(13,12,24,21)  =    148.499797    -0.000000     0.002870   148.502667
	  111 D(13,12,24,25)  =     28.356592     0.000000     0.003218    28.359809
	  112 D(13,12,24,26)  =    -86.921744     0.000000     0.003378   -86.918365
	  113 D(14,12,24,21)  =     33.220677    -0.000000     0.002915    33.223592
	  114 D(14,12,24,25)  =    -86.922529     0.000000     0.003262   -86.919266
	  115 D(14,12,24,26)  =    157.799136     0.000000     0.003423   157.802559
	  116 D(15,18,21,22)  =   -179.351232    -0.000000    -0.001528  -179.352761
	  117 D(15,18,21,23)  =    -64.269616    -0.000000    -0.001616   -64.271232
	  118 D(15,18,21,24)  =     58.671714    -0.000000    -0.001475    58.670239
	  119 D(16,15,18,19)  =     55.131106    -0.000000     0.000769    55.131875
	  120 D(16,15,18,20)  =    -59.983459    -0.000000     0.000749   -59.982709
	  121 D(16,15,18,21)  =    176.788308    -0.000000     0.000872   176.789180
	  122 D(17,15,18,19)  =    170.923008    -0.000000     0.000588   170.923596
	  123 D(17,15,18,20)  =     55.808444    -0.000000     0.000568    55.809012
	  124 D(17,15,18,21)  =    -67.419789    -0.000000     0.000691   -67.419098
	  125 D(18,21,24,25)  =   -174.954383    -0.000000     0.001346  -174.953037
	  126 D(18,21,24,26)  =    -60.022884    -0.000000     0.001174   -60.021710
	  127 D(19,18,21,22)  =    -57.252697    -0.000000    -0.001385   -57.254082
	  128 D(19,18,21,23)  =     57.828920    -0.000000    -0.001473    57.827447
	  129 D(19,18,21,24)  =   -179.229750    -0.000000    -0.001332  -179.231082
	  130 D(20,18,21,22)  =     57.661077    -0.000000    -0.001498    57.659579
	  131 D(20,18,21,23)  =    172.742694    -0.000000    -0.001586   172.741108
	  132 D(20,18,21,24)  =    -64.315976    -0.000000    -0.001445   -64.317421
	  133 D(22,21,24,25)  =     62.826349    -0.000000     0.001334    62.827683
	  134 D(22,21,24,26)  =    177.757848    -0.000000     0.001162   177.759010
	  135 D(23,21,24,25)  =    -51.807425     0.000000     0.001474   -51.805951
	  136 D(23,21,24,26)  =     63.124074    -0.000000     0.001302    63.125376
	  137 R(1,21)         =      3.620086     0.000004    -0.000006     3.620080
	  138 R(5,15)         =      3.618410     0.000000    -0.000007     3.618403
	  139 R(5,18)         =      3.411058    -0.000002    -0.000019     3.411039
	  140 R(9,24)         =      3.660861     0.000003     0.000011     3.660873
	 ---------------------------------------------------------------------------

  ==> Convergence Check <==

  Measures of convergence in internal coordinates in au.
  Criteria marked as inactive (o), active & met (*), and active & unmet ( ).
  --------------------------------------------------------------------------------------------- ~
   Step     Total Energy     Delta E     MAX Force     RMS Force      MAX Disp      RMS Disp    ~
  --------------------------------------------------------------------------------------------- ~
    Convergence Criteria             o    2.00e-06 *    1.00e-06 *    6.00e-06 *    4.00e-06 *  ~
  --------------------------------------------------------------------------------------------- ~
      1    -314.98056133   -3.15e+02 o    1.66e-06 *    3.79e-07 *    5.97e-05      2.25e-05    ~
  ---------------------------------------------------------------------------------------------

	Writing optimization data to binary file.
	Structure for next step:
	Cartesian Geometry (in Angstrom)
	    C     3.2301172171   0.2335556201   0.0056620558
	    H     4.0222933917   0.5417319939  -0.6762915364
	    H     3.6656280955  -0.4454824575   0.7408191460
	    H     2.8877115205   1.1217248654   0.5364498514
	    C    -2.5969898470  -1.2236396259  -0.0486306203
	    H    -3.5566554592  -1.5929282956   0.3140057103
	    H    -1.8228399648  -1.6085948252   0.6119853199
	    H    -2.4301510664  -1.6501372367  -1.0390263602
	    C     2.0895646107  -0.4449073564  -0.7449462961
	    H     2.4900010242  -1.2652040122  -1.3448293703
	    H     1.6455939201   0.2599176236  -1.4520695895
	    C    -2.5921330148   0.3014152228  -0.1193067252
	    H    -3.4378795354   0.6119243729  -0.7364567472
	    H    -2.7728711181   0.7197039111   0.8753668162
	    C     1.0073745351  -1.0016116982   0.1796328830
	    H     1.4475565086  -1.7834230485   0.8060090219
	    H     0.2407761929  -1.4899916082  -0.4258819008
	    C     0.3588467886   0.0447441217   1.0868944822
	    H     1.1004118514   0.4131926720   1.8002112518
	    H    -0.4174791542  -0.4324681853   1.6895468859
	    C    -0.2309244386   1.2405770890   0.3404430475
	    H    -0.6579950463   1.9333245785   1.0717123617
	    H     0.5770328241   1.7861376849  -0.1548855351
	    C    -1.3089107394   0.9151976930  -0.6952688956
	    H    -1.5633415855   1.8488811687  -1.2023568371
	    H    -0.9051023825   0.2537174473  -1.4677538774
			--------------------------
			 OPTKING Finished Execution 
			--------------------------

    Structure for next step:
    Molecular point group: c1
    Full point group: C1

    Geometry (in Angstrom), charge = 0, multiplicity = 1:

    C            3.230116838831     0.233556393077     0.005662970698
    H            4.022293013493     0.541732766870    -0.676290621510
    H            3.665627717244    -0.445481684552     0.740820060846
    H            2.887711142252     1.121725638387     0.536450766265
    C           -2.596990225218    -1.223638852980    -0.048629705428
    H           -3.556655837468    -1.592927522698     0.314006625164
    H           -1.822840343077    -1.608594052250     0.611986234775
    H           -2.430151444611    -1.650136463795    -1.039025445333
    C            2.089564232484    -0.444906583461    -0.744945381240
    H            2.490000645996    -1.265203239245    -1.344828455431
    H            1.645593541868     0.259918396492    -1.452068674599
    C           -2.592133393031     0.301415995771    -0.119305810325
    H           -3.437879913691     0.611925145793    -0.736455832376
    H           -2.772871496327     0.719704684014     0.875367731031
    C            1.007374156845    -1.001610925250     0.179633797891
    H            1.447556130402    -1.783422275584     0.806009936746
    H            0.240775814671    -1.489990835276    -0.425880985924
    C            0.358846410336     0.044744894617     1.086895397109
    H            1.100411473129     0.413193444922     1.800212166664
    H           -0.417479532448    -0.432467412400     1.689547800755
    C           -0.230924816870     1.240577861928     0.340443962370
    H           -0.657995424571     1.933325351441     1.071713276546
    H            0.577032445891     1.786138457871    -0.154884620223
    C           -1.308911117611     0.915198465942    -0.695267980711
    H           -1.563341963714     1.848881941592    -1.202355922241
    H           -0.905102760769     0.253718220241    -1.467752962484

gradient() will perform analytic gradient computation.

*** tstart() called on wr39
*** at Wed Sep 21 05:04:19 2016


         ---------------------------------------------------------
                                   SCF
            by Justin Turney, Rob Parrish, and Andy Simmonett
                              RHF Reference
                       12 Threads,  60000 MiB Core
         ---------------------------------------------------------

  ==> Geometry <==

    Molecular point group: c1
    Full point group: C1

    Geometry (in Angstrom), charge = 0, multiplicity = 1:

       Center              X                  Y                   Z               Mass       
    ------------   -----------------  -----------------  -----------------  -----------------
           C          3.230116838831     0.233556393077     0.005662970698    12.000000000000
           H          4.022293013493     0.541732766870    -0.676290621510     1.007825032070
           H          3.665627717244    -0.445481684552     0.740820060846     1.007825032070
           H          2.887711142252     1.121725638387     0.536450766265     1.007825032070
           C         -2.596990225218    -1.223638852980    -0.048629705428    12.000000000000
           H         -3.556655837468    -1.592927522698     0.314006625164     1.007825032070
           H         -1.822840343077    -1.608594052250     0.611986234775     1.007825032070
           H         -2.430151444611    -1.650136463795    -1.039025445333     1.007825032070
           C          2.089564232484    -0.444906583461    -0.744945381240    12.000000000000
           H          2.490000645996    -1.265203239245    -1.344828455431     1.007825032070
           H          1.645593541868     0.259918396492    -1.452068674599     1.007825032070
           C         -2.592133393031     0.301415995771    -0.119305810325    12.000000000000
           H         -3.437879913691     0.611925145793    -0.736455832376     1.007825032070
           H         -2.772871496327     0.719704684014     0.875367731031     1.007825032070
           C          1.007374156845    -1.001610925250     0.179633797891    12.000000000000
           H          1.447556130402    -1.783422275584     0.806009936746     1.007825032070
           H          0.240775814671    -1.489990835276    -0.425880985924     1.007825032070
           C          0.358846410336     0.044744894617     1.086895397109    12.000000000000
           H          1.100411473129     0.413193444922     1.800212166664     1.007825032070
           H         -0.417479532448    -0.432467412400     1.689547800755     1.007825032070
           C         -0.230924816870     1.240577861928     0.340443962370    12.000000000000
           H         -0.657995424571     1.933325351441     1.071713276546     1.007825032070
           H          0.577032445891     1.786138457871    -0.154884620223     1.007825032070
           C         -1.308911117611     0.915198465942    -0.695267980711    12.000000000000
           H         -1.563341963714     1.848881941592    -1.202355922241     1.007825032070
           H         -0.905102760769     0.253718220241    -1.467752962484     1.007825032070

  Running in c1 symmetry.

  Rotational constants: A =      0.12066  B =      0.03247  C =      0.03000 [cm^-1]
  Rotational constants: A =   3617.39331  B =    973.39831  C =    899.38087 [MHz]
  Nuclear repulsion =  408.291043608334462

  Charge       = 0
  Multiplicity = 1
  Electrons    = 66
  Nalpha       = 33
  Nbeta        = 33

  ==> Algorithm <==

  SCF Algorithm Type is DF.
  DIIS enabled.
  MOM disabled.
  Fractional occupation disabled.
  Guess Type is READ.
  Energy threshold   = 1.00e-10
  Density threshold  = 1.00e-10
  Integral threshold = 0.00e+00

  ==> Primary Basis <==

  Basis Set: AUG-CC-PVTZ
    Number of shells: 274
    Number of basis function: 782
    Number of Cartesian functions: 890
    Spherical Harmonics?: true
    Max angular momentum: 3

  ==> Pre-Iterations <==

   -------------------------------------------------------
    Irrep   Nso     Nmo     Nalpha   Nbeta   Ndocc  Nsocc
   -------------------------------------------------------
     A        782     782       0       0       0       0
   -------------------------------------------------------
    Total     782     782      33      33      33       0
   -------------------------------------------------------

  ==> Integral Setup <==

  ==> DFJK: Density-Fitted J/K Matrices <==

    J tasked:                  Yes
    K tasked:                  Yes
    wK tasked:                  No
    OpenMP threads:             12
    Integrals threads:          12
    Memory (MB):             42915
    Algorithm:                Core
    Integral Cache:           NONE
    Schwarz Cutoff:          1E-12
    Fitting Condition:       1E-12

   => Auxiliary Basis Set <=

  Basis Set: 
    Number of shells: 492
    Number of basis function: 1660
    Number of Cartesian functions: 2038
    Spherical Harmonics?: true
    Max angular momentum: 4

  Minimum eigenvalue in the overlap matrix is 1.2974155877E-06.
  Using Symmetric Orthogonalization.
  SCF Guess: Reading in previously saved MOs, projecting if necessary.

  Using orbitals from previous SCF, no projection.
  Recomputing DOCC and SOCC from number of alpha and beta electrons from previous calculation.
              A 
    DOCC [    33 ]

  ==> Iterations <==

                           Total Energy        Delta E     RMS |[F,P]|

   @DF-RHF iter   0:  -313.53442147471912   -3.13534e+02   1.27500e-07 
   @DF-RHF iter   1:  -313.53443512023728   -1.36455e-05   2.65950e-08 
   @DF-RHF iter   2:  -313.53443512067508   -4.37808e-10   1.01607e-08 DIIS
   @DF-RHF iter   3:  -313.53443512074114   -6.60521e-11   4.61784e-09 DIIS
   @DF-RHF iter   4:  -313.53443512075194   -1.08002e-11   5.43039e-10 DIIS
   @DF-RHF iter   5:  -313.53443512075194    0.00000e+00   1.66489e-10 DIIS
   @DF-RHF iter   6:  -313.53443512075194    0.00000e+00   3.92496e-11 DIIS

  ==> Post-Iterations <==

    Orbital Energies (a.u.)
    -----------------------

    Doubly Occupied:                                                      

       1A    -11.213317     2A    -11.212187     3A    -11.210815  
       4A    -11.210229     5A    -11.209648     6A    -11.209028  
       7A    -11.206722     8A    -11.206440     9A     -1.095812  
      10A     -1.056091    11A     -1.003246    12A     -0.950719  
      13A     -0.891881    14A     -0.834952    15A     -0.789120  
      16A     -0.738621    17A     -0.651096    18A     -0.639610  
      19A     -0.603660    20A     -0.597093    21A     -0.575683  
      22A     -0.555778    23A     -0.544818    24A     -0.533057  
      25A     -0.521362    26A     -0.500953    27A     -0.492752  
      28A     -0.474026    29A     -0.468388    30A     -0.457863  
      31A     -0.439758    32A     -0.436357    33A     -0.433867  

    Virtual:                                                              

      34A      0.029878    35A      0.033684    36A      0.033960  
      37A      0.034864    38A      0.045644    39A      0.048752  
      40A      0.050929    41A      0.053367    42A      0.055099  
      43A      0.067920    44A      0.068606    45A      0.072299  
      46A      0.073338    47A      0.079704    48A      0.080100  
      49A      0.093150    50A      0.097628    51A      0.102038  
      52A      0.113828    53A      0.116038    54A      0.116575  
      55A      0.125265    56A      0.127268    57A      0.132555  
      58A      0.135039    59A      0.136184    60A      0.137304  
      61A      0.142078    62A      0.146077    63A      0.153427  
      64A      0.155721    65A      0.160442    66A      0.164103  
      67A      0.166789    68A      0.167574    69A      0.169194  
      70A      0.173424    71A      0.175578    72A      0.178236  
      73A      0.186064    74A      0.189096    75A      0.193089  
      76A      0.197909    77A      0.211091    78A      0.220428  
      79A      0.223214    80A      0.228243    81A      0.236307  
      82A      0.250805    83A      0.256301    84A      0.266958  
      85A      0.270305    86A      0.276877    87A      0.281790  
      88A      0.290097    89A      0.292722    90A      0.297748  
      91A      0.303002    92A      0.305365    93A      0.308918  
      94A      0.313262    95A      0.320577    96A      0.325130  
      97A      0.329593    98A      0.336311    99A      0.337861  
     100A      0.339943   101A      0.341849   102A      0.344779  
     103A      0.350226   104A      0.352080   105A      0.357161  
     106A      0.357427   107A      0.360001   108A      0.367240  
     109A      0.371437   110A      0.374750   111A      0.377830  
     112A      0.380950   113A      0.381067   114A      0.386982  
     115A      0.394764   116A      0.395829   117A      0.400233  
     118A      0.405257   119A      0.413554   120A      0.415264  
     121A      0.420900   122A      0.425754   123A      0.429868  
     124A      0.440542   125A      0.441945   126A      0.444142  
     127A      0.450877   128A      0.452814   129A      0.457759  
     130A      0.463718   131A      0.463940   132A      0.468742  
     133A      0.470483   134A      0.471018   135A      0.475682  
     136A      0.478715   137A      0.479908   138A      0.486062  
     139A      0.488921   140A      0.492373   141A      0.495602  
     142A      0.501751   143A      0.504097   144A      0.507814  
     145A      0.510295   146A      0.517972   147A      0.521237  
     148A      0.525583   149A      0.536089   150A      0.542350  
     151A      0.546149   152A      0.550241   153A      0.552644  
     154A      0.555619   155A      0.560670   156A      0.563085  
     157A      0.571357   158A      0.574100   159A      0.582997  
     160A      0.584444   161A      0.587528   162A      0.588807  
     163A      0.596614   164A      0.598772   165A      0.602416  
     166A      0.604409   167A      0.608628   168A      0.618296  
     169A      0.623486   170A      0.626871   171A      0.629435  
     172A      0.631036   173A      0.637098   174A      0.645352  
     175A      0.647436   176A      0.651809   177A      0.657914  
     178A      0.659405   179A      0.668118   180A      0.675494  
     181A      0.680575   182A      0.688996   183A      0.694756  
     184A      0.699066   185A      0.703044   186A      0.709864  
     187A      0.713277   188A      0.718827   189A      0.722776  
     190A      0.727311   191A      0.732733   192A      0.737077  
     193A      0.746412   194A      0.750062   195A      0.755502  
     196A      0.761307   197A      0.761865   198A      0.774684  
     199A      0.778084   200A      0.781414   201A      0.789478  
     202A      0.797266   203A      0.813002   204A      0.824273  
     205A      0.832876   206A      0.839294   207A      0.849579  
     208A      0.854097   209A      0.860983   210A      0.866429  
     211A      0.867178   212A      0.875734   213A      0.883351  
     214A      0.893917   215A      0.894541   216A      0.896912  
     217A      0.903653   218A      0.906818   219A      0.908848  
     220A      0.915842   221A      0.921631   222A      0.929452  
     223A      0.934551   224A      0.936660   225A      0.943646  
     226A      0.947291   227A      0.951911   228A      0.958398  
     229A      0.967253   230A      0.970470   231A      0.975408  
     232A      0.978996   233A      0.987339   234A      0.992318  
     235A      0.996399   236A      0.998399   237A      1.001786  
     238A      1.007841   239A      1.012100   240A      1.021223  
     241A      1.030207   242A      1.033672   243A      1.038059  
     244A      1.047729   245A      1.051073   246A      1.053832  
     247A      1.058639   248A      1.064175   249A      1.067971  
     250A      1.069898   251A      1.079247   252A      1.081529  
     253A      1.088536   254A      1.092473   255A      1.094540  
     256A      1.098949   257A      1.106865   258A      1.116572  
     259A      1.117378   260A      1.122092   261A      1.131580  
     262A      1.143034   263A      1.149997   264A      1.159059  
     265A      1.161306   266A      1.162666   267A      1.163962  
     268A      1.174462   269A      1.180290   270A      1.183379  
     271A      1.191847   272A      1.195514   273A      1.199331  
     274A      1.208552   275A      1.217718   276A      1.222553  
     277A      1.226129   278A      1.233102   279A      1.236025  
     280A      1.241308   281A      1.242801   282A      1.248387  
[...]
	    3 R(1,4)          =      1.089872    -0.000004     0.000000     1.089872
	    4 R(1,9)          =      1.524659     0.000000    -0.000000     1.524659
	    5 R(5,6)          =      1.090338    -0.000007    -0.000000     1.090337
	    6 R(5,7)          =      1.088076    -0.000011    -0.000000     1.088076
	    7 R(5,8)          =      1.091154    -0.000008    -0.000000     1.091154
	    8 R(5,12)         =      1.526699    -0.000000    -0.000000     1.526699
	    9 R(9,10)         =      1.092288    -0.000003     0.000000     1.092289
	   10 R(9,11)         =      1.092661    -0.000006     0.000000     1.092661
	   11 R(9,15)         =      1.528365     0.000000    -0.000000     1.528365
	   12 R(12,13)        =      1.092051    -0.000007    -0.000000     1.092051
	   13 R(12,14)        =      1.094077    -0.000010    -0.000000     1.094077
	   14 R(12,24)        =      1.534639    -0.000002    -0.000000     1.534639
	   15 R(15,16)        =      1.094227    -0.000004     0.000000     1.094227
	   16 R(15,17)        =      1.092168    -0.000008     0.000000     1.092168
	   17 R(15,18)        =      1.529239     0.000005     0.000001     1.529239
	   18 R(18,19)        =      1.092928    -0.000005     0.000000     1.092928
	   19 R(18,20)        =      1.092520    -0.000009    -0.000000     1.092520
	   20 R(18,21)        =      1.528081    -0.000004    -0.000000     1.528081
	   21 R(21,22)        =      1.094094    -0.000007    -0.000000     1.094094
	   22 R(21,23)        =      1.093516    -0.000010    -0.000000     1.093515
	   23 R(21,24)        =      1.529910     0.000000     0.000000     1.529910
	   24 R(24,25)        =      1.092537    -0.000005     0.000000     1.092537
	   25 R(24,26)        =      1.094233    -0.000011    -0.000000     1.094233
	   26 B(1,9,10)       =    109.288127    -0.000000    -0.000016   109.288110
	   27 B(1,9,11)       =    109.603755    -0.000000     0.000011   109.603767
	   28 B(1,9,15)       =    113.200620     0.000000    -0.000010   113.200611
	   29 B(2,1,3)        =    107.901838     0.000000    -0.000001   107.901837
	   30 B(2,1,4)        =    107.619280    -0.000000     0.000005   107.619285
	   31 B(2,1,9)        =    111.195628     0.000000    -0.000014   111.195614
	   32 B(3,1,4)        =    107.718035     0.000000     0.000007   107.718042
	   33 B(3,1,9)        =    110.686483    -0.000000    -0.000001   110.686482
	   34 B(4,1,9)        =    111.554228    -0.000000     0.000004   111.554232
	   35 B(5,12,13)      =    107.922315     0.000000     0.000029   107.922344
	   36 B(5,12,14)      =    109.833999     0.000000     0.000008   109.834008
	   37 B(5,12,24)      =    114.806476    -0.000000    -0.000038   114.806437
	   38 B(6,5,7)        =    107.725655    -0.000000    -0.000009   107.725646
	   39 B(6,5,8)        =    107.702274    -0.000000     0.000012   107.702286
	   40 B(6,5,12)       =    110.886935     0.000000     0.000029   110.886964
	   41 B(7,5,8)        =    107.698164     0.000000     0.000014   107.698179
	   42 B(7,5,12)       =    112.287596    -0.000000    -0.000032   112.287565
	   43 B(8,5,12)       =    110.361459    -0.000000    -0.000013   110.361446
	   44 B(9,15,16)      =    108.766214     0.000000    -0.000012   108.766202
	   45 B(9,15,17)      =    108.934264    -0.000000    -0.000007   108.934257
	   46 B(9,15,18)      =    114.201701     0.000000     0.000024   114.201724
	   47 B(10,9,11)      =    106.138985     0.000000     0.000005   106.138990
	   48 B(10,9,15)      =    108.558418    -0.000000    -0.000031   108.558387
	   49 B(11,9,15)      =    109.800680    -0.000000     0.000040   109.800720
	   50 B(12,24,21)     =    114.844545    -0.000000     0.000002   114.844547
	   51 B(12,24,25)     =    108.739555    -0.000000     0.000006   108.739561
	   52 B(12,24,26)     =    109.374946    -0.000000    -0.000011   109.374935
	   53 B(13,12,14)     =    106.089466    -0.000000    -0.000000   106.089466
	   54 B(13,12,24)     =    108.769459     0.000000     0.000005   108.769464
	   55 B(14,12,24)     =    109.052314     0.000000    -0.000001   109.052313
	   56 B(15,18,19)     =    109.276786    -0.000000    -0.000035   109.276751
	   57 B(15,18,20)     =    109.252803     0.000000    -0.000001   109.252802
	   58 B(15,18,21)     =    114.162559    -0.000000    -0.000007   114.162552
	   59 B(16,15,17)     =    106.274114    -0.000000    -0.000004   106.274110
	   60 B(16,15,18)     =    108.654674     0.000000     0.000013   108.654687
	   61 B(17,15,18)     =    109.707397    -0.000000    -0.000015   109.707382
	   62 B(18,21,22)     =    108.642329    -0.000000     0.000015   108.642344
	   63 B(18,21,23)     =    109.058362    -0.000000    -0.000005   109.058357
	   64 B(18,21,24)     =    115.861911     0.000000    -0.000014   115.861897
	   65 B(19,18,20)     =    105.626838    -0.000000     0.000014   105.626852
	   66 B(19,18,21)     =    108.473968     0.000000     0.000009   108.473976
	   67 B(20,18,21)     =    109.696363     0.000000     0.000022   109.696385
	   68 B(21,24,25)     =    107.250333     0.000000    -0.000004   107.250329
	   69 B(21,24,26)     =    110.270852     0.000000    -0.000001   110.270851
	   70 B(22,21,23)     =    105.978240    -0.000000    -0.000023   105.978217
	   71 B(22,21,24)     =    108.185908     0.000000    -0.000009   108.185899
	   72 B(23,21,24)     =    108.666787    -0.000000     0.000035   108.666822
	   73 B(25,24,26)     =    105.955969     0.000000     0.000009   105.955978
	   74 D(1,9,15,16)    =    -63.260847    -0.000000     0.000241   -63.260605
	   75 D(1,9,15,17)    =   -178.693735    -0.000000     0.000257  -178.693479
	   76 D(1,9,15,18)    =     58.278659     0.000000     0.000265    58.278923
	   77 D(2,1,9,10)     =     54.003650    -0.000000    -0.000058    54.003591
	   78 D(2,1,9,11)     =    -61.925629     0.000000    -0.000061   -61.925690
	   79 D(2,1,9,15)     =    175.125859     0.000000    -0.000115   175.125744
	   80 D(3,1,9,10)     =    -65.919563    -0.000000    -0.000047   -65.919610
	   81 D(3,1,9,11)     =    178.151159     0.000000    -0.000050   178.151109
	   82 D(3,1,9,15)     =     55.202646     0.000000    -0.000104    55.202542
	   83 D(4,1,9,10)     =    174.151968    -0.000000    -0.000058   174.151911
	   84 D(4,1,9,11)     =     58.222690     0.000000    -0.000061    58.222630
	   85 D(4,1,9,15)     =    -64.725822     0.000000    -0.000115   -64.725937
	   86 D(5,12,24,21)   =    -90.493848    -0.000000    -0.000070   -90.493918
	   87 D(5,12,24,25)   =    149.363090    -0.000000    -0.000071   149.363019
	   88 D(5,12,24,26)   =     34.084757    -0.000000    -0.000079    34.084678
	   89 D(6,5,12,13)    =    -55.219292    -0.000000     0.000034   -55.219258
	   90 D(6,5,12,14)    =     60.013417    -0.000000     0.000054    60.013471
	   91 D(6,5,12,24)    =   -176.687924    -0.000000     0.000031  -176.687893
	   92 D(7,5,12,13)    =   -175.789581    -0.000000     0.000048  -175.789534
	   93 D(7,5,12,14)    =    -60.556872    -0.000000     0.000068   -60.556805
	   94 D(7,5,12,24)    =     62.741786    -0.000000     0.000045    62.741831
	   95 D(8,5,12,13)    =     64.040709     0.000000     0.000060    64.040768
	   96 D(8,5,12,14)    =    179.273417     0.000000     0.000080   179.273497
	   97 D(8,5,12,24)    =    -57.427924     0.000000     0.000057   -57.427867
	   98 D(9,15,18,19)   =    -66.469947    -0.000000    -0.000146   -66.470092
	   99 D(9,15,18,20)   =    178.415485    -0.000000    -0.000143   178.415342
	  100 D(9,15,18,21)   =     55.187158    -0.000000    -0.000165    55.186993
	  101 D(10,9,15,16)   =     58.272370    -0.000000     0.000193    58.272563
	  102 D(10,9,15,17)   =    -57.160519     0.000000     0.000208   -57.160311
	  103 D(10,9,15,18)   =    179.811875     0.000000     0.000216   179.812092
	  104 D(11,9,15,16)   =    173.899670    -0.000000     0.000203   173.899873
	  105 D(11,9,15,17)   =     58.466781     0.000000     0.000219    58.467000
	  106 D(11,9,15,18)   =    -64.560825     0.000000     0.000227   -64.560598
	  107 D(12,24,21,18)  =     64.083132     0.000000     0.000082    64.083215
	  108 D(12,24,21,22)  =    -58.136152    -0.000000     0.000079   -58.136073
	  109 D(12,24,21,23)  =   -172.769884     0.000000     0.000093  -172.769790
	  110 D(13,12,24,21)  =    148.500702    -0.000000    -0.000086   148.500616
	  111 D(13,12,24,25)  =     28.357640    -0.000000    -0.000086    28.357553
	  112 D(13,12,24,26)  =    -86.920694    -0.000000    -0.000094   -86.920788
	  113 D(14,12,24,21)  =     33.221599    -0.000000    -0.000088    33.221511
	  114 D(14,12,24,25)  =    -86.921463    -0.000000    -0.000089   -86.921551
	  115 D(14,12,24,26)  =    157.800204    -0.000000    -0.000097   157.800107
	  116 D(15,18,21,22)  =   -179.351430     0.000000     0.000000  -179.351430
	  117 D(15,18,21,23)  =    -64.269785     0.000000    -0.000022   -64.269807
	  118 D(15,18,21,24)  =     58.671542     0.000000     0.000010    58.671552
	  119 D(16,15,18,19)  =     55.131036     0.000000    -0.000136    55.130900
	  120 D(16,15,18,20)  =    -59.983532     0.000000    -0.000133   -59.983665
	  121 D(16,15,18,21)  =    176.788141    -0.000000    -0.000155   176.787986
	  122 D(17,15,18,19)  =    170.922778    -0.000000    -0.000142   170.922637
	  123 D(17,15,18,20)  =     55.808210     0.000000    -0.000139    55.808071
	  124 D(17,15,18,21)  =    -67.420117    -0.000000    -0.000161   -67.420278
	  125 D(18,21,24,25)  =   -174.954287     0.000000     0.000088  -174.954199
	  126 D(18,21,24,26)  =    -60.022787     0.000000     0.000097   -60.022690
	  127 D(19,18,21,22)  =    -57.252967     0.000000    -0.000043   -57.253010
	  128 D(19,18,21,23)  =     57.828678    -0.000000    -0.000065    57.828613
	  129 D(19,18,21,24)  =   -179.229995    -0.000000    -0.000033  -179.230028
	  130 D(20,18,21,22)  =     57.660780     0.000000    -0.000010    57.660770
	  131 D(20,18,21,23)  =    172.742424     0.000000    -0.000032   172.742392
	  132 D(20,18,21,24)  =    -64.316248     0.000000     0.000000   -64.316248
	  133 D(22,21,24,25)  =     62.826428    -0.000000     0.000085    62.826513
	  134 D(22,21,24,26)  =    177.757928     0.000000     0.000094   177.758022
	  135 D(23,21,24,25)  =    -51.807303     0.000000     0.000099   -51.807204
	  136 D(23,21,24,26)  =     63.124197     0.000000     0.000108    63.124305
	  137 R(1,21)         =      3.620078     0.000001     0.000002     3.620080
	  138 R(5,15)         =      3.618409     0.000001     0.000002     3.618411
	  139 R(5,18)         =      3.411050    -0.000001     0.000001     3.411051
	  140 R(9,24)         =      3.660863    -0.000001    -0.000002     3.660861
	 ---------------------------------------------------------------------------

  ==> Convergence Check <==

  Measures of convergence in internal coordinates in au.
  Criteria marked as inactive (o), active & met (*), and active & unmet ( ).
  ---------------------------------------------------------------------------------------------
   Step     Total Energy     Delta E     MAX Force     RMS Force      MAX Disp      RMS Disp   
  ---------------------------------------------------------------------------------------------
    Convergence Criteria             o    2.00e-06 *    1.00e-06 *    6.00e-06 *    4.00e-06 *
  ---------------------------------------------------------------------------------------------
     34    -314.98056133    7.32e-09 o    1.31e-06 *    3.38e-07 *    4.65e-06 *    1.55e-06 *  ~
  ---------------------------------------------------------------------------------------------


  **** Optimization is complete! (in 34 steps) ****

  ==> Optimization Summary <==

  Measures of convergence in internal coordinates in au.
  --------------------------------------------------------------------------------------------------------------- ~
   Step         Total Energy             Delta E       MAX Force       RMS Force        MAX Disp        RMS Disp  ~
  --------------------------------------------------------------------------------------------------------------- ~
      1    -314.980561328366   -314.980561328366      0.00000166      0.00000038      0.00005974      0.00002248  ~
      2    -314.980561332867     -0.000000004500      0.00000116      0.00000021      0.00005626      0.00002049  ~
      3    -314.980561329909      0.000000002958      0.00000110      0.00000029      0.00003738      0.00001451  ~
      4    -314.980561329585      0.000000000323      0.00000241      0.00000054      0.00002443      0.00000940  ~
      5    -314.980561335018     -0.000000005433      0.00000125      0.00000024      0.00002321      0.00000807  ~
      6    -314.980561328546      0.000000006472      0.00000105      0.00000021      0.00003629      0.00000844  ~
      7    -314.980561329009     -0.000000000463      0.00000185      0.00000036      0.00002130      0.00000853  ~
      8    -314.980561334332     -0.000000005323      0.00000155      0.00000036      0.00002038      0.00000732  ~
      9    -314.980561325830      0.000000008502      0.00000173      0.00000028      0.00001878      0.00000583  ~
     10    -314.980561331135     -0.000000005305      0.00000080      0.00000015      0.00001932      0.00000573  ~
     11    -314.980561331298     -0.000000000163      0.00000318      0.00000074      0.00001548      0.00000371  ~
     12    -314.980561333483     -0.000000002185      0.00000082      0.00000015      0.00001043      0.00000454  ~
     13    -314.980561333190      0.000000000293      0.00000063      0.00000012      0.00001031      0.00000184  ~
     14    -314.980561332545      0.000000000644      0.00000115      0.00000019      0.00000948      0.00000264  ~
     15    -314.980561331863      0.000000000682      0.00000186      0.00000034      0.00000839      0.00000251  ~
     16    -314.980561333249     -0.000000001386      0.00000141      0.00000032      0.00001002      0.00000391  ~
     17    -314.980561329436      0.000000003813      0.00000082      0.00000018      0.00001337      0.00000457  ~
     18    -314.980561329810     -0.000000000374      0.00000054      0.00000009      0.00001486      0.00000336  ~
     19    -314.980561332008     -0.000000002198      0.00000110      0.00000018      0.00001353      0.00000338  ~
     20    -314.980561329272      0.000000002736      0.00000074      0.00000019      0.00001580      0.00000331  ~
     21    -314.980561330282     -0.000000001010      0.00000134      0.00000023      0.00001406      0.00000374  ~
     22    -314.980561328387      0.000000001895      0.00000064      0.00000016      0.00001352      0.00000220  ~
     23    -314.980561333574     -0.000000005187      0.00000065      0.00000015      0.00001008      0.00000280  ~
     24    -314.980561329410      0.000000004164      0.00000123      0.00000021      0.00000855      0.00000249  ~
     25    -314.980561332414     -0.000000003004      0.00000037      0.00000008      0.00001091      0.00000376  ~
     26    -314.980561336341     -0.000000003927      0.00000367      0.00000078      0.00001388      0.00000347  ~
     27    -314.980561334728      0.000000001613      0.00000096      0.00000022      0.00001075      0.00000242  ~
     28    -314.980561336565     -0.000000001836      0.00000113      0.00000021      0.00000635      0.00000173  ~
     29    -314.980561332644      0.000000003921      0.00000157      0.00000032      0.00000643      0.00000239  ~
     30    -314.980561331285      0.000000001359      0.00000074      0.00000013      0.00001084      0.00000262  ~
     31    -314.980561331672     -0.000000000387      0.00000126      0.00000030      0.00000726      0.00000240  ~
     32    -314.980561329161      0.000000002511      0.00000198      0.00000040      0.00000612      0.00000125  ~
     33    -314.980561333761     -0.000000004600      0.00000050      0.00000012      0.00000854      0.00000254  ~
     34    -314.980561326441      0.000000007320      0.00000131      0.00000034      0.00000465      0.00000155  ~
  --------------------------------------------------------------------------------------------------------------- ~

	Writing optimization data to binary file.
	Final energy is   -314.9805613264409
	Final (previous) structure:
	Cartesian Geometry (in Angstrom)
	    C     3.2301198208   0.2335516899   0.0056614797
	    H     4.0222812083   0.5417417633  -0.6763020568
	    H     3.6656472512  -0.4454956916   0.7407988505
	    H     2.8877211435   1.1217106279   0.5364694752
	    C    -2.5969915382  -1.2236461174  -0.0486561331
	    H    -3.5566480409  -1.5929372850   0.3140002541
	    H    -1.8228244059  -1.6086235880   0.6119248070
	    H    -2.4301870760  -1.6501192615  -1.0390673435
	    C     2.0895554272  -0.4449043829  -0.7449350718
	    H     2.4899795099  -1.2651981017  -1.3448290383
	    H     1.6455779359   0.2599262487  -1.4520464669
	    C    -2.5921245638   0.3014103137  -0.1192939699
	    H    -3.4378836472   0.6119414594  -0.7364150598
	    H    -2.7728344961   0.7196753049   0.8753937658
	    C     1.0073748216  -1.0016076090   0.1796554912
	    H     1.4475629180  -1.7834062466   0.8060408592
	    H     0.2407807871  -1.4900003417  -0.4258506600
	    C     0.3588382875   0.0447561272   1.0869006358
	    H     1.1003962029   0.4132095019   1.8002211176
	    H    -0.4174932266  -0.4324486850   1.6895487298
	    C    -0.2309182014   1.2405825512   0.3404293072
	    H    -0.6579761171   1.9333498016   1.0716861736
	    H     0.5770426624   1.7861201988  -0.1549133113
	    C    -1.3089120248   0.9151955195  -0.6952721359
	    H    -1.5633514538   1.8488736737  -1.2023643772
	    H    -0.9051072690   0.2537111519  -1.4677526563
	Saving final (previous) structure.
			--------------------------
			 OPTKING Finished Execution 
			--------------------------

    Final optimized geometry and variables:
    Molecular point group: c1
    Full point group: C1

    Geometry (in Angstrom), charge = 0, multiplicity = 1:

    C            3.230119820766     0.233551689870     0.005661479714
    H            4.022281208308     0.541741763290    -0.676302056848
    H            3.665647251230    -0.445495691632     0.740798850479
    H            2.887721143457     1.121710627897     0.536469475224
    C           -2.596991538242    -1.223646117421    -0.048656133115
    H           -3.556648040866    -1.592937284984     0.314000254071
    H           -1.822824405894    -1.608623587985     0.611924806952
    H           -2.430187076033    -1.650119261526    -1.039067343517
    C            2.089555427177    -0.444904382945    -0.744935071825
    H            2.489979509893    -1.265198101704    -1.344829038273
    H            1.645577935879     0.259926248698    -1.452046466945
    C           -2.592124563770     0.301410313697    -0.119293969861
    H           -3.437883647209     0.611941459423    -0.736415059790
    H           -2.772834496094     0.719675304896     0.875393765798
    C            1.007374821613    -1.001607609020     0.179655491188
    H            1.447562917986    -1.783406246632     0.806040859171
    H            0.240780787092    -1.490000341686    -0.425850660012
    C            0.358838287548     0.044756127227     1.086900635836
    H            1.100396202867     0.413209501865     1.800221117635
    H           -0.417493226610    -0.432448685019     1.689548729786
    C           -0.230918201442     1.240582551227     0.340429307241
    H           -0.657976117091     1.933349801629     1.071686173609
    H            0.577042662385     1.786120198835    -0.154913311313
    C           -1.308912024842     0.915195519459    -0.695272135872
    H           -1.563351453812     1.848873673662    -1.202364377179
    H           -0.905107269026     0.253711151904    -1.467752656264

	Cleaning optimization helper files.

*** Psi4 exiting successfully. Buy a developer a beer!
