    -----------------------------------------------------------------------
          Psi4: An Open-Source Ab Initio Electronic Structure Package
                              Psi4 1.0.0 Driver

                          Git: Rev {master} 6a9a71b dirty

    J. M. Turney, A. C. Simmonett, R. M. Parrish, E. G. Hohenstein,
    F. A. Evangelista, J. T. Fermann, B. J. Mintz, L. A. Burns, J. J. Wilke,
    M. L. Abrams, N. J. Russ, M. L. Leininger, C. L. Janssen, E. T. Seidl,
    W. D. Allen, H. F. Schaefer, R. A. King, E. F. Valeev, C. D. Sherrill,
    and T. D. Crawford, WIREs Comput. Mol. Sci. 2, 556-565 (2012)
    (doi: 10.1002/wcms.93)

                         Additional Contributions by
    A. E. DePrince, U. Bozkaya, A. Yu. Sokolov, D. G. A. Smith, R. Di Remigio,
    R. M. Richard, J. F. Gonthier, H. R. McAlexander, M. Saitow, and
    B. P. Pritchard
    -----------------------------------------------------------------------


    Psi4 started on: Thu Sep 22 20:30:19 2016

    Process ID:  44663
    PSI4DATADIR: /usr/local/hpc5/psi4conda/share/psi4
    Memory level set to 256.000 MB

  ==> Input File <==

--------------------------------------------------------------------------
memory 30 Gb

molecule molecule_42 {
0 1
    C            3.316196998057    -0.252362671128     0.307110680554
    H            3.104843401539     0.783407785663     0.062713662557
    H            3.141386115349    -0.846796522098    -0.585537618986
    H            4.373145349525    -0.320295644579     0.546440349270
    C           -3.542826783043    -0.318703926049    -1.485357793435
    H           -3.526003358176    -0.028043847931    -2.532002585653
    H           -4.536588099882    -0.111165674517    -1.100412575826
    H           -3.388721091437    -1.393244151998    -1.439677712807
    C            2.464840208398    -0.747483622482     1.476944951059
    H            2.661760957565    -0.127695253709     2.349411364805
    H            2.786741792703    -1.752143260970     1.741315028490
    C           -2.472280155650     0.426303452143    -0.687750881763
    H           -2.670793356968     1.495476891648    -0.729596924357
    H           -2.549909205941     0.141960094338     0.357807619285
    C            0.952463530762    -0.778447209523     1.218540022823
    H            0.483123353168    -1.237777642303     2.084407424329
    H            0.750317094422    -1.446737995654     0.385068882254
    C            0.303604352916     0.600286870774     0.966980084387
    H            0.934237523328     1.371639397439     1.403510667225
    H           -0.635928622663     0.658299962040     1.507486132069
    C            0.050280179432     0.956119699790    -0.506991644295
    H           -0.201142802518     2.013303513101    -0.569251308543
    H            0.971235806648     0.833343891730    -1.069716603764
    C           -1.057120576826     0.154794210676    -1.206092094805
    H           -1.028107203484     0.395014274371    -2.267186548854
    H           -0.850078433826    -0.910853394710    -1.137610211668
}

set globals {
  reference rhf
  g_convergence gau_tight
  basis aug-cc-pvtz
  freeze_core true
}
optimize('mp2')
--------------------------------------------------------------------------
/usr/local/hpc5/psi4conda/lib/python2.7/site-packages/v2rdm_casscf/v2rdm_casscf.so loaded.

  Memory set to  30.000 GiB by Python script.
gradient() will perform analytic gradient computation.
    SCF Algorithm Type (re)set to DF.

*** tstart() called on wr42
*** at Thu Sep 22 20:30:19 2016


         ---------------------------------------------------------
                                   SCF
            by Justin Turney, Rob Parrish, and Andy Simmonett
                              RHF Reference
                       32 Threads,  30000 MiB Core
         ---------------------------------------------------------

  ==> Geometry <==

    Molecular point group: c1
    Full point group: C1

    Geometry (in Angstrom), charge = 0, multiplicity = 1:

       Center              X                  Y                   Z               Mass       
    ------------   -----------------  -----------------  -----------------  -----------------
           C          3.316196998057    -0.252362671128     0.307110680554    12.000000000000
           H          3.104843401539     0.783407785663     0.062713662557     1.007825032070
           H          3.141386115349    -0.846796522098    -0.585537618986     1.007825032070
           H          4.373145349525    -0.320295644579     0.546440349270     1.007825032070
           C         -3.542826783043    -0.318703926049    -1.485357793435    12.000000000000
           H         -3.526003358176    -0.028043847931    -2.532002585653     1.007825032070
           H         -4.536588099882    -0.111165674517    -1.100412575826     1.007825032070
           H         -3.388721091437    -1.393244151998    -1.439677712807     1.007825032070
           C          2.464840208398    -0.747483622482     1.476944951059    12.000000000000
           H          2.661760957565    -0.127695253709     2.349411364805     1.007825032070
           H          2.786741792703    -1.752143260970     1.741315028490     1.007825032070
           C         -2.472280155650     0.426303452143    -0.687750881763    12.000000000000
           H         -2.670793356968     1.495476891648    -0.729596924357     1.007825032070
           H         -2.549909205941     0.141960094338     0.357807619285     1.007825032070
           C          0.952463530762    -0.778447209523     1.218540022823    12.000000000000
           H          0.483123353168    -1.237777642303     2.084407424329     1.007825032070
           H          0.750317094422    -1.446737995654     0.385068882254     1.007825032070
           C          0.303604352916     0.600286870774     0.966980084387    12.000000000000
           H          0.934237523328     1.371639397439     1.403510667225     1.007825032070
           H         -0.635928622663     0.658299962040     1.507486132069     1.007825032070
           C          0.050280179432     0.956119699790    -0.506991644295    12.000000000000
           H         -0.201142802518     2.013303513101    -0.569251308543     1.007825032070
           H          0.971235806648     0.833343891730    -1.069716603764     1.007825032070
           C         -1.057120576826     0.154794210676    -1.206092094805    12.000000000000
           H         -1.028107203484     0.395014274371    -2.267186548854     1.007825032070
           H         -0.850078433826    -0.910853394710    -1.137610211668     1.007825032070

  Running in c1 symmetry.

  Rotational constants: A =      0.15242  B =      0.02390  C =      0.02319 [cm^-1]
  Rotational constants: A =   4569.53898  B =    716.51068  C =    695.22226 [MHz]
  Nuclear repulsion =  392.515360904710349

  Charge       = 0
  Multiplicity = 1
  Electrons    = 66
  Nalpha       = 33
  Nbeta        = 33

  ==> Algorithm <==

  SCF Algorithm Type is DF.
  DIIS enabled.
  MOM disabled.
  Fractional occupation disabled.
  Guess Type is SAD.
  Energy threshold   = 1.00e-10
  Density threshold  = 1.00e-10
  Integral threshold = 0.00e+00

  ==> Primary Basis <==

  Basis Set: AUG-CC-PVTZ
    Number of shells: 274
    Number of basis function: 782
    Number of Cartesian functions: 890
    Spherical Harmonics?: true
    Max angular momentum: 3

  ==> Pre-Iterations <==

   -------------------------------------------------------
    Irrep   Nso     Nmo     Nalpha   Nbeta   Ndocc  Nsocc
   -------------------------------------------------------
     A        782     782       0       0       0       0
   -------------------------------------------------------
    Total     782     782      33      33      33       0
   -------------------------------------------------------

  ==> Integral Setup <==

  ==> DFJK: Density-Fitted J/K Matrices <==

    J tasked:                  Yes
    K tasked:                  Yes
    wK tasked:                  No
    OpenMP threads:             32
    Integrals threads:          32
    Memory (MB):             21457
    Algorithm:                Core
    Integral Cache:           NONE
    Schwarz Cutoff:          1E-12
    Fitting Condition:       1E-12

   => Auxiliary Basis Set <=

  Basis Set: 
    Number of shells: 492
    Number of basis function: 1660
    Number of Cartesian functions: 2038
    Spherical Harmonics?: true
    Max angular momentum: 4

  Minimum eigenvalue in the overlap matrix is 1.7988728527E-06.
  Using Symmetric Orthogonalization.
  SCF Guess: Superposition of Atomic Densities via on-the-fly atomic UHF.

  ==> Iterations <==

                           Total Energy        Delta E     RMS |[F,P]|

   @DF-RHF iter   0:  -316.74627812065449   -3.16746e+02   6.89864e-03 
   @DF-RHF iter   1:  -313.26514043492995    3.48114e+00   7.74890e-04 
   @DF-RHF iter   2:  -313.49929904776712   -2.34159e-01   2.99741e-04 DIIS
   @DF-RHF iter   3:  -313.53258038284940   -3.32813e-02   1.04585e-04 DIIS
   @DF-RHF iter   4:  -313.53831804228327   -5.73766e-03   1.56147e-05 DIIS
   @DF-RHF iter   5:  -313.53848826334143   -1.70221e-04   3.97797e-06 DIIS
   @DF-RHF iter   6:  -313.53849877321710   -1.05099e-05   1.15386e-06 DIIS
   @DF-RHF iter   7:  -313.53849957414849   -8.00931e-07   2.78616e-07 DIIS
   @DF-RHF iter   8:  -313.53849962912676   -5.49783e-08   7.63750e-08 DIIS
   @DF-RHF iter   9:  -313.53849963324620   -4.11944e-09   2.22351e-08 DIIS
   @DF-RHF iter  10:  -313.53849963360204   -3.55840e-10   6.38704e-09 DIIS
   @DF-RHF iter  11:  -313.53849963362615   -2.41016e-11   1.62806e-09 DIIS
   @DF-RHF iter  12:  -313.53849963362808   -1.93268e-12   3.68224e-10 DIIS
   @DF-RHF iter  13:  -313.53849963362819   -1.13687e-13   1.11180e-10 DIIS
   @DF-RHF iter  14:  -313.53849963362796    2.27374e-13   3.20821e-11 DIIS

  ==> Post-Iterations <==

    Orbital Energies (a.u.)
    -----------------------

    Doubly Occupied:                                                      

       1A    -11.212547     2A    -11.211381     3A    -11.210039  
       4A    -11.209768     5A    -11.209274     6A    -11.209025  
       7A    -11.205736     8A    -11.205619     9A     -1.089239  
      10A     -1.057169    11A     -1.006847    12A     -0.948320  
      13A     -0.889586    14A     -0.830437    15A     -0.793048  
      16A     -0.753745    17A     -0.641436    18A     -0.632089  
      19A     -0.609353    20A     -0.589253    21A     -0.575492  
      22A     -0.570823    23A     -0.537153    24A     -0.530718  
      25A     -0.522540    26A     -0.499859    27A     -0.494770  
      28A     -0.470978    29A     -0.466494    30A     -0.462140  
      31A     -0.443053    32A     -0.438532    33A     -0.433543  

    Virtual:                                                              

      34A      0.030291    35A      0.033477    36A      0.034616  
      37A      0.035000    38A      0.044642    39A      0.048233  
      40A      0.049285    41A      0.054065    42A      0.055909  
      43A      0.064158    44A      0.067327    45A      0.070956  
      46A      0.073822    47A      0.081344    48A      0.087742  
      49A      0.090488    50A      0.090547    51A      0.103703  
      52A      0.115426    53A      0.116235    54A      0.120109  
      55A      0.123101    56A      0.126138    57A      0.127644  
      58A      0.133810    59A      0.136512    60A      0.136775  
      61A      0.141959    62A      0.146678    63A      0.150805  
      64A      0.155432    65A      0.156552    66A      0.160186  
      67A      0.165250    68A      0.169034    69A      0.171385  
      70A      0.177257    71A      0.181027    72A      0.181494  
      73A      0.188579    74A      0.190761    75A      0.193549  
      76A      0.200773    77A      0.214919    78A      0.223311  
      79A      0.229448    80A      0.233693    81A      0.236918  
      82A      0.241405    83A      0.253883    84A      0.263344  
      85A      0.267030    86A      0.270691    87A      0.275893  
      88A      0.281043    89A      0.287213    90A      0.293157  
      91A      0.297228    92A      0.299534    93A      0.308145  
      94A      0.311329    95A      0.314628    96A      0.318896  
      97A      0.322152    98A      0.329791    99A      0.335114  
     100A      0.340327   101A      0.340615   102A      0.343030  
     103A      0.345382   104A      0.350126   105A      0.356782  
     106A      0.359753   107A      0.362442   108A      0.367043  
     109A      0.370465   110A      0.374024   111A      0.378533  
     112A      0.381051   113A      0.382535   114A      0.385423  
     115A      0.387873   116A      0.392191   117A      0.394715  
     118A      0.398375   119A      0.409313   120A      0.409804  
     121A      0.414753   122A      0.415104   123A      0.424534  
     124A      0.427779   125A      0.429155   126A      0.437112  
     127A      0.437773   128A      0.441723   129A      0.447475  
     130A      0.452850   131A      0.454882   132A      0.458869  
     133A      0.461985   134A      0.468779   135A      0.471010  
     136A      0.473218   137A      0.474320   138A      0.475260  
     139A      0.481353   140A      0.486865   141A      0.489743  
     142A      0.494759   143A      0.502251   144A      0.504599  
     145A      0.508326   146A      0.510043   147A      0.513461  
     148A      0.519293   149A      0.521421   150A      0.522272  
     151A      0.528921   152A      0.536495   153A      0.541357  
     154A      0.543845   155A      0.548892   156A      0.551149  
     157A      0.554174   158A      0.559352   159A      0.563961  
     160A      0.566389   161A      0.570914   162A      0.577027  
     163A      0.583134   164A      0.585915   165A      0.591432  
     166A      0.598305   167A      0.604890   168A      0.607285  
     169A      0.613054   170A      0.616755   171A      0.618665  
     172A      0.628450   173A      0.632056   174A      0.635722  
     175A      0.636917   176A      0.639755   177A      0.649289  
     178A      0.650526   179A      0.654172   180A      0.666292  
     181A      0.668177   182A      0.670518   183A      0.678057  
     184A      0.684822   185A      0.694627   186A      0.696693  
     187A      0.699873   188A      0.703778   189A      0.707692  
     190A      0.715621   191A      0.723552   192A      0.733562  
     193A      0.736196   194A      0.739013   195A      0.745333  
     196A      0.755874   197A      0.766793   198A      0.772910  
     199A      0.774934   200A      0.788267   201A      0.797090  
     202A      0.806618   203A      0.822419   204A      0.824515  
     205A      0.833444   206A      0.837276   207A      0.847619  
     208A      0.849366   209A      0.853171   210A      0.856025  
     211A      0.861750   212A      0.864070   213A      0.868840  
     214A      0.880512   215A      0.883863   216A      0.887670  
     217A      0.891555   218A      0.895150   219A      0.901641  
     220A      0.908334   221A      0.909997   222A      0.913701  
     223A      0.923692   224A      0.927681   225A      0.938650  
     226A      0.941363   227A      0.944535   228A      0.946328  
     229A      0.953590   230A      0.955725   231A      0.962830  
     232A      0.968037   233A      0.976797   234A      0.979843  
     235A      0.981075   236A      0.982326   237A      0.991499  
     238A      0.997123   239A      1.001139   240A      1.003628  
     241A      1.008735   242A      1.010461   243A      1.014553  
     244A      1.022096   245A      1.028508   246A      1.038354  
     247A      1.043324   248A      1.047338   249A      1.054321  
     250A      1.057596   251A      1.063714   252A      1.066302  
     253A      1.072178   254A      1.082823   255A      1.088589  
     256A      1.094082   257A      1.100206   258A      1.104052  
     259A      1.108877   260A      1.110095   261A      1.117004  
     262A      1.123827   263A      1.129659   264A      1.135385  
     265A      1.139160   266A      1.145899   267A      1.148616  
     268A      1.151886   269A      1.155058   270A      1.160243  
     271A      1.168723   272A      1.176414   273A      1.180590  
     274A      1.186102   275A      1.190890   276A      1.198821  
     277A      1.201668   278A      1.206975   279A      1.218010  
     280A      1.220622   281A      1.227986   282A      1.234717  
     283A      1.236168   284A      1.239945   285A      1.244483  
     286A      1.248038   287A      1.252859   288A      1.258036  
     289A      1.262827   290A      1.270147   291A      1.273348  
     292A      1.281888   293A      1.285119   294A      1.288279  
     295A      1.292368   296A      1.305396   297A      1.315670  
     298A      1.318106   299A      1.320791   300A      1.324171  
     301A      1.334866   302A      1.336085   303A      1.342864  
     304A      1.354059   305A      1.361500   306A      1.369616  
     307A      1.376455   308A      1.381325   309A      1.386371  
     310A      1.388941   311A      1.395275   312A      1.407485  
     313A      1.413586   314A      1.424600   315A      1.427683  
     316A      1.434643   317A      1.441860   318A      1.451164  
     319A      1.460755   320A      1.466461   321A      1.472999  
     322A      1.483594   323A      1.488871   324A      1.496615  
     325A      1.503069   326A      1.511078   327A      1.519887  
     328A      1.530440   329A      1.544574   330A      1.546571  
     331A      1.555396   332A      1.555979   333A      1.566520  
     334A      1.577019   335A      1.581064   336A      1.587157  
     337A      1.596260   338A      1.599323   339A      1.602272  
     340A      1.611202   341A      1.621310   342A      1.621892  
     343A      1.637634   344A      1.644051   345A      1.648943  
     346A      1.655480   347A      1.665721   348A      1.671632  
     349A      1.677872   350A      1.679314   351A      1.683461  
     352A      1.694912   353A      1.696060   354A      1.707108  
     355A      1.708937   356A      1.717987   357A      1.723937  
     358A      1.729523   359A      1.732876   360A      1.746584  
     361A      1.748528   362A      1.753834   363A      1.756954  
     364A      1.759259   365A      1.770009   366A      1.771998  
     367A      1.783036   368A      1.789267   369A      1.790920  
     370A      1.797418   371A      1.801167   372A      1.810345  
     373A      1.814799   374A      1.820537   375A      1.822941  
     376A      1.829179   377A      1.838631   378A      1.843003  
     379A      1.846093   380A      1.852683   381A      1.867774  
     382A      1.875609   383A      1.881489   384A      1.884422  
     385A      1.889114   386A      1.894894   387A      1.901347  
     388A      1.911402   389A      1.915250   390A      1.927234  
     391A      1.929743   392A      1.932268   393A      1.946772  
     394A      1.951638   395A      1.964280   396A      1.966442  
     397A      1.974500   398A      1.984071   399A      1.992698  
     400A      1.994485   401A      2.001563   402A      2.011898  
     403A      2.016920   404A      2.021332   405A      2.025500  
     406A      2.034427   407A      2.036702   408A      2.050721  
     409A      2.058138   410A      2.061740   411A      2.070278  
     412A      2.073732   413A      2.080537   414A      2.099620  
     415A      2.102524   416A      2.105136   417A      2.113439  
     418A      2.119747   419A      2.126070   420A      2.131919  
     421A      2.142325   422A      2.148533   423A      2.157042  
     424A      2.174227   425A      2.179894   426A      2.185212  
     427A      2.199599   428A      2.205288   429A      2.211831  
     430A      2.217184   431A      2.232535   432A      2.243838  
     433A      2.249787   434A      2.258566   435A      2.262963  
     436A      2.270559   437A      2.280261   438A      2.291608  
     439A      2.295356   440A      2.301437   441A      2.316925  
     442A      2.318797   443A      2.331529   444A      2.334521  
     445A      2.347895   446A      2.351513   447A      2.362045  
     448A      2.366170   449A      2.380754   450A      2.392628  
     451A      2.398225   452A      2.419168   453A      2.422178  
     454A      2.430662   455A      2.439857   456A      2.447725  
     457A      2.459603   458A      2.467986   459A      2.474769  
     460A      2.482387   461A      2.497280   462A      2.505754  
     463A      2.522630   464A      2.533188   465A      2.544912  
     466A      2.563372   467A      2.567604   468A      2.584793  
     469A      2.586436   470A      2.595709   471A      2.614319  
     472A      2.616284   473A      2.642164   474A      2.654811  
     475A      2.667482   476A      2.691240   477A      2.708392  
     478A      2.711789   479A      2.721996   480A      2.741361  
     481A      2.767753   482A      2.772903   483A      2.819932  
     484A      2.861568   485A      2.894473   486A      2.935598  
     487A      2.966571   488A      3.008431   489A      3.041927  
     490A      3.103949   491A      3.158806   492A      3.215593  
     493A      3.283099   494A      3.307911   495A      3.338664  
     496A      3.375907   497A      3.418395   498A      3.433910  
     499A      3.451468   500A      3.453618   501A      3.471757  
     502A      3.499717   503A      3.505063   504A      3.508149  
     505A      3.524746   506A      3.542593   507A      3.546322  
     508A      3.551800   509A      3.573465   510A      3.584525  
     511A      3.599947   512A      3.603435   513A      3.623479  
     514A      3.630883   515A      3.636589   516A      3.651035  
     517A      3.666901   518A      3.675672   519A      3.682148  
     520A      3.687512   521A      3.698372   522A      3.704376  
     523A      3.712027   524A      3.721169   525A      3.722836  
     526A      3.741842   527A      3.747875   528A      3.757193  
     529A      3.766213   530A      3.780384   531A      3.785981  
     532A      3.797480   533A      3.805351   534A      3.813228  
     535A      3.816657   536A      3.829198   537A      3.830217  
     538A      3.836228   539A      3.838948   540A      3.863377  
     541A      3.871230   542A      3.878170   543A      3.881330  
     544A      3.897891   545A      3.909499   546A      3.911482  
     547A      3.920871   548A      3.928680   549A      3.932479  
     550A      3.934258   551A      3.944241   552A      3.954311  
     553A      3.962073   554A      3.971061   555A      3.977571  
     556A      3.982014   557A      3.988092   558A      4.005444  
     559A      4.011110   560A      4.019011   561A      4.022134  
     562A      4.037768   563A      4.040459   564A      4.042740  
     565A      4.049948   566A      4.052960   567A      4.059654  
     568A      4.076257   569A      4.086458   570A      4.088155  
     571A      4.095635   572A      4.104200   573A      4.116105  
     574A      4.123860   575A      4.128577   576A      4.136922  
     577A      4.145689   578A      4.155662   579A      4.167737  
     580A      4.171133   581A      4.185035   582A      4.187928  
     583A      4.203692   584A      4.208638   585A      4.218882  
     586A      4.237617   587A      4.247811   588A      4.253706  
     589A      4.256223   590A      4.265563   591A      4.275945  
     592A      4.293148   593A      4.297106   594A      4.309024  
     595A      4.310212   596A      4.317226   597A      4.331636  
     598A      4.340816   599A      4.347297   600A      4.367930  
     601A      4.380993   602A      4.389309   603A      4.396791  
     604A      4.398712   605A      4.402066   606A      4.410286  
     607A      4.430116   608A      4.458324   609A      4.465614  
     610A      4.477921   611A      4.493566   612A      4.504493  
     613A      4.521980   614A      4.532347   615A      4.542785  
     616A      4.564888   617A      4.580134   618A      4.589623  
     619A      4.593545   620A      4.611105   621A      4.636243  
     622A      4.644616   623A      4.656271   624A      4.662134  
     625A      4.672117   626A      4.689038   627A      4.695419  
     628A      4.707009   629A      4.721983   630A      4.734222  
     631A      4.739306   632A      4.750337   633A      4.762720  
     634A      4.777252   635A      4.784334   636A      4.791574  
     637A      4.795228   638A      4.819377   639A      4.833338  
     640A      4.848015   641A      4.855041   642A      4.859920  
     643A      4.866854   644A      4.878425   645A      4.886304  
     646A      4.900514   647A      4.908573   648A      4.910106  
     649A      4.922729   650A      4.944687   651A      4.949259  
     652A      4.956251   653A      4.962826   654A      4.971537  
     655A      4.995928   656A      5.008932   657A      5.025963  
     658A      5.032718   659A      5.052045   660A      5.065584  
     661A      5.073786   662A      5.084820   663A      5.096995  
     664A      5.109746   665A      5.112960   666A      5.135625  
     667A      5.138361   668A      5.163177   669A      5.171124  
     670A      5.179191   671A      5.195766   672A      5.209769  
     673A      5.217468   674A      5.221662   675A      5.228959  
     676A      5.242995   677A      5.254474   678A      5.269136  
     679A      5.289100   680A      5.293758   681A      5.300880  
     682A      5.315064   683A      5.322232   684A      5.333027  
     685A      5.336408   686A      5.354888   687A      5.367287  
     688A      5.375356   689A      5.395265   690A      5.404622  
     691A      5.410114   692A      5.419651   693A      5.430441  
     694A      5.441167   695A      5.457675   696A      5.468114  
     697A      5.475444   698A      5.480618   699A      5.486361  
     700A      5.493871   701A      5.497481   702A      5.521644  
     703A      5.529688   704A      5.549149   705A      5.567847  
     706A      5.593412   707A      5.605335   708A      5.623282  
     709A      5.625463   710A      5.636627   711A      5.648965  
     712A      5.669507   713A      5.672774   714A      5.679543  
     715A      5.697763   716A      5.702791   717A      5.716602  
     718A      5.723076   719A      5.731737   720A      5.743096  
     721A      5.760207   722A      5.760918   723A      5.779102  
     724A      5.783759   725A      5.808204   726A      5.833037  
     727A      5.850095   728A      5.862364   729A      5.871628  
     730A      5.875633   731A      5.904955   732A      5.936772  
     733A      5.971280   734A      5.976858   735A      6.008057  
     736A      6.053964   737A      6.067809   738A      6.074176  
     739A      6.093684   740A      6.141463   741A      6.147728  
     742A      6.170925   743A      6.198126   744A      6.215495  
     745A      6.234862   746A      6.237951   747A      6.251351  
     748A      6.253573   749A      6.283700   750A      6.304319  
     751A      6.316506   752A      6.322838   753A      6.344225  
     754A      6.361484   755A      6.384288   756A      6.421044  
     757A      6.447156   758A      6.482701   759A      6.560503  
     760A      6.586469   761A      6.622918   762A      6.660115  
     763A      6.698394   764A      6.731489   765A      6.802433  
     766A      6.811500   767A      6.879517   768A      6.896308  
     769A      6.939721   770A      6.967004   771A      7.043925  
     772A      7.069581   773A      7.085366   774A      7.119239  
     775A     17.937071   776A     18.093276   777A     18.229397  
     778A     18.385879   779A     18.657748   780A     19.132260  
     781A     19.499553   782A     19.635848  

    Final Occupation by Irrep:
              A 
    DOCC [    33 ]

  Energy converged.

  @DF-RHF Final Energy:  -313.53849963362796

   => Energetics <=

    Nuclear Repulsion Energy =            392.5153609047103487
    One-Electron Energy =               -1200.1877094979677167
    Two-Electron Energy =                 494.1338489596293471
    DFT Exchange-Correlation Energy =       0.0000000000000000
    Empirical Dispersion Energy =           0.0000000000000000
    PCM Polarization Energy =               0.0000000000000000
    EFP Energy =                            0.0000000000000000
    Total Energy =                       -313.5384996336279642


  Saving occupied orbitals to File 180.

*** tstop() called on wr42 at Thu Sep 22 20:31:10 2016
Module time:
	user time   =    1263.83 seconds =      21.06 minutes
	system time =      20.97 seconds =       0.35 minutes
	total time  =         51 seconds =       0.85 minutes
Total time:
	user time   =    1263.83 seconds =      21.06 minutes
	system time =      20.97 seconds =       0.35 minutes
	total time  =         51 seconds =       0.85 minutes


Properties will be evaluated at   0.000000,   0.000000,   0.000000 Bohr

Properties computed using the SCF density matrix

  Nuclear Dipole Moment: (a.u.)
     X:    -0.1692      Y:    -0.4521      Z:    -0.9307

  Electronic Dipole Moment: (a.u.)
     X:     0.1757      Y:     0.4577      Z:     0.9699

  Dipole Moment: (a.u.)
     X:     0.0065      Y:     0.0056      Z:     0.0391     Total:     0.0400

  Dipole Moment: (Debye)
     X:     0.0166      Y:     0.0142      Z:     0.0994     Total:     0.1018


  //>>>>>>>>>>>>>>>>>>>>>>>>>>>>>>>>>>>//
  //               DFMP2               //
  //<<<<<<<<<<<<<<<<<<<<<<<<<<<<<<<<<<<//


*** tstart() called on wr42
*** at Thu Sep 22 20:31:10 2016


*** tstop() called on wr42 at Thu Sep 22 20:31:10 2016
Module time:
	user time   =       5.88 seconds =       0.10 minutes
	system time =       0.24 seconds =       0.00 minutes
	total time  =          0 seconds =       0.00 minutes
Total time:
	user time   =    1273.69 seconds =      21.23 minutes
	system time =      21.43 seconds =       0.36 minutes
	total time  =         51 seconds =       0.85 minutes
	 --------------------------------------------------------
	                          DF-MP2                         
	      2nd-Order Density-Fitted Moller-Plesset Theory     
	              RMP2 Wavefunction,  32 Threads             
	                                                         
	        Rob Parrish, Justin Turney, Andy Simmonett,      
	           Ed Hohenstein, and C. David Sherrill          
	 --------------------------------------------------------

   => Auxiliary Basis Set <=

  Basis Set: 
    Number of shells: 476
    Number of basis function: 1676
    Number of Cartesian functions: 2078
    Spherical Harmonics?: true
    Max angular momentum: 4

	 --------------------------------------------------------
	                 NBF =   782, NAUX =  1676
	 --------------------------------------------------------
	   CLASS    FOCC     OCC    AOCC    AVIR     VIR    FVIR
	   PAIRS       8      33      25     749     749       0
	 --------------------------------------------------------

DGAS Warning! /src/lib/libfock/apps.cc:80 is not currently checking restricted

         ------------------------------------------------------------
                                     CPHF                           
                                  Rob Parrish                       
         ------------------------------------------------------------

  ==> Geometry <==

    Molecular point group: c1
    Full point group: C1

    Geometry (in Angstrom), charge = 0, multiplicity = 1:

       Center              X                  Y                   Z               Mass       
    ------------   -----------------  -----------------  -----------------  -----------------
           C          3.316196998057    -0.252362671128     0.307110680554    12.000000000000
           H          3.104843401539     0.783407785663     0.062713662557     1.007825032070
           H          3.141386115349    -0.846796522098    -0.585537618986     1.007825032070
           H          4.373145349525    -0.320295644579     0.546440349270     1.007825032070
           C         -3.542826783043    -0.318703926049    -1.485357793435    12.000000000000
           H         -3.526003358176    -0.028043847931    -2.532002585653     1.007825032070
           H         -4.536588099882    -0.111165674517    -1.100412575826     1.007825032070
           H         -3.388721091437    -1.393244151998    -1.439677712807     1.007825032070
           C          2.464840208398    -0.747483622482     1.476944951059    12.000000000000
           H          2.661760957565    -0.127695253709     2.349411364805     1.007825032070
           H          2.786741792703    -1.752143260970     1.741315028490     1.007825032070
           C         -2.472280155650     0.426303452143    -0.687750881763    12.000000000000
           H         -2.670793356968     1.495476891648    -0.729596924357     1.007825032070
           H         -2.549909205941     0.141960094338     0.357807619285     1.007825032070
           C          0.952463530762    -0.778447209523     1.218540022823    12.000000000000
           H          0.483123353168    -1.237777642303     2.084407424329     1.007825032070
           H          0.750317094422    -1.446737995654     0.385068882254     1.007825032070
           C          0.303604352916     0.600286870774     0.966980084387    12.000000000000
           H          0.934237523328     1.371639397439     1.403510667225     1.007825032070
           H         -0.635928622663     0.658299962040     1.507486132069     1.007825032070
           C          0.050280179432     0.956119699790    -0.506991644295    12.000000000000
           H         -0.201142802518     2.013303513101    -0.569251308543     1.007825032070
           H          0.971235806648     0.833343891730    -1.069716603764     1.007825032070
           C         -1.057120576826     0.154794210676    -1.206092094805    12.000000000000
           H         -1.028107203484     0.395014274371    -2.267186548854     1.007825032070
           H         -0.850078433826    -0.910853394710    -1.137610211668     1.007825032070

  Nuclear repulsion =  392.515360904710349
  Reference energy  = -313.538499633627964

  ==> Basis Set <==

  Basis Set: AUG-CC-PVTZ
    Number of shells: 274
    Number of basis function: 782
    Number of Cartesian functions: 890
    Spherical Harmonics?: true
    Max angular momentum: 3

  ==> CGRSolver (by Rob Parrish) <==

   Number of roots    =         1
   Preconditioning    =    JACOBI
   Convergence cutoff =     1E-06
   Maximum iterations =       100

  ==> CPHFRHamiltonian (by Rob Parrish) <== 

  ==> DFJK: Density-Fitted J/K Matrices <==

    J tasked:                  Yes
    K tasked:                  Yes
    wK tasked:                  No
    OpenMP threads:             32
    Integrals threads:          32
    Memory (MB):             21457
    Algorithm:                Core
    Integral Cache:           NONE
    Schwarz Cutoff:          1E-12
    Fitting Condition:       1E-12

   => Auxiliary Basis Set <=

  Basis Set: 
    Number of shells: 492
    Number of basis function: 1660
    Number of Cartesian functions: 2038
    Spherical Harmonics?: true
    Max angular momentum: 4

  ==> CPHF Iterations <==

  => Iterations <=

             Iter  Converged  Remaining    Residual
  CGR           1          0          1   9.054E-02
  CGR           2          0          1   1.294E-02
  CGR           3          0          1   3.480E-03
  CGR           4          0          1   8.255E-04
  CGR           5          0          1   1.970E-04
  CGR           6          0          1   4.429E-05
  CGR           7          0          1   1.220E-05
  CGR           8          0          1   3.220E-06
  CGR           9          1          0   8.356E-07

    CGRSolver converged.

  ==> DFCorrGrad: Density-Fitted Correlated Gradients <==

    OpenMP threads:             32
    Integrals threads:          32
    Memory (MB):             21457
    Schwarz Cutoff:          0E+00
    Fitting Condition:       1E-12

   => Auxiliary Basis Set <=

  Basis Set: 
    Number of shells: 492
    Number of basis function: 1660
    Number of Cartesian functions: 2038
    Spherical Harmonics?: true
    Max angular momentum: 4

	-----------------------------------------------------------
	 ==================> DF-MP2 Energies <==================== 
	-----------------------------------------------------------
	 Reference Energy          =    -313.5384996336279642 [Eh]
	 Singles Energy            =      -0.0000000000000000 [Eh]
	 Same-Spin Energy          =      -0.3154506235572302 [Eh]
	 Opposite-Spin Energy      =      -1.1244727030545674 [Eh]
	 Correlation Energy        =      -1.4399233266117977 [Eh]
	 Total Energy              =    -314.9784229602397545 [Eh]
	-----------------------------------------------------------
	 ================> DF-SCS-MP2 Energies <================== 
	-----------------------------------------------------------
	 SCS Same-Spin Scale       =       0.3333333333333333 [-]
	 SCS Opposite-Spin Scale   =       1.2000000000000000 [-]
	 SCS Same-Spin Energy      =      -0.1051502078524101 [Eh]
	 SCS Opposite-Spin Energy  =      -1.3493672436654809 [Eh]
	 SCS Correlation Energy    =      -1.4545174515178909 [Eh]
	 SCS Total Energy          =    -314.9930170851458797 [Eh]
	-----------------------------------------------------------


  -Total Gradient:
     Atom            X                  Y                   Z
    ------   -----------------  -----------------  -----------------
       1        0.003617082607     0.001191647867    -0.002947385538
       2        0.001690598398    -0.003343195964     0.000457008748
       3        0.001197331389     0.001906202191     0.002175745172
       4       -0.002672571211     0.000144975527    -0.000866217393
       5       -0.003156262395    -0.001791803835    -0.002060623004
       6       -0.000770920812    -0.001127196161     0.002631454497
       7        0.002448946702    -0.000638852826    -0.001136308188
       8       -0.001103066399     0.002683012249    -0.000426717730
       9        0.002074406955    -0.001746410594     0.005018249285
      10        0.000057269989    -0.002420290818    -0.002622819703
      11       -0.000815541878     0.003218993557    -0.000642577643
      12       -0.002191296358     0.002924102628     0.003603028859
      13       -0.000101792728    -0.003543209440     0.000471588446
      14       -0.000588833490     0.001207608708    -0.003826133939
      15       -0.002645246858    -0.005577738948     0.000229002324
      16        0.001586641338     0.001354882072    -0.002883232161
      17        0.000921137605     0.001848136061     0.004324361866
      18       -0.001555920590     0.004506103933     0.005094211876
      19       -0.003234653412    -0.002395785463    -0.001578744288
      20        0.004286797448     0.000042147813    -0.001391568235
      21        0.002709286812     0.004244657258    -0.002883297014
      22        0.001536407699    -0.003584705123     0.000191364176
      23       -0.004249557365     0.001173807014     0.001520940515
      24        0.001455130485    -0.003563523908    -0.004969347490
      25        0.000362735031    -0.000969862598     0.003609650746
      26       -0.000858108960     0.004256298800    -0.001091634183


			-----------------------------------------
			 OPTKING 2.0: for geometry optimizations 
			  - R.A. King,  Bethel University        
			-----------------------------------------

	Internal coordinates to be generated automatically.
	Detected frag 1 with atoms:  1 2 3 4 5 6 7 8 9 10 11 12 13 14 15 16 17 18 19 20
	 21 22 23 24 25 26
	---Fragment 1 Bond Connectivity---
	 1 : 2 3 4 9
	 2 : 1
	 3 : 1
	 4 : 1
	 5 : 6 7 8 12
	 6 : 5
	 7 : 5
	 8 : 5
	 9 : 1 10 11 15
	 10 : 9
	 11 : 9
	 12 : 5 13 14 24
	 13 : 12
	 14 : 12
	 15 : 9 16 17 18
	 16 : 15
	 17 : 15
	 18 : 15 19 20 21
	 19 : 18
	 20 : 18
	 21 : 18 22 23 24
	 22 : 21
	 23 : 21
	 24 : 12 21 25 26
	 25 : 24
	 26 : 24

	---Fragment 1 Geometry and Gradient---
	 C           6.2667041290       -0.4768963346        0.5803550787
	 H           5.8673037144        1.4804261653        0.1185116470
	 H           5.9363594357       -1.6002135170       -1.1065057404
	 H           8.2640470499       -0.6052710498        1.0326226081
	 C          -6.6949723562       -0.6022631377       -2.8069194389
	 H          -6.6631806906       -0.0529951923       -4.7847914546
	 H          -8.5729090865       -0.2100726802       -2.0794784015
	 H          -6.4037548035       -2.6328498835       -2.7205965968
	 C           4.6578729552       -1.4125393353        2.7910214708
	 H           5.0299992410       -0.2413090580        4.4397440530
	 H           5.2661787913       -3.3110709088        3.2906085149
	 C          -4.6719324179        0.8055967741       -1.2996608142
	 H          -5.0470680022        2.8260417633       -1.3787383744
	 H          -4.8186300630        0.2682657001        0.6761584087
	 C           1.7998952247       -1.4710520349        2.3027069251
	 H           0.9129708259       -2.3390607574        3.9389591813
	 H           1.4178938213       -2.7339385978        0.7276747298
	 C           0.5737290798        1.1343777869        1.8273275354
	 H           1.7654530622        2.5920228142        2.6522507856
	 H          -1.2017309369        1.2440066415        2.8487359387
	 C           0.0950157690        1.8068043829       -0.9580753594
	 H          -0.3801048104        3.8045922621       -1.0757290739
	 H           1.8353696850        1.5747917299       -2.0214714209
	 C          -1.9976683796        0.2925186651       -2.2791837502
	 H          -1.9428410498        0.7464687971       -4.2843616695
	 H          -1.6064154314       -1.7212634632       -2.1497717460
	             0.0036170826        0.0011916479       -0.0029473855
	             0.0016905984       -0.0033431960        0.0004570087
	             0.0011973314        0.0019062022        0.0021757452
	            -0.0026725712        0.0001449755       -0.0008662174
	            -0.0031562624       -0.0017918038       -0.0020606230
	            -0.0007709208       -0.0011271962        0.0026314545
	             0.0024489467       -0.0006388528       -0.0011363082
	            -0.0011030664        0.0026830122       -0.0004267177
	             0.0020744070       -0.0017464106        0.0050182493
	             0.0000572700       -0.0024202908       -0.0026228197
	            -0.0008155419        0.0032189936       -0.0006425776
	            -0.0021912964        0.0029241026        0.0036030289
	            -0.0001017927       -0.0035432094        0.0004715884
	            -0.0005888335        0.0012076087       -0.0038261339
	            -0.0026452469       -0.0055777389        0.0002290023
	             0.0015866413        0.0013548821       -0.0028832322
	             0.0009211376        0.0018481361        0.0043243619
	            -0.0015559206        0.0045061039        0.0050942119
	            -0.0032346534       -0.0023957855       -0.0015787443
	             0.0042867974        0.0000421478       -0.0013915682
	             0.0027092868        0.0042446573       -0.0028832970
	             0.0015364077       -0.0035847051        0.0001913642
	            -0.0042495574        0.0011738070        0.0015209405
	             0.0014551305       -0.0035635239       -0.0049693475
	             0.0003627350       -0.0009698626        0.0036096507
	            -0.0008581090        0.0042562988       -0.0010916342

	Previous optimization step data not found.  Starting new optimization.

	---Fragment 1 Intrafragment Coordinates---
	 - Coordinate -           - BOHR/RAD -       - ANG/DEG -
	 R(1,2)           =         2.050349	       1.084998
	 R(1,3)           =         2.053404	       1.086615
	 R(1,4)           =         2.051927	       1.085833
	 R(1,9)           =         2.889777	       1.529204
	 R(5,6)           =         2.052969	       1.086385
	 R(5,7)           =         2.051738	       1.085733
	 R(5,8)           =         2.053178	       1.086495
	 R(5,12)          =         2.889046	       1.528817
	 R(9,10)          =         2.056343	       1.088170
	 R(9,11)          =         2.055248	       1.087591
	 R(9,15)          =         2.899985	       1.534606
	 R(12,13)         =         2.056497	       1.088251
	 R(12,14)         =         2.052829	       1.086310
	 R(12,24)         =         2.893856	       1.531363
	 R(15,16)         =         2.053630	       1.086734
	 R(15,17)         =         2.054637	       1.087267
	 R(15,18)         =         2.918516	       1.544412
	 R(18,19)         =         2.055586	       1.087769
	 R(18,20)         =         2.051232	       1.085465
	 R(18,21)         =         2.905132	       1.537330
	 R(21,22)         =         2.056876	       1.088452
	 R(21,23)         =         2.052675	       1.086229
	 R(21,24)         =         2.901330	       1.535318
	 R(24,25)         =         2.056651	       1.088333
	 R(24,26)         =         2.055516	       1.087732
	 B(1,9,10)        =         1.905184	     109.159024
	 B(1,9,11)        =         1.896803	     108.678807
	 B(1,9,15)        =         2.011290	     115.238451
	 B(2,1,3)         =         1.881628	     107.809314
	 B(2,1,4)         =         1.874427	     107.396755
	 B(2,1,9)         =         1.952987	     111.897885
	 B(3,1,4)         =         1.879096	     107.664244
	 B(3,1,9)         =         1.940943	     111.207840
	 B(4,1,9)         =         1.931628	     110.674111
	 B(5,12,13)       =         1.908128	     109.327685
	 B(5,12,14)       =         1.901331	     108.938253
	 B(5,12,24)       =         1.965048	     112.588951
	 B(6,5,7)         =         1.880327	     107.734780
	 B(6,5,8)         =         1.878544	     107.632663
	 B(6,5,12)        =         1.940574	     111.186700
	 B(7,5,8)         =         1.879646	     107.695788
	 B(7,5,12)        =         1.942072	     111.272551
	 B(8,5,12)        =         1.939806	     111.142694
	 B(9,15,16)       =         1.875479	     107.457052
	 B(9,15,17)       =         1.901501	     108.948008
	 B(9,15,18)       =         2.008060	     115.053389
	 B(10,9,11)       =         1.852178	     106.121975
	 B(10,9,15)       =         1.901642	     108.956057
	 B(11,9,15)       =         1.890181	     108.299369
	 B(12,24,21)      =         2.004118	     114.827475
	 B(12,24,25)      =         1.891794	     108.391834
	 B(12,24,26)      =         1.905287	     109.164916
	 B(13,12,14)      =         1.855775	     106.328096
	 B(13,12,24)      =         1.906833	     109.253497
	 B(14,12,24)      =         1.923478	     110.207196
	 B(15,18,19)      =         1.900862	     108.911347
	 B(15,18,20)      =         1.907369	     109.284193
	 B(15,18,21)      =         2.017542	     115.596638
	 B(16,15,17)      =         1.844901	     105.705052
	 B(16,15,18)      =         1.902506	     109.005566
	 B(17,15,18)      =         1.923824	     110.226980
	 B(18,21,22)      =         1.894119	     108.525000
	 B(18,21,23)      =         1.907981	     109.319251
	 B(18,21,24)      =         2.020421	     115.761621
	 B(19,18,20)      =         1.838043	     105.312095
	 B(19,18,21)      =         1.892484	     108.431365
	 B(20,18,21)      =         1.899090	     108.809820
	 B(21,24,25)      =         1.885484	     108.030280
	 B(21,24,26)      =         1.923432	     110.204508
	 B(22,21,23)      =         1.850421	     106.021318
	 B(22,21,24)      =         1.890493	     108.317252
	 B(23,21,24)      =         1.892994	     108.460568
	 B(25,24,26)      =         1.846839	     105.816062
	 D(1,9,15,16)     =         3.045507	     174.494699
	 D(1,9,15,17)     =         1.054477	      60.417054
	 D(1,9,15,18)     =        -1.115532	     -63.915266
	 D(2,1,9,10)      =        -1.031252	     -59.086388
	 D(2,1,9,11)      =        -3.044069	    -174.412318
	 D(2,1,9,15)      =         1.114691	      63.867081
	 D(3,1,9,10)      =        -3.136711	    -179.720295
	 D(3,1,9,11)      =         1.133657	      64.953775
	 D(3,1,9,15)      =        -0.990768	     -56.766826
	 D(4,1,9,10)      =         1.058638	      60.655500
	 D(4,1,9,11)      =        -0.954179	     -54.670430
	 D(4,1,9,15)      =        -3.078604	    -176.391031
	 D(5,12,24,21)    =         3.068134	     175.791113
	 D(5,12,24,25)    =         0.958398	      54.912139
	 D(5,12,24,26)    =        -1.045440	     -59.899283
	 D(6,5,12,13)     =         1.077431	      61.732251
	 D(6,5,12,14)     =         3.098626	     177.538185
	 D(6,5,12,24)     =        -1.045371	     -59.895355
	 D(7,5,12,13)     =        -1.018683	     -58.366236
	 D(7,5,12,14)     =         1.002512	      57.439698
	 D(7,5,12,24)     =        -3.141485	    -179.993842
	 D(8,5,12,13)     =        -3.113418	    -178.385684
	 D(8,5,12,14)     =        -1.092223	     -62.579750
	 D(8,5,12,24)     =         1.046966	      59.986710
	 D(9,15,18,19)    =        -0.396637	     -22.725626
	 D(9,15,18,20)    =        -2.396044	    -137.283219
	 D(9,15,18,21)    =         1.738310	      99.597845
	 D(10,9,15,16)    =        -1.089852	     -62.443895
	 D(10,9,15,17)    =        -3.080882	    -176.521540
	 D(10,9,15,18)    =         1.032295	      59.146140
	 D(11,9,15,16)    =         0.917513	      52.569646
	 D(11,9,15,17)    =        -1.073517	     -61.507999
	 D(11,9,15,18)    =         3.039660	     174.159681
	 D(12,24,21,18)   =         1.176882	      67.430350
	 D(12,24,21,22)   =        -0.954136	     -54.667988
	 D(12,24,21,23)   =        -2.955089	    -169.314132
	 D(13,12,24,21)   =         0.944596	      54.121379
	 D(13,12,24,25)   =        -1.165140	     -66.757594
	 D(13,12,24,26)   =         3.114208	     178.430984
	 D(14,12,24,21)   =        -1.088364	     -62.358661
	 D(14,12,24,25)   =         3.085085	     176.762366
	 D(14,12,24,26)   =         1.081248	      61.950944
	 D(15,18,21,22)   =        -2.930678	    -167.915460
	 D(15,18,21,23)   =        -0.919908	     -52.706823
	 D(15,18,21,24)   =         1.223419	      70.096750
	 D(16,15,18,19)   =         1.710791	      98.021109
	 D(16,15,18,20)   =        -0.288616	     -16.536484
	 D(16,15,18,21)   =        -2.437447	    -139.655420
	 D(17,15,18,19)   =        -2.554867	    -146.383071
	 D(17,15,18,20)   =         1.728912	      99.059335
	 D(17,15,18,21)   =        -0.419919	     -24.059601
	 D(18,21,24,25)   =        -2.993109	    -171.492538
	 D(18,21,24,26)   =        -0.983119	     -56.328568
	 D(19,18,21,22)   =        -0.791278	     -45.336908
	 D(19,18,21,23)   =         1.219492	      69.871729
	 D(19,18,21,24)   =        -2.920367	    -167.324698
	 D(20,18,21,22)   =         1.199316	      68.715746
	 D(20,18,21,23)   =        -3.073099	    -176.075617
	 D(20,18,21,24)   =        -0.929773	     -53.272044
	 D(22,21,24,25)   =         1.159058	      66.409124
	 D(22,21,24,26)   =        -3.114137	    -178.426905
	 D(23,21,24,25)   =        -0.841895	     -48.237020
	 D(23,21,24,26)   =         1.168096	      66.926950
	 R(1,21)          =         6.758091	       3.576228

	Current energy   :      -314.9784229602

	Generating empirical Hessian (Schlegel '84) for each fragment.
	Taking RFO optimization step.
	Going to follow RFO solution 1.
	Using RFO vector 1.
	Norm of target step-size    0.36305
	Projected energy change by RFO approximation:        -0.0052427125

	Back-transformation to cartesian coordinates...
	Successfully converged to displaced geometry.

	--- Internal Coordinate Step in ANG or DEG, aJ/ANG or AJ/DEG ---
	 ---------------------------------------------------------------------------
	   Coordinate                Previous        Force       Change         New 
	   ----------                --------       ------       ------       ------
	    1 R(1,2)          =      1.084998     0.029855     0.005378     1.090376
	    2 R(1,3)          =      1.086615     0.024904     0.004510     1.091125
	    3 R(1,4)          =      1.085833     0.023081     0.004169     1.090002
	    4 R(1,9)          =      1.529204    -0.018176    -0.004629     1.524575
	    5 R(5,6)          =      1.086385     0.023470     0.004248     1.090632
	    6 R(5,7)          =      1.085733     0.022792     0.004116     1.089849
	    7 R(5,8)          =      1.086495     0.023298     0.004218     1.090713
	    8 R(5,12)         =      1.528817    -0.022669    -0.004888     1.523930
	    9 R(9,10)         =      1.088170     0.028597     0.005206     1.093376
	   10 R(9,11)         =      1.087591     0.027774     0.005046     1.092637
	   11 R(9,15)         =      1.534606    -0.015175    -0.006302     1.528304
	   12 R(12,13)        =      1.088251     0.028676     0.005222     1.093473
	   13 R(12,14)        =      1.086310     0.032597     0.005898     1.092208
	   14 R(12,24)        =      1.531363    -0.039103    -0.008498     1.522865
	   15 R(15,16)        =      1.086734     0.029290     0.005307     1.092041
	   16 R(15,17)        =      1.087267     0.038081     0.006912     1.094179
	   17 R(15,18)        =      1.544412    -0.024397    -0.007895     1.536517
	   18 R(18,19)        =      1.087769     0.034666     0.006303     1.094072
	   19 R(18,20)        =      1.085465     0.036260     0.006542     1.092007
	   20 R(18,21)        =      1.537330    -0.029955    -0.008069     1.529261
	   21 R(21,22)        =      1.088452     0.031699     0.005776     1.094228
	   22 R(21,23)        =      1.086229     0.037269     0.006741     1.092970
	   23 R(21,24)        =      1.535318    -0.041171    -0.009058     1.526260
	   24 R(24,25)        =      1.088333     0.030679     0.005588     1.093921
	   25 R(24,26)        =      1.087732     0.036266     0.006593     1.094325
	   26 B(1,9,10)       =    109.159024     0.000013     0.062996   109.222019
	   27 B(1,9,11)       =    108.678807    -0.000021     0.416068   109.094876
	   28 B(1,9,15)       =    115.238451     0.000048    -0.821282   114.417169
	   29 B(2,1,3)        =    107.809314     0.000053     0.023095   107.832409
	   30 B(2,1,4)        =    107.396755     0.000051     0.335820   107.732574
	   31 B(2,1,9)        =    111.897885    -0.000089    -0.479672   111.418213
	   32 B(3,1,4)        =    107.664244     0.000045     0.341350   108.005594
	   33 B(3,1,9)        =    111.207840    -0.000067    -0.369520   110.838319
	   34 B(4,1,9)        =    110.674111     0.000016     0.192564   110.866675
	   35 B(5,12,13)      =    109.327685     0.000078     0.392130   109.719815
	   36 B(5,12,14)      =    108.938253     0.000078     0.287471   109.225724
	   37 B(5,12,24)      =    112.588951    -0.000155    -0.510348   112.078604
	   38 B(6,5,7)        =    107.734780     0.000043     0.227206   107.961986
	   39 B(6,5,8)        =    107.632663     0.000055     0.186488   107.819152
	   40 B(6,5,12)       =    111.186700    -0.000073    -0.423482   110.763218
	   41 B(7,5,8)        =    107.695788     0.000040     0.213479   107.909267
	   42 B(7,5,12)       =    111.272551     0.000011     0.233731   111.506282
	   43 B(8,5,12)       =    111.142694    -0.000068    -0.404807   110.737886
	   44 B(9,15,16)      =    107.457052    -0.000035     0.475753   107.932805
	   45 B(9,15,17)      =    108.948008     0.000047     0.119342   109.067349
	   46 B(9,15,18)      =    115.053389     0.000025    -0.867648   114.185741
	   47 B(10,9,11)      =    106.121975     0.000026     0.412459   106.534434
	   48 B(10,9,15)      =    108.956057    -0.000059    -0.341419   108.614637
	   49 B(11,9,15)      =    108.299369    -0.000007     0.365650   108.665019
	   50 B(12,24,21)     =    114.827475    -0.000296    -1.126802   113.700673
	   51 B(12,24,25)     =    108.391834     0.000081     0.523030   108.914864
	   52 B(12,24,26)     =    109.164916     0.000075    -0.295065   108.869851
	   53 B(13,12,14)     =    106.328096    -0.000008     0.379489   106.707584
	   54 B(13,12,24)     =    109.253497     0.000010    -0.235093   109.018403
	   55 B(14,12,24)     =    110.207196     0.000006    -0.262386   109.944810
	   56 B(15,18,19)     =    108.911347     0.000006     0.254683   109.166030
	   57 B(15,18,20)     =    109.284193     0.000047     0.054334   109.338526
	   58 B(15,18,21)     =    115.596638    -0.000119    -1.141808   114.454830
	   59 B(16,15,17)     =    105.705052     0.000028     0.469842   106.174894
	   60 B(16,15,18)     =    109.005566    -0.000007     0.440957   109.446522
	   61 B(17,15,18)     =    110.226980    -0.000057    -0.512279   109.714702
	   62 B(18,21,22)     =    108.525000     0.000155     0.477327   109.002327
	   63 B(18,21,23)     =    109.319251     0.000105     0.025935   109.345186
	   64 B(18,21,24)     =    115.761621    -0.000492    -1.898965   113.862655
	   65 B(19,18,20)     =    105.312095     0.000015     0.679611   105.991705
	   66 B(19,18,21)     =    108.431365     0.000103     0.551857   108.983222
	   67 B(20,18,21)     =    108.809820    -0.000041    -0.243660   108.566160
	   68 B(21,24,25)     =    108.030280     0.000121     0.723493   108.753773
	   69 B(21,24,26)     =    110.204508     0.000063    -0.244987   109.959522
	   70 B(22,21,23)     =    106.021318    -0.000044     0.760699   106.782016
	   71 B(22,21,24)     =    108.317252     0.000136     0.440495   108.757747
	   72 B(23,21,24)     =    108.460568     0.000172     0.390713   108.851280
	   73 B(25,24,26)     =    105.816062    -0.000023     0.563914   106.379976
	   74 D(1,9,15,16)    =    174.494699     0.000002     1.074918   175.569617
	   75 D(1,9,15,17)    =     60.417054    -0.000007     0.213783    60.630837
	   76 D(1,9,15,18)    =    -63.915266    -0.000003     1.419004   -62.496262
	   77 D(2,1,9,10)     =    -59.086388    -0.000001    -0.817611   -59.904000
	   78 D(2,1,9,11)     =   -174.412318    -0.000007    -1.572930  -175.985249
	   79 D(2,1,9,15)     =     63.867081    -0.000009    -1.796618    62.070463
	   80 D(3,1,9,10)     =   -179.720295     0.000008    -0.268522  -179.988816
	   81 D(3,1,9,11)     =     64.953775     0.000002    -1.023841    63.929934
	   82 D(3,1,9,15)     =    -56.766826     0.000000    -1.247528   -58.014354
	   83 D(4,1,9,10)     =     60.655500     0.000003    -0.581811    60.073689
	   84 D(4,1,9,11)     =    -54.670430    -0.000003    -1.337130   -56.007560
	   85 D(4,1,9,15)     =   -176.391031    -0.000005    -1.560818  -177.951848
	   86 D(5,12,24,21)   =    175.791113     0.000009     1.767963   177.559075
	   87 D(5,12,24,25)   =     54.912139     0.000004     1.208472    56.120611
	   88 D(5,12,24,26)   =    -59.899283    -0.000008     0.415544   -59.483739
	   89 D(6,5,12,13)    =     61.732251    -0.000006    -0.210327    61.521923
	   90 D(6,5,12,14)    =    177.538185     0.000012     0.627339   178.165523
	   91 D(6,5,12,24)    =    -59.895355     0.000002     0.154765   -59.740590
	   92 D(7,5,12,13)    =    -58.366236    -0.000009    -0.368686   -58.734923
	   93 D(7,5,12,14)    =     57.439698     0.000009     0.468980    57.908677
	   94 D(7,5,12,24)    =   -179.993842    -0.000000    -0.003594  -179.997436
	   95 D(8,5,12,13)    =   -178.385684    -0.000011    -0.522231  -178.907915
	   96 D(8,5,12,14)    =    -62.579750     0.000006     0.315436   -62.264315
	   97 D(8,5,12,24)    =     59.986710    -0.000003    -0.157138    59.829572
	   98 D(9,15,18,19)   =    -22.725626     0.000011     0.309233   -22.416393
	   99 D(9,15,18,20)   =   -137.283219     0.000001    -0.669641  -137.952860
	  100 D(9,15,18,21)   =     99.597845     0.000024     0.423762   100.021607
	  101 D(10,9,15,16)   =    -62.443895     0.000003     0.319313   -62.124582
	  102 D(10,9,15,17)   =   -176.521540    -0.000006    -0.541822  -177.063362
	  103 D(10,9,15,18)   =     59.146140    -0.000001     0.663398    59.809539
	  104 D(11,9,15,16)   =     52.569646     0.000002     0.820987    53.390633
	  105 D(11,9,15,17)   =    -61.507999    -0.000007    -0.040148   -61.548147
	  106 D(11,9,15,18)   =    174.159681    -0.000003     1.165073   175.324754
	  107 D(12,24,21,18)  =     67.430350    -0.000005    -3.842777    63.587573
	  108 D(12,24,21,22)  =    -54.667988     0.000002    -3.496236   -58.164224
	  109 D(12,24,21,23)  =   -169.314132    -0.000022    -4.836662  -174.150794
	  110 D(13,12,24,21)  =     54.121379     0.000008     1.772228    55.893607
	  111 D(13,12,24,25)  =    -66.757594     0.000004     1.212737   -65.544857
	  112 D(13,12,24,26)  =    178.430984    -0.000009     0.419809   178.850793
	  113 D(14,12,24,21)  =    -62.358661     0.000008     1.600397   -60.758263
	  114 D(14,12,24,25)  =    176.762366     0.000004     1.040907   177.803273
	  115 D(14,12,24,26)  =     61.950944    -0.000009     0.247979    62.198922
	  116 D(15,18,21,22)  =   -167.915460    -0.000018    -5.282443  -173.197904
	  117 D(15,18,21,23)  =    -52.706823     0.000002    -4.096645   -56.803468
	  118 D(15,18,21,24)  =     70.096750    -0.000008    -4.910936    65.185814
	  119 D(16,15,18,19)  =     98.021109     0.000004     0.661520    98.682629
	  120 D(16,15,18,20)  =    -16.536484    -0.000007    -0.317354   -16.853838
	  121 D(16,15,18,21)  =   -139.655420     0.000017     0.776048  -138.879371
	  122 D(17,15,18,19)  =   -146.383071     0.000003     1.191101  -145.191971
	  123 D(17,15,18,20)  =     99.059335    -0.000008     0.212227    99.271562
	  124 D(17,15,18,21)  =    -24.059601     0.000016     1.305629   -22.753971
	  125 D(18,21,24,25)  =   -171.492538    -0.000005    -3.391700  -174.884238
	  126 D(18,21,24,26)  =    -56.328568     0.000011    -2.441841   -58.770409
	  127 D(19,18,21,22)  =    -45.336908    -0.000017    -5.323725   -50.660634
	  128 D(19,18,21,23)  =     69.871729     0.000003    -4.137927    65.733802
	  129 D(19,18,21,24)  =   -167.324698    -0.000007    -4.952218  -172.276916
	  130 D(20,18,21,22)  =     68.715746    -0.000005    -4.359780    64.355966
	  131 D(20,18,21,23)  =   -176.075617     0.000015    -3.173981  -179.249598
	  132 D(20,18,21,24)  =    -53.272044     0.000005    -3.988272   -57.260316
	  133 D(22,21,24,25)  =     66.409124     0.000002    -3.045159    63.363965
	  134 D(22,21,24,26)  =   -178.426905     0.000019    -2.095300  -180.522206
	  135 D(23,21,24,25)  =    -48.237020    -0.000023    -4.385586   -52.622606
	  136 D(23,21,24,26)  =     66.926950    -0.000006    -3.435727    63.491223
	  137 R(1,21)         =      3.576228    -0.029251    -0.078161     3.498067
	 ---------------------------------------------------------------------------

  ==> Convergence Check <==

  Measures of convergence in internal coordinates in au.
  Criteria marked as inactive (o), active & met (*), and active & unmet ( ).
  --------------------------------------------------------------------------------------------- ~
   Step     Total Energy     Delta E     MAX Force     RMS Force      MAX Disp      RMS Disp    ~
  --------------------------------------------------------------------------------------------- ~
    Convergence Criteria             o    1.50e-05 *    1.00e-05 *    6.00e-05 *    4.00e-05 *  ~
  --------------------------------------------------------------------------------------------- ~
      1    -314.97842296   -3.15e+02 o    6.46e-03      1.83e-03      1.48e-01      3.10e-02    ~
  ---------------------------------------------------------------------------------------------

	Writing optimization data to binary file.
	Structure for next step:
	Cartesian Geometry (in Angstrom)
	    C     3.2242659764  -0.2523912929   0.2709397636
	    H     3.0138817750   0.7915408839   0.0367075222
	    H     3.0299883510  -0.8418989491  -0.6264402803
	    H     4.2860857409  -0.3329442922   0.5036529019
	    C    -3.4385624230  -0.4599937130  -1.3637452804
	    H    -3.4839082299  -0.1788764490  -2.4165488525
	    H    -4.4303216649  -0.3177046828  -0.9348645919
	    H    -3.2001774432  -1.5230844254  -1.3121110665
	    C     2.3739537240  -0.7435913899   1.4371390724
	    H     2.5889027872  -0.1360009040   2.3203723529
	    H     2.6649055748  -1.7670829856   1.6854687517
	    C    -2.3886017330   0.3647634741  -0.6290887405
	    H    -2.6537750327   1.4246197128  -0.6745964309
	    H    -2.3870561492   0.0865445280   0.4270886043
	    C     0.8680664239  -0.7123435686   1.1782204207
	    H     0.3690635516  -1.1563792176   2.0421545249
	    H     0.6381942527  -1.3603875315   0.3270884611
	    C     0.3015539021   0.6936632613   0.9270375531
	    H     0.9773043079   1.4361511151   1.3618551358
	    H    -0.6463088451   0.8018563152   1.4583854539
	    C     0.0745303851   1.0306491994  -0.5472551117
	    H    -0.2112007195   2.0834936071  -0.6321741144
	    H     1.0135074281   0.9133839581  -1.0942049225
	    C    -0.9970687906   0.1756298543  -1.2181399641
	    H    -1.0267128426   0.4211057444  -2.2837506620
	    H    -0.7258333336  -0.8825230260  -1.1526381367
			--------------------------
			 OPTKING Finished Execution 
			--------------------------

    Structure for next step:
    Molecular point group: c1
    Full point group: C1

    Geometry (in Angstrom), charge = 0, multiplicity = 1:

    C            3.223979019520    -0.257772643757     0.273662806837
    H            3.013594818067     0.786159532950     0.039430565446
    H            3.029701394130    -0.847280300017    -0.623717237071
    H            4.285798783979    -0.338325643085     0.506375945128
    C           -3.438849379858    -0.465375063945    -1.361022237150
    H           -3.484195186765    -0.184257799865    -2.413825809267
    H           -4.430608621776    -0.323086033688    -0.932141548656
    H           -3.200464400112    -1.528465776351    -1.309388023337
    C            2.373666767086    -0.748972740783     1.439862115641
    H            2.588615830326    -0.141382254895     2.323095396088
    H            2.664618617937    -1.772464336504     1.688191794908
    C           -2.388888689918     0.359382123167    -0.626365697296
    H           -2.654061989632     1.419238361853    -0.671873387715
    H           -2.387343106072     0.081163177115     0.429811647516
    C            0.867779467042    -0.717724919506     1.180943463882
    H            0.368776594726    -1.161760568473     2.044877568139
    H            0.637907295776    -1.365768882416     0.329811504288
    C            0.301266945251     0.688281910350     0.929760596271
    H            0.977017351002     1.430769764243     1.364578178983
    H           -0.646595801981     0.796474964336     1.461108497063
    C            0.074243428224     1.025267848493    -0.544532068532
    H           -0.211487676349     2.078112256162    -0.629451071175
    H            1.013220471239     0.908002607209    -1.091481879308
    C           -0.997355747530     0.170248503367    -1.215416920859
    H           -1.026999799485     0.415724393467    -2.281027618778
    H           -0.726120290535    -0.887904376892    -1.149915093448

gradient() will perform analytic gradient computation.
    SCF Algorithm Type (re)set to DF.

*** tstart() called on wr42
*** at Thu Sep 22 20:33:57 2016


         ---------------------------------------------------------
                                   SCF
            by Justin Turney, Rob Parrish, and Andy Simmonett
                              RHF Reference
                       32 Threads,  30000 MiB Core
         ---------------------------------------------------------

  ==> Geometry <==

    Molecular point group: c1
    Full point group: C1

    Geometry (in Angstrom), charge = 0, multiplicity = 1:

       Center              X                  Y                   Z               Mass       
    ------------   -----------------  -----------------  -----------------  -----------------
           C          3.223979019520    -0.257772643757     0.273662806837    12.000000000000
           H          3.013594818067     0.786159532950     0.039430565446     1.007825032070
           H          3.029701394130    -0.847280300017    -0.623717237071     1.007825032070
           H          4.285798783979    -0.338325643085     0.506375945128     1.007825032070
           C         -3.438849379858    -0.465375063945    -1.361022237150    12.000000000000
           H         -3.484195186765    -0.184257799865    -2.413825809267     1.007825032070
           H         -4.430608621776    -0.323086033688    -0.932141548656     1.007825032070
           H         -3.200464400112    -1.528465776351    -1.309388023337     1.007825032070
           C          2.373666767086    -0.748972740783     1.439862115641    12.000000000000
           H          2.588615830326    -0.141382254895     2.323095396088     1.007825032070
           H          2.664618617937    -1.772464336504     1.688191794908     1.007825032070
           C         -2.388888689918     0.359382123167    -0.626365697296    12.000000000000
           H         -2.654061989632     1.419238361853    -0.671873387715     1.007825032070
           H         -2.387343106072     0.081163177115     0.429811647516     1.007825032070
           C          0.867779467042    -0.717724919506     1.180943463882    12.000000000000
           H          0.368776594726    -1.161760568473     2.044877568139     1.007825032070
           H          0.637907295776    -1.365768882416     0.329811504288     1.007825032070
           C          0.301266945251     0.688281910350     0.929760596271    12.000000000000
           H          0.977017351002     1.430769764243     1.364578178983     1.007825032070
           H         -0.646595801981     0.796474964336     1.461108497063     1.007825032070
           C          0.074243428224     1.025267848493    -0.544532068532    12.000000000000
           H         -0.211487676349     2.078112256162    -0.629451071175     1.007825032070
           H          1.013220471239     0.908002607209    -1.091481879308     1.007825032070
           C         -0.997355747530     0.170248503367    -1.215416920859    12.000000000000
           H         -1.026999799485     0.415724393467    -2.281027618778     1.007825032070
           H         -0.726120290535    -0.887904376892    -1.149915093448     1.007825032070

  Running in c1 symmetry.

  Rotational constants: A =      0.14464  B =      0.02554  C =      0.02474 [cm^-1]
  Rotational constants: A =   4336.16644  B =    765.67420  C =    741.74120 [MHz]
  Nuclear repulsion =  397.144265962611087

  Charge       = 0
  Multiplicity = 1
  Electrons    = 66
  Nalpha       = 33
  Nbeta        = 33

  ==> Algorithm <==

  SCF Algorithm Type is DF.
  DIIS enabled.
  MOM disabled.
  Fractional occupation disabled.
  Guess Type is READ.
  Energy threshold   = 1.00e-10
  Density threshold  = 1.00e-10
  Integral threshold = 0.00e+00

  ==> Primary Basis <==

  Basis Set: AUG-CC-PVTZ
    Number of shells: 274
    Number of basis function: 782
    Number of Cartesian functions: 890
    Spherical Harmonics?: true
    Max angular momentum: 3

  ==> Pre-Iterations <==

   -------------------------------------------------------
    Irrep   Nso     Nmo     Nalpha   Nbeta   Ndocc  Nsocc
   -------------------------------------------------------
     A        782     782       0       0       0       0
   -------------------------------------------------------
    Total     782     782      33      33      33       0
   -------------------------------------------------------

  ==> Integral Setup <==

  ==> DFJK: Density-Fitted J/K Matrices <==

    J tasked:                  Yes
    K tasked:                  Yes
    wK tasked:                  No
    OpenMP threads:             32
    Integrals threads:          32
    Memory (MB):             21457
    Algorithm:                Core
    Integral Cache:           NONE
    Schwarz Cutoff:          1E-12
    Fitting Condition:       1E-12

   => Auxiliary Basis Set <=

  Basis Set: 
    Number of shells: 492
    Number of basis function: 1660
    Number of Cartesian functions: 2038
    Spherical Harmonics?: true
    Max angular momentum: 4

  Minimum eigenvalue in the overlap matrix is 1.4963518266E-06.
  Using Symmetric Orthogonalization.
  SCF Guess: Reading in previously saved MOs, projecting if necessary.

  Using orbitals from previous SCF, no projection.
  Recomputing DOCC and SOCC from number of alpha and beta electrons from previous calculation.
              A 
    DOCC [    33 ]

  ==> Iterations <==

                           Total Energy        Delta E     RMS |[F,P]|

   @DF-RHF iter   0:  -313.47467829962096   -3.13475e+02   2.49299e-04 
   @DF-RHF iter   1:  -313.53524316590057   -6.05649e-02   4.52921e-05 
   @DF-RHF iter   2:  -313.53641137995095   -1.16821e-03   1.66373e-05 DIIS
   @DF-RHF iter   3:  -313.53655994462048   -1.48565e-04   7.09649e-06 DIIS
   @DF-RHF iter   4:  -313.53658475869844   -2.48141e-05   8.74040e-07 DIIS
   @DF-RHF iter   5:  -313.53658536671543   -6.08017e-07   2.45349e-07 DIIS
   @DF-RHF iter   6:  -313.53658540714156   -4.04261e-08   7.69503e-08 DIIS
   @DF-RHF iter   7:  -313.53658541038709   -3.24553e-09   1.79864e-08 DIIS
   @DF-RHF iter   8:  -313.53658541060116   -2.14072e-10   4.55787e-09 DIIS
   @DF-RHF iter   9:  -313.53658541061310   -1.19371e-11   1.32092e-09 DIIS
   @DF-RHF iter  10:  -313.53658541061549   -2.38742e-12   3.49217e-10 DIIS
   @DF-RHF iter  11:  -313.53658541061435    1.13687e-12   9.23903e-11 DIIS

  ==> Post-Iterations <==

    Orbital Energies (a.u.)
    -----------------------

    Doubly Occupied:                                                      

       1A    -11.212958     2A    -11.211491     3A    -11.210043  
       4A    -11.209766     5A    -11.209122     6A    -11.208914  
       7A    -11.207060     8A    -11.206807     9A     -1.094560  
      10A     -1.058929    11A     -1.006910    12A     -0.946934  
      13A     -0.888355    14A     -0.828943    15A     -0.791745  
      16A     -0.749417    17A     -0.645005    18A     -0.635274  
      19A     -0.609796    20A     -0.589375    21A     -0.575737  
      22A     -0.571161    23A     -0.535792    24A     -0.530095  
      25A     -0.520927    26A     -0.499947    27A     -0.494647  
      28A     -0.471762    29A     -0.465891    30A     -0.460251  
      31A     -0.443095    32A     -0.438240    33A     -0.432178  

    Virtual:                                                              

      34A      0.030033    35A      0.033353    36A      0.034361  
      37A      0.034838    38A      0.044987    39A      0.048462  
      40A      0.049649    41A      0.053967    42A      0.055631  
      43A      0.064576    44A      0.067674    45A      0.071520  
      46A      0.074022    47A      0.080217    48A      0.088221  
      49A      0.089029    50A      0.091728    51A      0.103472  
      52A      0.114720    53A      0.115688    54A      0.120654  
      55A      0.125420    56A      0.125894    57A      0.127236  
      58A      0.134006    59A      0.136850    60A      0.137356  
      61A      0.142250    62A      0.146696    63A      0.151024  
      64A      0.154387    65A      0.156289    66A      0.160943  
      67A      0.164882    68A      0.169271    69A      0.172433  
      70A      0.177760    71A      0.180551    72A      0.182637  
      73A      0.187269    74A      0.189787    75A      0.192390  
      76A      0.202294    77A      0.215921    78A      0.221951  
      79A      0.229571    80A      0.233799    81A      0.238794  
      82A      0.240460    83A      0.253835    84A      0.262543  
      85A      0.267918    86A      0.272560    87A      0.277964  
      88A      0.281381    89A      0.288583    90A      0.292880  
      91A      0.298159    92A      0.301771    93A      0.307368  
      94A      0.310435    95A      0.315744    96A      0.320823  
      97A      0.323368    98A      0.332017    99A      0.334863  
     100A      0.338427   101A      0.339998   102A      0.343724  
     103A      0.346067   104A      0.353613   105A      0.356533  
     106A      0.359279   107A      0.363530   108A      0.367475  
     109A      0.371147   110A      0.374950   111A      0.376854  
     112A      0.380941   113A      0.383143   114A      0.385144  
     115A      0.388933   116A      0.394126   117A      0.395936  
     118A      0.402757   119A      0.411042   120A      0.412759  
     121A      0.417658   122A      0.419625   123A      0.427207  
     124A      0.428263   125A      0.431522   126A      0.435645  
     127A      0.441741   128A      0.445121   129A      0.452533  
     130A      0.453445   131A      0.457324   132A      0.459399  
     133A      0.463008   134A      0.469557   135A      0.471443  
     136A      0.475418   137A      0.476966   138A      0.477721  
     139A      0.485632   140A      0.486954   141A      0.491907  
     142A      0.498123   143A      0.503507   144A      0.506383  
     145A      0.511110   146A      0.513056   147A      0.514499  
     148A      0.519632   149A      0.525761   150A      0.526371  
     151A      0.533400   152A      0.543577   153A      0.546436  
     154A      0.548244   155A      0.550315   156A      0.553015  
     157A      0.559698   158A      0.560481   159A      0.563141  
     160A      0.568770   161A      0.577848   162A      0.581739  
     163A      0.584919   164A      0.589228   165A      0.594575  
     166A      0.602540   167A      0.606876   168A      0.609100  
     169A      0.615761   170A      0.616916   171A      0.625223  
     172A      0.631662   173A      0.632308   174A      0.638270  
     175A      0.642761   176A      0.648806   177A      0.653869  
     178A      0.655028   179A      0.660307   180A      0.667510  
     181A      0.673516   182A      0.678093   183A      0.683322  
     184A      0.690058   185A      0.694663   186A      0.696786  
     187A      0.700304   188A      0.706194   189A      0.708698  
     190A      0.716894   191A      0.727479   192A      0.733186  
     193A      0.738518   194A      0.743020   195A      0.747427  
     196A      0.757172   197A      0.773346   198A      0.774464  
     199A      0.778752   200A      0.791303   201A      0.801451  
     202A      0.811821   203A      0.821224   204A      0.824752  
     205A      0.836326   206A      0.840737   207A      0.847932  
     208A      0.849794   209A      0.854076   210A      0.857601  
     211A      0.863691   212A      0.868999   213A      0.872723  
     214A      0.880296   215A      0.889407   216A      0.891628  
     217A      0.897027   218A      0.899722   219A      0.906481  
     220A      0.911146   221A      0.914244   222A      0.917911  
     223A      0.924173   224A      0.935477   225A      0.936563  
     226A      0.943456   227A      0.949670   228A      0.955673  
     229A      0.957199   230A      0.960976   231A      0.966963  
     232A      0.973099   233A      0.976953   234A      0.977914  
     235A      0.983817   236A      0.991420   237A      0.992617  
     238A      1.000597   239A      1.006358   240A      1.009023  
     241A      1.012026   242A      1.015760   243A      1.016815  
     244A      1.030690   245A      1.033462   246A      1.038132  
     247A      1.048209   248A      1.049435   249A      1.056891  
     250A      1.064754   251A      1.068105   252A      1.075595  
     253A      1.080115   254A      1.085297   255A      1.088358  
     256A      1.101262   257A      1.103801   258A      1.108473  
     259A      1.109814   260A      1.113613   261A      1.116806  
     262A      1.124938   263A      1.133856   264A      1.138722  
     265A      1.142915   266A      1.146863   267A      1.150432  
     268A      1.154102   269A      1.155342   270A      1.167300  
     271A      1.174861   272A      1.182567   273A      1.184006  
[...]
	   21 R(21,22)        =      1.094273     0.000000     0.000000     1.094273
	   22 R(21,23)        =      1.092549     0.000003     0.000001     1.092550
	   23 R(21,24)        =      1.527619     0.000002     0.000001     1.527619
	   24 R(24,25)        =      1.094249     0.000002     0.000000     1.094249
	   25 R(24,26)        =      1.093238     0.000006     0.000000     1.093239
	   26 B(1,9,10)       =    109.827506    -0.000000    -0.000352   109.827154
	   27 B(1,9,11)       =    107.911935     0.000000    -0.000121   107.911813
	   28 B(1,9,15)       =    114.881779    -0.000000     0.000360   114.882139
	   29 B(2,1,3)        =    107.701281     0.000000     0.000132   107.701413
	   30 B(2,1,4)        =    107.728976    -0.000000    -0.000119   107.728857
	   31 B(2,1,9)        =    112.313396    -0.000000    -0.000095   112.313301
	   32 B(3,1,4)        =    107.689027     0.000000     0.000162   107.689189
	   33 B(3,1,9)        =    110.375109    -0.000000     0.000075   110.375184
	   34 B(4,1,9)        =    110.853490     0.000000    -0.000142   110.853348
	   35 B(5,12,13)      =    109.864586     0.000000     0.000221   109.864807
	   36 B(5,12,14)      =    109.342776    -0.000000    -0.000246   109.342531
	   37 B(5,12,24)      =    111.955394     0.000000     0.000019   111.955413
	   38 B(6,5,7)        =    107.973918     0.000000     0.000087   107.974005
	   39 B(6,5,8)        =    107.672719     0.000000     0.000032   107.672751
	   40 B(6,5,12)       =    110.783013    -0.000000    -0.000178   110.782834
	   41 B(7,5,8)        =    107.897880    -0.000000    -0.000102   107.897778
	   42 B(7,5,12)       =    111.708627     0.000000     0.000011   111.708638
	   43 B(8,5,12)       =    110.651361     0.000000     0.000152   110.651513
	   44 B(9,15,16)      =    108.691448     0.000000    -0.000098   108.691349
	   45 B(9,15,17)      =    109.389826    -0.000000     0.000086   109.389912
	   46 B(9,15,18)      =    114.927939     0.000000     0.000643   114.928582
	   47 B(10,9,11)      =    106.088781     0.000000     0.000016   106.088796
	   48 B(10,9,15)      =    109.026456     0.000000     0.000141   109.026597
	   49 B(11,9,15)      =    108.731942     0.000000    -0.000069   108.731873
	   50 B(12,24,21)     =    113.774420     0.000000     0.000382   113.774802
	   51 B(12,24,25)     =    108.744713    -0.000000    -0.000103   108.744611
	   52 B(12,24,26)     =    108.879948     0.000000     0.000070   108.880018
	   53 B(13,12,14)     =    106.500651     0.000000    -0.000023   106.500628
	   54 B(13,12,24)     =    109.228131     0.000000     0.000114   109.228245
	   55 B(14,12,24)     =    109.799420    -0.000000    -0.000086   109.799334
	   56 B(15,18,19)     =    108.193975     0.000000     0.000040   108.194016
	   57 B(15,18,20)     =    108.713417    -0.000000    -0.000151   108.713266
	   58 B(15,18,21)     =    115.895124    -0.000000     0.000310   115.895434
	   59 B(16,15,17)     =    105.923352    -0.000000    -0.000161   105.923190
	   60 B(16,15,18)     =    107.216346    -0.000000    -0.000298   107.216048
	   61 B(17,15,18)     =    110.275836    -0.000000    -0.000241   110.275595
	   62 B(18,21,22)     =    108.315028    -0.000000    -0.000202   108.314826
	   63 B(18,21,23)     =    109.647868     0.000000     0.000280   109.648148
	   64 B(18,21,24)     =    114.394957    -0.000000    -0.000210   114.394747
	   65 B(19,18,20)     =    105.978920    -0.000000     0.000048   105.978967
	   66 B(19,18,21)     =    108.583971     0.000000     0.000055   108.584026
	   67 B(20,18,21)     =    109.025708     0.000000    -0.000317   109.025391
	   68 B(21,24,25)     =    108.813783    -0.000000     0.000018   108.813801
	   69 B(21,24,26)     =    110.224263    -0.000000    -0.000319   110.223943
	   70 B(22,21,23)     =    105.972754    -0.000000     0.000142   105.972896
	   71 B(22,21,24)     =    108.544792     0.000000     0.000118   108.544910
	   72 B(23,21,24)     =    109.612898    -0.000000    -0.000105   109.612794
	   73 B(25,24,26)     =    106.111823     0.000000    -0.000076   106.111746
	   74 D(1,9,15,16)    =    150.086258     0.000000     0.002241   150.088499
	   75 D(1,9,15,17)    =     34.865094     0.000000     0.002441    34.867534
	   76 D(1,9,15,18)    =    -89.794507     0.000000     0.002211   -89.792297
	   77 D(2,1,9,10)     =    -60.437725     0.000000     0.000496   -60.437229
	   78 D(2,1,9,11)     =   -175.660477     0.000000     0.000729  -175.659747
	   79 D(2,1,9,15)     =     62.876936     0.000000     0.000669    62.877606
	   80 D(3,1,9,10)     =    179.361944    -0.000000     0.000339   179.362284
	   81 D(3,1,9,11)     =     64.139193     0.000000     0.000573    64.139766
	   82 D(3,1,9,15)     =    -57.323394     0.000000     0.000513   -57.322881
	   83 D(4,1,9,10)     =     60.131024    -0.000000     0.000180    60.131204
	   84 D(4,1,9,11)     =    -55.091727    -0.000000     0.000413   -55.091314
	   85 D(4,1,9,15)     =   -176.554314     0.000000     0.000353  -176.553961
	   86 D(5,12,24,21)   =    175.045318     0.000000     0.002212   175.047530
	   87 D(5,12,24,25)   =     53.603865     0.000000     0.002010    53.605875
	   88 D(5,12,24,26)   =    -61.595757     0.000000     0.002118   -61.593639
	   89 D(6,5,12,13)    =     61.405020     0.000000    -0.001223    61.403798
	   90 D(6,5,12,14)    =    177.949259    -0.000000    -0.001267   177.947992
	   91 D(6,5,12,24)    =    -60.141672    -0.000000    -0.001534   -60.143206
	   92 D(7,5,12,13)    =    -59.016273     0.000000    -0.001219   -59.017492
	   93 D(7,5,12,14)    =     57.527965     0.000000    -0.001263    57.526703
	   94 D(7,5,12,24)    =    179.437034    -0.000000    -0.001530   179.435505
	   95 D(8,5,12,13)    =   -179.251267     0.000000    -0.001200  -179.252467
	   96 D(8,5,12,14)    =    -62.707028     0.000000    -0.001244   -62.708272
	   97 D(8,5,12,24)    =     59.202041    -0.000000    -0.001511    59.200530
	   98 D(9,15,18,19)   =    -58.100170    -0.000000    -0.000164   -58.100334
	   99 D(9,15,18,20)   =   -172.763016    -0.000000    -0.000163  -172.763179
	  100 D(9,15,18,21)   =     64.071989    -0.000000     0.000154    64.072144
	  101 D(10,9,15,16)   =    -86.172687    -0.000000     0.002149   -86.170538
	  102 D(10,9,15,17)   =    158.606148    -0.000000     0.002349   158.608497
	  103 D(10,9,15,18)   =     33.946547    -0.000000     0.002119    33.948666
	  104 D(11,9,15,16)   =     29.071358     0.000000     0.002207    29.073565
	  105 D(11,9,15,17)   =    -86.149806     0.000000     0.002406   -86.147400
	  106 D(11,9,15,18)   =    149.190593     0.000000     0.002176   149.192769
	  107 D(12,24,21,18)  =     58.043971    -0.000000    -0.000630    58.043341
	  108 D(12,24,21,22)  =    -63.025902     0.000000    -0.000318   -63.026220
	  109 D(12,24,21,23)  =   -178.345508    -0.000000    -0.000496  -178.346004
	  110 D(13,12,24,21)  =     53.133182     0.000000     0.001842    53.135024
	  111 D(13,12,24,25)  =    -68.308271    -0.000000     0.001639   -68.306632
	  112 D(13,12,24,26)  =    176.492107    -0.000000     0.001747   176.493855
	  113 D(14,12,24,21)  =    -63.307672     0.000000     0.001853   -63.305820
	  114 D(14,12,24,25)  =    175.250875    -0.000000     0.001650   175.252525
	  115 D(14,12,24,26)  =     60.051253    -0.000000     0.001758    60.053011
	  116 D(15,18,21,22)  =    178.965033    -0.000000    -0.002300   178.962733
	  117 D(15,18,21,23)  =    -65.823347    -0.000000    -0.002092   -65.825439
	  118 D(15,18,21,24)  =     57.768402    -0.000000    -0.002165    57.766237
	  119 D(16,15,18,19)  =     62.829745     0.000000    -0.000095    62.829650
	  120 D(16,15,18,20)  =    -51.833100     0.000000    -0.000094   -51.833194
	  121 D(16,15,18,21)  =   -174.998095     0.000000     0.000223  -174.997872
	  122 D(17,15,18,19)  =    177.706474    -0.000000    -0.000574   177.705900
	  123 D(17,15,18,20)  =     63.043629    -0.000000    -0.000573    63.043056
	  124 D(17,15,18,21)  =    -60.121366    -0.000000    -0.000255   -60.121622
	  125 D(18,21,24,25)  =    179.446982    -0.000000    -0.000494   179.446488
	  126 D(18,21,24,26)  =    -64.579517    -0.000000    -0.000754   -64.580272
	  127 D(19,18,21,22)  =    -59.069740    -0.000000    -0.001988   -59.071728
	  128 D(19,18,21,23)  =     56.141880     0.000000    -0.001780    56.140101
	  129 D(19,18,21,24)  =    179.733629    -0.000000    -0.001852   179.731777
	  130 D(20,18,21,22)  =     55.963876    -0.000000    -0.002070    55.961806
	  131 D(20,18,21,23)  =    171.175497     0.000000    -0.001862   171.173635
	  132 D(20,18,21,24)  =    -65.232755    -0.000000    -0.001935   -65.234689
	  133 D(22,21,24,25)  =     58.377109     0.000000    -0.000182    58.376927
	  134 D(22,21,24,26)  =    174.350610    -0.000000    -0.000442   174.350168
	  135 D(23,21,24,25)  =    -56.942497     0.000000    -0.000360   -56.942857
	  136 D(23,21,24,26)  =     59.031004    -0.000000    -0.000620    59.030384
	  137 R(1,21)         =      3.403803     0.000003    -0.000001     3.403802
	 ---------------------------------------------------------------------------

  ==> Convergence Check <==

  Measures of convergence in internal coordinates in au.
  Criteria marked as inactive (o), active & met (*), and active & unmet ( ).
  ---------------------------------------------------------------------------------------------
   Step     Total Energy     Delta E     MAX Force     RMS Force      MAX Disp      RMS Disp   
  ---------------------------------------------------------------------------------------------
    Convergence Criteria             o    1.50e-05 *    1.00e-05 *    6.00e-05 *    4.00e-05 *
  ---------------------------------------------------------------------------------------------
     48    -314.98083901   -6.06e-09 o    1.86e-06 *    4.37e-07 *    4.26e-05 *    1.75e-05 *  ~
  ---------------------------------------------------------------------------------------------


  **** Optimization is complete! (in 48 steps) ****

  ==> Optimization Summary <==

  Measures of convergence in internal coordinates in au.
  --------------------------------------------------------------------------------------------------------------- ~
   Step         Total Energy             Delta E       MAX Force       RMS Force        MAX Disp        RMS Disp  ~
  --------------------------------------------------------------------------------------------------------------- ~
      1    -314.978422960240   -314.978422960240      0.00646399      0.00182789      0.14770313      0.03099999  ~
      2    -314.979536276758     -0.001113316519      0.00316547      0.00059416      0.04995011      0.01067448  ~
      3    -314.979696894417     -0.000160617659      0.00076116      0.00019751      0.03468922      0.01068007  ~
      4    -314.979720681007     -0.000023786589      0.00050536      0.00010931      0.08912596      0.03204271  ~
      5    -314.979507944647      0.000212736360      0.00236472      0.00055743      0.10799275      0.02639165  ~
      6    -314.979735423196     -0.000227478550      0.00054230      0.00016025      0.02854504      0.00800940  ~
      7    -314.979750015793     -0.000014592596      0.00055187      0.00010530      0.02558429      0.00801011  ~
      8    -314.979766950577     -0.000016934785      0.00042784      0.00009190      0.02353973      0.00800963  ~
      9    -314.979776910748     -0.000009960171      0.00045309      0.00011656      0.00595028      0.00200279  ~
     10    -314.979784760376     -0.000007849628      0.00017211      0.00004013      0.00615054      0.00200240  ~
     11    -314.979789069938     -0.000004309562      0.00008162      0.00002106      0.01640658      0.00600765  ~
     12    -314.979800083479     -0.000011013541      0.00010052      0.00002486      0.01790432      0.00600715  ~
     13    -314.979811086668     -0.000011003189      0.00005248      0.00001675      0.05057008      0.01802155  ~
     14    -314.979838859727     -0.000027773059      0.00023592      0.00005389      0.18809212      0.05407449  ~
     15    -314.979752640829      0.000086218898      0.00173094      0.00043332      0.11092484      0.03278321  ~
     16    -314.979755113552     -0.000002472724      0.00356751      0.00070208      0.01250584      0.00345474  ~
     17    -314.979856692207     -0.000101578655      0.00048971      0.00008846      0.04772823      0.01738740  ~
     18    -314.979807967208      0.000048724999      0.00107777      0.00027584      0.03835304      0.01267847  ~
     19    -314.979866025999     -0.000058058791      0.00056272      0.00012447      0.02760085      0.00950073  ~
     20    -314.979874824816     -0.000008798817      0.00017292      0.00004545      0.04745119      0.01289788  ~
     21    -314.979878898418     -0.000004073602      0.00021606      0.00005229      0.01240564      0.00377929  ~
     22    -314.979882299182     -0.000003400764      0.00013411      0.00003651      0.01152359      0.00354593  ~
     23    -314.979884065269     -0.000001766088      0.00006723      0.00001656      0.01729879      0.00534026  ~
     24    -314.979885476020     -0.000001410751      0.00002918      0.00000962      0.01697110      0.00533977  ~
     25    -314.979886975374     -0.000001499354      0.00003247      0.00001006      0.01681453      0.00533968  ~
     26    -314.979889021276     -0.000002045902      0.00006099      0.00001334      0.05255230      0.01601653  ~
     27    -314.979794395242      0.000094626034      0.00088311      0.00029603      0.04279226      0.01601928  ~
     28    -314.979899153550     -0.000104758308      0.00015498      0.00003379      0.12238375      0.04799028  ~
     29    -314.979556535860      0.000342617689      0.00254853      0.00081254      0.10594322      0.03908058  ~
     30    -314.979885490399     -0.000328954539      0.00947403      0.00142122      0.07985879      0.02602369  ~
     31    -314.980104022295     -0.000218531896      0.00734256      0.00115662      0.17651707      0.05459802  ~
     32    -314.973126420726      0.006977601570      0.03831305      0.00565165      0.11033143      0.02207038  ~
     33    -314.979867849576     -0.006741428850      0.00308798      0.00070082      0.20440403      0.07510812  ~
     34    -314.972159695182      0.007708154394      0.03159574      0.00537994      0.08962080      0.02329785  ~
     35    -314.980239288529     -0.008079593347      0.00500339      0.00072613      0.17427947      0.05205001  ~
     36    -314.978631146697      0.001608141831      0.01406759      0.00263252      0.07779165      0.02252245  ~
     37    -314.978342721746      0.000288424951      0.02066109      0.00330620      0.04878789      0.01865512  ~
     38    -314.980670658708     -0.002327936962      0.00293202      0.00048006      0.15405426      0.05021007  ~
     39    -314.980130904025      0.000539754683      0.01079637      0.00159135      0.04831513      0.01627695  ~
     40    -314.980791991433     -0.000661087407      0.00038172      0.00011249      0.10130373      0.02794440  ~
     41    -314.980722020911      0.000069970522      0.00157345      0.00036934      0.04924039      0.01615011  ~
     42    -314.980835036287     -0.000113015377      0.00025612      0.00007242      0.01005107      0.00181136  ~
     43    -314.980837735527     -0.000002699239      0.00017519      0.00004902      0.00357232      0.00126544  ~
     44    -314.980838518793     -0.000000783266      0.00006805      0.00001895      0.00293289      0.00115579  ~
     45    -314.980838912769     -0.000000393977      0.00004120      0.00000960      0.00209637      0.00065970  ~
     46    -314.980839000107     -0.000000087338      0.00001604      0.00000337      0.00050646      0.00016286  ~
     47    -314.980839002498     -0.000000002391      0.00000445      0.00000089      0.00010453      0.00003604  ~
     48    -314.980839008553     -0.000000006055      0.00000186      0.00000044      0.00004260      0.00001752  ~
  --------------------------------------------------------------------------------------------------------------- ~

	Writing optimization data to binary file.
	Final energy is   -314.9808390085533
	Final (previous) structure:
	Cartesian Geometry (in Angstrom)
	    C     2.5518824863  -0.9349201590  -0.1504575518
	    H     2.2002158529  -0.1957857964  -0.8672431066
	    H     2.1158133582  -1.8968300010  -0.4248048120
	    H     3.6333385525  -1.0174871442  -0.2621951767
	    C    -2.7517471961  -0.6784213398  -1.8907101767
	    H    -2.7263562870  -0.1485820516  -2.8437207318
	    H    -3.7930199342  -0.8971185142  -1.6551800288
	    H    -2.2319852008  -1.6280087764  -2.0257720619
	    C     2.1799282718  -0.5728042209   1.2852895719
	    H     2.6307800270   0.3869986294   1.5546301220
	    H     2.6313020073  -1.3154192546   1.9466800738
	    C    -2.0874003985   0.1468599154  -0.7953400600
	    H    -2.6262328095   1.0894928495  -0.6615787973
	    H    -2.1581746804  -0.3883509019   0.1541181943
	    C     0.6726218751  -0.5138935852   1.5664524900
	    H     0.5006494974  -0.7820522604   2.6115266955
	    H     0.1620452306  -1.2782531572   0.9723998080
	    C     0.0271237049   0.8539351550   1.3378903424
	    H     0.5352149619   1.5824704863   1.9766741788
	    H    -1.0073418124   0.8164040243   1.6882587938
	    C     0.0475231469   1.3697767257  -0.1011441475
	    H    -0.4583474572   2.3397835322  -0.1259266635
	    H     1.0784784372   1.5604175392  -0.4084724670
	    C    -0.6263149413   0.4444227091  -1.1127175663
	    H    -0.5683162183   0.9035746699  -2.1042799717
	    H    -0.0801982050  -0.5000057495  -1.1832935648
	Saving final (previous) structure.
			--------------------------
			 OPTKING Finished Execution 
			--------------------------

    Final optimized geometry and variables:
    Molecular point group: c1
    Full point group: C1

    Geometry (in Angstrom), charge = 0, multiplicity = 1:

    C            2.551882486305    -0.934920159024    -0.150457551800
    H            2.200215852906    -0.195785796407    -0.867243106554
    H            2.115813358194    -1.896830000975    -0.424804812033
    H            3.633338552539    -1.017487144186    -0.262195176673
    C           -2.751747196089    -0.678421339771    -1.890710176654
    H           -2.726356286953    -0.148582051559    -2.843720731810
    H           -3.793019934189    -0.897118514245    -1.655180028811
    H           -2.231985200788    -1.628008776447    -2.025772061911
    C            2.179928271773    -0.572804220870     1.285289571912
    H            2.630780027003     0.386998629384     1.554630121966
    H            2.631302007282    -1.315419254609     1.946680073844
    C           -2.087400398534     0.146859915365    -0.795340060049
    H           -2.626232809512     1.089492849473    -0.661578797308
    H           -2.158174680426    -0.388350901902     0.154118194291
    C            0.672621875107    -0.513893585196     1.566452489975
    H            0.500649497369    -0.782052260400     2.611526695464
    H            0.162045230593    -1.278253157224     0.972399808043
    C            0.027123704881     0.853935155017     1.337890342401
    H            0.535214961891     1.582470486309     1.976674178769
    H           -1.007341812361     0.816404024312     1.688258793760
    C            0.047523146905     1.369776725746    -0.101144147514
    H           -0.458347457160     2.339783532156    -0.125926663488
    H            1.078478437237     1.560417539213    -0.408472466983
    C           -0.626314941285     0.444422709075    -1.112717566283
    H           -0.568316218325     0.903574669873    -2.104279971688
    H           -0.080198204988    -0.500005749528    -1.183293564839

	Cleaning optimization helper files.

*** Psi4 exiting successfully. Buy a developer a beer!
