    -----------------------------------------------------------------------
          Psi4: An Open-Source Ab Initio Electronic Structure Package
                              Psi4 1.0.0 Driver

                          Git: Rev {master} 6a9a71b dirty

    J. M. Turney, A. C. Simmonett, R. M. Parrish, E. G. Hohenstein,
    F. A. Evangelista, J. T. Fermann, B. J. Mintz, L. A. Burns, J. J. Wilke,
    M. L. Abrams, N. J. Russ, M. L. Leininger, C. L. Janssen, E. T. Seidl,
    W. D. Allen, H. F. Schaefer, R. A. King, E. F. Valeev, C. D. Sherrill,
    and T. D. Crawford, WIREs Comput. Mol. Sci. 2, 556-565 (2012)
    (doi: 10.1002/wcms.93)

                         Additional Contributions by
    A. E. DePrince, U. Bozkaya, A. Yu. Sokolov, D. G. A. Smith, R. Di Remigio,
    R. M. Richard, J. F. Gonthier, H. R. McAlexander, M. Saitow, and
    B. P. Pritchard
    -----------------------------------------------------------------------


    Psi4 started on: Tue Sep 20 16:43:05 2016

    Process ID:   2710
    PSI4DATADIR: /usr/local/hpc5/psi4conda/share/psi4
    Memory level set to 256.000 MB

  ==> Input File <==

--------------------------------------------------------------------------
memory 30 Gb

molecule molecule_31_psi {
0 1
symmetry c1
    C            3.887584362519     0.165486447371    -0.372647871611
    H            4.148909725392     1.186259402141    -0.099526216966
    H            4.414908668045    -0.083348302502    -1.290683951521
    H            4.254302403313    -0.491969593824     0.413813453621
    C           -3.069177631772     1.196830004333    -0.054416855174
    H           -3.542366011589     1.878871989467    -0.758019604783
    H           -2.223105559252     1.709579216318     0.393756654330
    H           -3.784821600646     0.985181719528     0.738323351075
    C            2.385576973977     0.020430902904    -0.531615255688
    H            2.151791433373    -0.997213717627    -0.842071438033
    H            2.031829874412     0.679529814657    -1.327162241196
    C           -2.646184697401    -0.094425681817    -0.735844347465
    H           -3.530733814606    -0.562794326284    -1.166228883666
    H           -1.982019740270     0.128961523922    -1.573250401938
    C            1.639975822037     0.349057608783     0.749227315787
    H            1.966946452832     1.328784390742     1.103883108066
    H            1.922085417403    -0.371629869925     1.521112735235
    C            0.127821365559     0.351141917446     0.594537949644
    H           -0.149475107127     1.107578854778    -0.142260419406
    H           -0.331631728339     0.649338119022     1.539321683963
    C           -0.432545292161    -0.998023209122     0.178354600278
    H           -0.090340246285    -1.238819228772    -0.829290932930
    H           -0.020334771792    -1.764917686378     0.838944858199
    C           -1.951217438468    -1.084409845922     0.199980861691
    H           -2.236705988741    -2.101429244925    -0.069775333983
    H           -2.306660430288    -0.923770679299     1.220766139626
}

set globals {
  reference rhf
  g_convergence gau_verytight
  basis aug-cc-pvtz
  freeze_core true
  scf_type df
  mp_type df
}
optimize('mp2')
--------------------------------------------------------------------------
/usr/local/hpc5/psi4conda/lib/python2.7/site-packages/v2rdm_casscf/v2rdm_casscf.so loaded.

  Memory set to  30.000 GiB by Python script.
gradient() will perform analytic gradient computation.

*** tstart() called on wr32
*** at Tue Sep 20 16:43:06 2016


         ---------------------------------------------------------
                                   SCF
            by Justin Turney, Rob Parrish, and Andy Simmonett
                              RHF Reference
                       12 Threads,  30000 MiB Core
         ---------------------------------------------------------

  ==> Geometry <==

    Molecular point group: c1
    Full point group: C1

    Geometry (in Angstrom), charge = 0, multiplicity = 1:

       Center              X                  Y                   Z               Mass       
    ------------   -----------------  -----------------  -----------------  -----------------
           C          3.887584362519     0.165486447371    -0.372647871611    12.000000000000
           H          4.148909725392     1.186259402141    -0.099526216966     1.007825032070
           H          4.414908668045    -0.083348302502    -1.290683951521     1.007825032070
           H          4.254302403313    -0.491969593824     0.413813453621     1.007825032070
           C         -3.069177631772     1.196830004333    -0.054416855174    12.000000000000
           H         -3.542366011589     1.878871989467    -0.758019604783     1.007825032070
           H         -2.223105559252     1.709579216318     0.393756654330     1.007825032070
           H         -3.784821600646     0.985181719528     0.738323351075     1.007825032070
           C          2.385576973977     0.020430902904    -0.531615255688    12.000000000000
           H          2.151791433373    -0.997213717627    -0.842071438033     1.007825032070
           H          2.031829874412     0.679529814657    -1.327162241196     1.007825032070
           C         -2.646184697401    -0.094425681817    -0.735844347465    12.000000000000
           H         -3.530733814606    -0.562794326284    -1.166228883666     1.007825032070
           H         -1.982019740270     0.128961523922    -1.573250401938     1.007825032070
           C          1.639975822037     0.349057608783     0.749227315787    12.000000000000
           H          1.966946452832     1.328784390742     1.103883108066     1.007825032070
           H          1.922085417403    -0.371629869925     1.521112735235     1.007825032070
           C          0.127821365559     0.351141917446     0.594537949644    12.000000000000
           H         -0.149475107127     1.107578854778    -0.142260419406     1.007825032070
           H         -0.331631728339     0.649338119022     1.539321683963     1.007825032070
           C         -0.432545292161    -0.998023209122     0.178354600278    12.000000000000
           H         -0.090340246285    -1.238819228772    -0.829290932930     1.007825032070
           H         -0.020334771792    -1.764917686378     0.838944858199     1.007825032070
           C         -1.951217438468    -1.084409845922     0.199980861691    12.000000000000
           H         -2.236705988741    -2.101429244925    -0.069775333983     1.007825032070
           H         -2.306660430288    -0.923770679299     1.220766139626     1.007825032070

  Running in c1 symmetry.

  Rotational constants: A =      0.14925  B =      0.02409  C =      0.02312 [cm^-1]
  Rotational constants: A =   4474.25808  B =    722.22867  C =    693.13627 [MHz]
  Nuclear repulsion =  394.489764452584836

  Charge       = 0
  Multiplicity = 1
  Electrons    = 66
  Nalpha       = 33
  Nbeta        = 33

  ==> Algorithm <==

  SCF Algorithm Type is DF.
  DIIS enabled.
  MOM disabled.
  Fractional occupation disabled.
  Guess Type is SAD.
  Energy threshold   = 1.00e-10
  Density threshold  = 1.00e-10
  Integral threshold = 0.00e+00

  ==> Primary Basis <==

  Basis Set: AUG-CC-PVTZ
    Number of shells: 274
    Number of basis function: 782
    Number of Cartesian functions: 890
    Spherical Harmonics?: true
    Max angular momentum: 3

  ==> Pre-Iterations <==

   -------------------------------------------------------
    Irrep   Nso     Nmo     Nalpha   Nbeta   Ndocc  Nsocc
   -------------------------------------------------------
     A        782     782       0       0       0       0
   -------------------------------------------------------
    Total     782     782      33      33      33       0
   -------------------------------------------------------

  ==> Integral Setup <==

  ==> DFJK: Density-Fitted J/K Matrices <==

    J tasked:                  Yes
    K tasked:                  Yes
    wK tasked:                  No
    OpenMP threads:             12
    Integrals threads:          12
    Memory (MB):             21457
    Algorithm:                Core
    Integral Cache:           NONE
    Schwarz Cutoff:          1E-12
    Fitting Condition:       1E-12

   => Auxiliary Basis Set <=

  Basis Set: 
    Number of shells: 492
    Number of basis function: 1660
    Number of Cartesian functions: 2038
    Spherical Harmonics?: true
    Max angular momentum: 4

  Minimum eigenvalue in the overlap matrix is 1.6881358608E-06.
  Using Symmetric Orthogonalization.
  SCF Guess: Superposition of Atomic Densities via on-the-fly atomic UHF.

  ==> Iterations <==

                           Total Energy        Delta E     RMS |[F,P]|

   @DF-RHF iter   0:  -316.92195712560385   -3.16922e+02   6.99939e-03 
   @DF-RHF iter   1:  -313.28053693703816    3.64142e+00   7.59244e-04 
   @DF-RHF iter   2:  -313.50185815596330   -2.21321e-01   2.89768e-04 DIIS
   @DF-RHF iter   3:  -313.53308284809282   -3.12247e-02   1.01368e-04 DIIS
   @DF-RHF iter   4:  -313.53835479954398   -5.27195e-03   1.64666e-05 DIIS
   @DF-RHF iter   5:  -313.53852650443832   -1.71705e-04   5.20949e-06 DIIS
   @DF-RHF iter   6:  -313.53854059145101   -1.40870e-05   1.27524e-06 DIIS
   @DF-RHF iter   7:  -313.53854167091492   -1.07946e-06   2.50255e-07 DIIS
   @DF-RHF iter   8:  -313.53854171332330   -4.24084e-08   7.95128e-08 DIIS
   @DF-RHF iter   9:  -313.53854171674016   -3.41686e-09   2.15187e-08 DIIS
   @DF-RHF iter  10:  -313.53854171705325   -3.13094e-10   5.93561e-09 DIIS
   @DF-RHF iter  11:  -313.53854171708099   -2.77396e-11   1.21473e-09 DIIS
   @DF-RHF iter  12:  -313.53854171708167   -6.82121e-13   3.25395e-10 DIIS
   @DF-RHF iter  13:  -313.53854171708258   -9.09495e-13   1.14485e-10 DIIS
   @DF-RHF iter  14:  -313.53854171708269   -1.13687e-13   2.72268e-11 DIIS

  ==> Post-Iterations <==

    Orbital Energies (a.u.)
    -----------------------

    Doubly Occupied:                                                      

       1A    -11.210731     2A    -11.210170     3A    -11.208857  
       4A    -11.208620     5A    -11.208226     6A    -11.207799  
       7A    -11.205548     8A    -11.204080     9A     -1.097753  
      10A     -1.062322    11A     -1.009029    12A     -0.953357  
      13A     -0.880065    14A     -0.830148    15A     -0.790581  
      16A     -0.760632    17A     -0.647320    18A     -0.624994  
      19A     -0.613326    20A     -0.598207    21A     -0.578433  
      22A     -0.561386    23A     -0.546178    24A     -0.539789  
      25A     -0.508178    26A     -0.499544    27A     -0.487845  
      28A     -0.478118    29A     -0.469030    30A     -0.462331  
      31A     -0.445201    32A     -0.437484    33A     -0.433042  

    Virtual:                                                              

      34A      0.030179    35A      0.032730    36A      0.034156  
      37A      0.035634    38A      0.046085    39A      0.047797  
      40A      0.048515    41A      0.054291    42A      0.054534  
      43A      0.066064    44A      0.067905    45A      0.069485  
      46A      0.072305    47A      0.078658    48A      0.087133  
      49A      0.091761    50A      0.097562    51A      0.100241  
      52A      0.114541    53A      0.116669    54A      0.118684  
      55A      0.122010    56A      0.126176    57A      0.130546  
      58A      0.133049    59A      0.137994    60A      0.138578  
      61A      0.147170    62A      0.148267    63A      0.153204  
      64A      0.153953    65A      0.156087    66A      0.161135  
      67A      0.162975    68A      0.167142    69A      0.171891  
      70A      0.176454    71A      0.178673    72A      0.180783  
      73A      0.191352    74A      0.194325    75A      0.198858  
      76A      0.205529    77A      0.219218    78A      0.225203  
      79A      0.227614    80A      0.238400    81A      0.243339  
      82A      0.246968    83A      0.251517    84A      0.259071  
      85A      0.266136    86A      0.270317    87A      0.276377  
      88A      0.280437    89A      0.285316    90A      0.292525  
      91A      0.297553    92A      0.304670    93A      0.309125  
      94A      0.312506    95A      0.315566    96A      0.319314  
      97A      0.326452    98A      0.328473    99A      0.330483  
     100A      0.336094   101A      0.341310   102A      0.344771  
     103A      0.349618   104A      0.350823   105A      0.352867  
     106A      0.357226   107A      0.363051   108A      0.366224  
     109A      0.368895   110A      0.371772   111A      0.374732  
     112A      0.381030   113A      0.385068   114A      0.388502  
     115A      0.393976   116A      0.398576   117A      0.400825  
     118A      0.403196   119A      0.404953   120A      0.410405  
     121A      0.412580   122A      0.419323   123A      0.423918  
     124A      0.429332   125A      0.433127   126A      0.438706  
     127A      0.439256   128A      0.443509   129A      0.450106  
     130A      0.452018   131A      0.457378   132A      0.462671  
     133A      0.466825   134A      0.467819   135A      0.469319  
     136A      0.473489   137A      0.473974   138A      0.477111  
     139A      0.480729   140A      0.484179   141A      0.489449  
     142A      0.496190   143A      0.500440   144A      0.501426  
     145A      0.505317   146A      0.510437   147A      0.511404  
     148A      0.518533   149A      0.523434   150A      0.523951  
     151A      0.527470   152A      0.534409   153A      0.534601  
     154A      0.546000   155A      0.550496   156A      0.551825  
     157A      0.554953   158A      0.559953   159A      0.564630  
     160A      0.568917   161A      0.581295   162A      0.583331  
     163A      0.586284   164A      0.590476   165A      0.591627  
     166A      0.592427   167A      0.602757   168A      0.606391  
     169A      0.610275   170A      0.611860   171A      0.619296  
     172A      0.624937   173A      0.625781   174A      0.629749  
     175A      0.639201   176A      0.644554   177A      0.652173  
     178A      0.654943   179A      0.662190   180A      0.665637  
     181A      0.669047   182A      0.672375   183A      0.681373  
     184A      0.687835   185A      0.690141   186A      0.692588  
     187A      0.696675   188A      0.712859   189A      0.718328  
     190A      0.721246   191A      0.726596   192A      0.728644  
     193A      0.739604   194A      0.742088   195A      0.752116  
     196A      0.758023   197A      0.770289   198A      0.779318  
     199A      0.783872   200A      0.795888   201A      0.800113  
     202A      0.813577   203A      0.820048   204A      0.825510  
     205A      0.834824   206A      0.839629   207A      0.843884  
     208A      0.848559   209A      0.852205   210A      0.859933  
     211A      0.865599   212A      0.871877   213A      0.877835  
     214A      0.880580   215A      0.884577   216A      0.888788  
     217A      0.897797   218A      0.904034   219A      0.906732  
     220A      0.911747   221A      0.916888   222A      0.922177  
     223A      0.924399   224A      0.925950   225A      0.934903  
     226A      0.937447   227A      0.943455   228A      0.947103  
     229A      0.950671   230A      0.953323   231A      0.961989  
     232A      0.967352   233A      0.975642   234A      0.980211  
     235A      0.984661   236A      0.990209   237A      0.995081  
     238A      0.999358   239A      1.001152   240A      1.003040  
     241A      1.014640   242A      1.022036   243A      1.027065  
     244A      1.033343   245A      1.038037   246A      1.045561  
     247A      1.046949   248A      1.051483   249A      1.057493  
     250A      1.063278   251A      1.069510   252A      1.075336  
     253A      1.080585   254A      1.085448   255A      1.088930  
     256A      1.093150   257A      1.101659   258A      1.107158  
     259A      1.110490   260A      1.115145   261A      1.120132  
     262A      1.124469   263A      1.125817   264A      1.134086  
     265A      1.136350   266A      1.142337   267A      1.146759  
     268A      1.153208   269A      1.159136   270A      1.169206  
     271A      1.172774   272A      1.176503   273A      1.179440  
     274A      1.186647   275A      1.195608   276A      1.201308  
     277A      1.208044   278A      1.209350   279A      1.213263  
     280A      1.224051   281A      1.226862   282A      1.232509  
     283A      1.236952   284A      1.240764   285A      1.249241  
     286A      1.258721   287A      1.264280   288A      1.264990  
     289A      1.268583   290A      1.277370   291A      1.283661  
     292A      1.291751   293A      1.300503   294A      1.302604  
     295A      1.304030   296A      1.312000   297A      1.320008  
     298A      1.321978   299A      1.331679   300A      1.335317  
     301A      1.340458   302A      1.345809   303A      1.348073  
     304A      1.352194   305A      1.364776   306A      1.365727  
     307A      1.368429   308A      1.382086   309A      1.390069  
     310A      1.401507   311A      1.407920   312A      1.411356  
     313A      1.417928   314A      1.426753   315A      1.432638  
     316A      1.437807   317A      1.442472   318A      1.453033  
     319A      1.465128   320A      1.472004   321A      1.477533  
     322A      1.483578   323A      1.491330   324A      1.510466  
     325A      1.511301   326A      1.523087   327A      1.526116  
     328A      1.534325   329A      1.546894   330A      1.550615  
     331A      1.560870   332A      1.569440   333A      1.577615  
     334A      1.582690   335A      1.588619   336A      1.595001  
     337A      1.600189   338A      1.608681   339A      1.619736  
     340A      1.625016   341A      1.626056   342A      1.641682  
     343A      1.652182   344A      1.657857   345A      1.659855  
     346A      1.665581   347A      1.674480   348A      1.677319  
     349A      1.686450   350A      1.690216   351A      1.692751  
     352A      1.699408   353A      1.709822   354A      1.712457  
     355A      1.717526   356A      1.724570   357A      1.727847  
     358A      1.732767   359A      1.740004   360A      1.743610  
     361A      1.745844   362A      1.755159   363A      1.760816  
     364A      1.765848   365A      1.770632   366A      1.775694  
     367A      1.785114   368A      1.788943   369A      1.797603  
     370A      1.798384   371A      1.802402   372A      1.806146  
     373A      1.813615   374A      1.824613   375A      1.830474  
     376A      1.840553   377A      1.844997   378A      1.848762  
     379A      1.853695   380A      1.862812   381A      1.869451  
     382A      1.871305   383A      1.878673   384A      1.890283  
     385A      1.896531   386A      1.899065   387A      1.901583  
     388A      1.916145   389A      1.918116   390A      1.923524  
     391A      1.931842   392A      1.935649   393A      1.937465  
     394A      1.950407   395A      1.960650   396A      1.974970  
     397A      1.983977   398A      1.989130   399A      1.999663  
     400A      2.003749   401A      2.007666   402A      2.015665  
     403A      2.023808   404A      2.029180   405A      2.036319  
     406A      2.041117   407A      2.049791   408A      2.051424  
     409A      2.064910   410A      2.070054   411A      2.072265  
     412A      2.088262   413A      2.093897   414A      2.096968  
     415A      2.106380   416A      2.112550   417A      2.116388  
     418A      2.125423   419A      2.132396   420A      2.138720  
     421A      2.143631   422A      2.150808   423A      2.159681  
     424A      2.163580   425A      2.180321   426A      2.185029  
     427A      2.198025   428A      2.208821   429A      2.213860  
     430A      2.222979   431A      2.242832   432A      2.250493  
     433A      2.254264   434A      2.255549   435A      2.265249  
     436A      2.274302   437A      2.282300   438A      2.293188  
     439A      2.296394   440A      2.315722   441A      2.320653  
     442A      2.327725   443A      2.339226   444A      2.343363  
     445A      2.352687   446A      2.362615   447A      2.372073  
     448A      2.382905   449A      2.388500   450A      2.399392  
     451A      2.401279   452A      2.409105   453A      2.422191  
     454A      2.431142   455A      2.442927   456A      2.447703  
     457A      2.450539   458A      2.482556   459A      2.495503  
     460A      2.500019   461A      2.509565   462A      2.515071  
     463A      2.534539   464A      2.544793   465A      2.552305  
     466A      2.565684   467A      2.578042   468A      2.584010  
     469A      2.597976   470A      2.605904   471A      2.607848  
     472A      2.637770   473A      2.644197   474A      2.648112  
     475A      2.671486   476A      2.704498   477A      2.712146  
     478A      2.734998   479A      2.757076   480A      2.775963  
     481A      2.816182   482A      2.823532   483A      2.839631  
     484A      2.850724   485A      2.916710   486A      2.936645  
     487A      3.041327   488A      3.059107   489A      3.090515  
     490A      3.136848   491A      3.177245   492A      3.215400  
     493A      3.289445   494A      3.327886   495A      3.344528  
     496A      3.414325   497A      3.425614   498A      3.458167  
     499A      3.462169   500A      3.481237   501A      3.495741  
     502A      3.497368   503A      3.510617   504A      3.535938  
     505A      3.541629   506A      3.552645   507A      3.561892  
     508A      3.568334   509A      3.586977   510A      3.594283  
     511A      3.601359   512A      3.620422   513A      3.621627  
     514A      3.629721   515A      3.640822   516A      3.646918  
     517A      3.657964   518A      3.672207   519A      3.686003  
     520A      3.693105   521A      3.698349   522A      3.715175  
     523A      3.724276   524A      3.731755   525A      3.735839  
     526A      3.747200   527A      3.751409   528A      3.767341  
     529A      3.777036   530A      3.784011   531A      3.792694  
     532A      3.808736   533A      3.813153   534A      3.815170  
     535A      3.824690   536A      3.837913   537A      3.849842  
     538A      3.853537   539A      3.863291   540A      3.866637  
     541A      3.872190   542A      3.885799   543A      3.888649  
     544A      3.904334   545A      3.910186   546A      3.910830  
     547A      3.920080   548A      3.928725   549A      3.940031  
     550A      3.948351   551A      3.958642   552A      3.968694  
     553A      3.970336   554A      3.986384   555A      3.991488  
     556A      3.997651   557A      4.000410   558A      4.013184  
     559A      4.018817   560A      4.026314   561A      4.031887  
     562A      4.035975   563A      4.038324   564A      4.053128  
     565A      4.056879   566A      4.066900   567A      4.070044  
     568A      4.082803   569A      4.092551   570A      4.095776  
     571A      4.105109   572A      4.112776   573A      4.120122  
     574A      4.127063   575A      4.133612   576A      4.151032  
     577A      4.153724   578A      4.161530   579A      4.176722  
     580A      4.181134   581A      4.186769   582A      4.214711  
     583A      4.218983   584A      4.233818   585A      4.235379  
     586A      4.249902   587A      4.254778   588A      4.265693  
     589A      4.274397   590A      4.288473   591A      4.292936  
     592A      4.300786   593A      4.314323   594A      4.321308  
     595A      4.325616   596A      4.340959   597A      4.346753  
     598A      4.348791   599A      4.362128   600A      4.377874  
     601A      4.390407   602A      4.400296   603A      4.404175  
     604A      4.418528   605A      4.426620   606A      4.429076  
     607A      4.443300   608A      4.457325   609A      4.470838  
     610A      4.483194   611A      4.505836   612A      4.525966  
     613A      4.543770   614A      4.552753   615A      4.569646  
     616A      4.585063   617A      4.593179   618A      4.605068  
     619A      4.625082   620A      4.633893   621A      4.647067  
     622A      4.667536   623A      4.676724   624A      4.682758  
     625A      4.695742   626A      4.706432   627A      4.711918  
     628A      4.721507   629A      4.737116   630A      4.748207  
     631A      4.765427   632A      4.771204   633A      4.777360  
     634A      4.790517   635A      4.803658   636A      4.808880  
     637A      4.818795   638A      4.831665   639A      4.838131  
     640A      4.851128   641A      4.855304   642A      4.864793  
     643A      4.876171   644A      4.884715   645A      4.895083  
     646A      4.900216   647A      4.916896   648A      4.921275  
     649A      4.936052   650A      4.940272   651A      4.953477  
     652A      4.962844   653A      4.972625   654A      4.992073  
     655A      5.005067   656A      5.012630   657A      5.021445  
     658A      5.032836   659A      5.058634   660A      5.076931  
     661A      5.095626   662A      5.103119   663A      5.118578  
     664A      5.123946   665A      5.133303   666A      5.137832  
     667A      5.152459   668A      5.162636   669A      5.168479  
     670A      5.175887   671A      5.188870   672A      5.203940  
     673A      5.217065   674A      5.227819   675A      5.238973  
     676A      5.247443   677A      5.263467   678A      5.280318  
     679A      5.290799   680A      5.294663   681A      5.297044  
     682A      5.315242   683A      5.336982   684A      5.338835  
     685A      5.352408   686A      5.376455   687A      5.389640  
     688A      5.394026   689A      5.397218   690A      5.408295  
     691A      5.414271   692A      5.428924   693A      5.440760  
     694A      5.453963   695A      5.468382   696A      5.482694  
     697A      5.491157   698A      5.495345   699A      5.510900  
     700A      5.524375   701A      5.527907   702A      5.534038  
     703A      5.544220   704A      5.551022   705A      5.566384  
     706A      5.604162   707A      5.609447   708A      5.633459  
     709A      5.643237   710A      5.652958   711A      5.669575  
     712A      5.674829   713A      5.678455   714A      5.703319  
     715A      5.716817   716A      5.719723   717A      5.724935  
     718A      5.744978   719A      5.752272   720A      5.762461  
     721A      5.773504   722A      5.786338   723A      5.811456  
     724A      5.819646   725A      5.828119   726A      5.840400  
     727A      5.853676   728A      5.866394   729A      5.893765  
     730A      5.911717   731A      5.962208   732A      5.978676  
     733A      6.009065   734A      6.022995   735A      6.040738  
     736A      6.070547   737A      6.080366   738A      6.102942  
     739A      6.120265   740A      6.159693   741A      6.163131  
     742A      6.182833   743A      6.190164   744A      6.218177  
     745A      6.233390   746A      6.239644   747A      6.273327  
     748A      6.283533   749A      6.295456   750A      6.309219  
     751A      6.325300   752A      6.341227   753A      6.343720  
     754A      6.347088   755A      6.392548   756A      6.423972  
     757A      6.427431   758A      6.467734   759A      6.589509  
     760A      6.651486   761A      6.687074   762A      6.719229  
     763A      6.736467   764A      6.791472   765A      6.813075  
     766A      6.854493   767A      6.878892   768A      6.910921  
     769A      6.914929   770A      6.938267   771A      7.012410  
     772A      7.062398   773A      7.085892   774A      7.124301  
     775A     18.189498   776A     18.193551   777A     18.482507  
     778A     18.714998   779A     18.967520   780A     19.108436  
     781A     19.425747   782A     19.990967  

    Final Occupation by Irrep:
              A 
    DOCC [    33 ]

  Energy converged.

  @DF-RHF Final Energy:  -313.53854171708269

   => Energetics <=

    Nuclear Repulsion Energy =            394.4897644525848364
    One-Electron Energy =               -1204.0999645322995093
    Two-Electron Energy =                 496.0716583626320926
    DFT Exchange-Correlation Energy =       0.0000000000000000
    Empirical Dispersion Energy =           0.0000000000000000
    PCM Polarization Energy =               0.0000000000000000
    EFP Energy =                            0.0000000000000000
    Total Energy =                       -313.5385417170825804


  Saving occupied orbitals to File 180.

*** tstop() called on wr32 at Tue Sep 20 16:44:32 2016
Module time:
	user time   =     937.17 seconds =      15.62 minutes
	system time =      11.29 seconds =       0.19 minutes
	total time  =         86 seconds =       1.43 minutes
Total time:
	user time   =     937.17 seconds =      15.62 minutes
	system time =      11.29 seconds =       0.19 minutes
	total time  =         86 seconds =       1.43 minutes


Properties will be evaluated at   0.000000,   0.000000,   0.000000 Bohr

Properties computed using the SCF density matrix

  Nuclear Dipole Moment: (a.u.)
     X:     0.6493      Y:     1.0483      Z:    -0.3078

  Electronic Dipole Moment: (a.u.)
     X:    -0.6613      Y:    -1.0811      Z:     0.2860

  Dipole Moment: (a.u.)
     X:    -0.0121      Y:    -0.0328      Z:    -0.0218     Total:     0.0412

  Dipole Moment: (Debye)
     X:    -0.0307      Y:    -0.0833      Z:    -0.0554     Total:     0.1047


  //>>>>>>>>>>>>>>>>>>>>>>>>>>>>>>>>>>>//
  //               DFMP2               //
  //<<<<<<<<<<<<<<<<<<<<<<<<<<<<<<<<<<<//


*** tstart() called on wr32
*** at Tue Sep 20 16:44:32 2016


*** tstop() called on wr32 at Tue Sep 20 16:44:32 2016
Module time:
	user time   =       4.29 seconds =       0.07 minutes
	system time =       0.12 seconds =       0.00 minutes
	total time  =          0 seconds =       0.00 minutes
Total time:
	user time   =     941.93 seconds =      15.70 minutes
	system time =      11.41 seconds =       0.19 minutes
	total time  =         86 seconds =       1.43 minutes
	 --------------------------------------------------------
	                          DF-MP2                         
	      2nd-Order Density-Fitted Moller-Plesset Theory     
	              RMP2 Wavefunction,  12 Threads             
	                                                         
	        Rob Parrish, Justin Turney, Andy Simmonett,      
	           Ed Hohenstein, and C. David Sherrill          
	 --------------------------------------------------------

   => Auxiliary Basis Set <=

  Basis Set: 
    Number of shells: 476
    Number of basis function: 1676
    Number of Cartesian functions: 2078
    Spherical Harmonics?: true
    Max angular momentum: 4

	 --------------------------------------------------------
	                 NBF =   782, NAUX =  1676
	 --------------------------------------------------------
	   CLASS    FOCC     OCC    AOCC    AVIR     VIR    FVIR
	   PAIRS       8      33      25     749     749       0
	 --------------------------------------------------------

DGAS Warning! /src/lib/libfock/apps.cc:80 is not currently checking restricted

         ------------------------------------------------------------
                                     CPHF                           
                                  Rob Parrish                       
         ------------------------------------------------------------

  ==> Geometry <==

    Molecular point group: c1
    Full point group: C1

    Geometry (in Angstrom), charge = 0, multiplicity = 1:

       Center              X                  Y                   Z               Mass       
    ------------   -----------------  -----------------  -----------------  -----------------
           C          3.887584362519     0.165486447371    -0.372647871611    12.000000000000
           H          4.148909725392     1.186259402141    -0.099526216966     1.007825032070
           H          4.414908668045    -0.083348302502    -1.290683951521     1.007825032070
           H          4.254302403313    -0.491969593824     0.413813453621     1.007825032070
           C         -3.069177631772     1.196830004333    -0.054416855174    12.000000000000
           H         -3.542366011589     1.878871989467    -0.758019604783     1.007825032070
           H         -2.223105559252     1.709579216318     0.393756654330     1.007825032070
           H         -3.784821600646     0.985181719528     0.738323351075     1.007825032070
           C          2.385576973977     0.020430902904    -0.531615255688    12.000000000000
           H          2.151791433373    -0.997213717627    -0.842071438033     1.007825032070
           H          2.031829874412     0.679529814657    -1.327162241196     1.007825032070
           C         -2.646184697401    -0.094425681817    -0.735844347465    12.000000000000
           H         -3.530733814606    -0.562794326284    -1.166228883666     1.007825032070
           H         -1.982019740270     0.128961523922    -1.573250401938     1.007825032070
           C          1.639975822037     0.349057608783     0.749227315787    12.000000000000
           H          1.966946452832     1.328784390742     1.103883108066     1.007825032070
           H          1.922085417403    -0.371629869925     1.521112735235     1.007825032070
           C          0.127821365559     0.351141917446     0.594537949644    12.000000000000
           H         -0.149475107127     1.107578854778    -0.142260419406     1.007825032070
           H         -0.331631728339     0.649338119022     1.539321683963     1.007825032070
           C         -0.432545292161    -0.998023209122     0.178354600278    12.000000000000
           H         -0.090340246285    -1.238819228772    -0.829290932930     1.007825032070
           H         -0.020334771792    -1.764917686378     0.838944858199     1.007825032070
           C         -1.951217438468    -1.084409845922     0.199980861691    12.000000000000
           H         -2.236705988741    -2.101429244925    -0.069775333983     1.007825032070
           H         -2.306660430288    -0.923770679299     1.220766139626     1.007825032070

  Nuclear repulsion =  394.489764452584950
  Reference energy  = -313.538541717082694

  ==> Basis Set <==

  Basis Set: AUG-CC-PVTZ
    Number of shells: 274
    Number of basis function: 782
    Number of Cartesian functions: 890
    Spherical Harmonics?: true
    Max angular momentum: 3

  ==> CGRSolver (by Rob Parrish) <==

   Number of roots    =         1
   Preconditioning    =    JACOBI
   Convergence cutoff =     1E-06
   Maximum iterations =       100

  ==> CPHFRHamiltonian (by Rob Parrish) <== 

  ==> DFJK: Density-Fitted J/K Matrices <==

    J tasked:                  Yes
    K tasked:                  Yes
    wK tasked:                  No
    OpenMP threads:             12
    Integrals threads:          12
    Memory (MB):             21457
    Algorithm:                Core
    Integral Cache:           NONE
    Schwarz Cutoff:          1E-12
    Fitting Condition:       1E-12

   => Auxiliary Basis Set <=

  Basis Set: 
    Number of shells: 492
    Number of basis function: 1660
    Number of Cartesian functions: 2038
    Spherical Harmonics?: true
    Max angular momentum: 4

  ==> CPHF Iterations <==

  => Iterations <=

             Iter  Converged  Remaining    Residual
  CGR           1          0          1   9.073E-02
  CGR           2          0          1   1.293E-02
  CGR           3          0          1   3.606E-03
  CGR           4          0          1   8.441E-04
  CGR           5          0          1   1.976E-04
  CGR           6          0          1   4.719E-05
  CGR           7          0          1   1.365E-05
  CGR           8          0          1   3.240E-06
  CGR           9          1          0   7.631E-07

    CGRSolver converged.

  ==> DFCorrGrad: Density-Fitted Correlated Gradients <==

    OpenMP threads:             12
    Integrals threads:          12
    Memory (MB):             21457
    Schwarz Cutoff:          0E+00
    Fitting Condition:       1E-12

   => Auxiliary Basis Set <=

  Basis Set: 
    Number of shells: 492
    Number of basis function: 1660
    Number of Cartesian functions: 2038
    Spherical Harmonics?: true
    Max angular momentum: 4

	-----------------------------------------------------------
	 ==================> DF-MP2 Energies <==================== 
	-----------------------------------------------------------
	 Reference Energy          =    -313.5385417170826940 [Eh]
	 Singles Energy            =      -0.0000000000000000 [Eh]
	 Same-Spin Energy          =      -0.3165662892930792 [Eh]
	 Opposite-Spin Energy      =      -1.1251209508519249 [Eh]
	 Correlation Energy        =      -1.4416872401450040 [Eh]
	 Total Energy              =    -314.9802289572277232 [Eh]
	-----------------------------------------------------------
	 ================> DF-SCS-MP2 Energies <================== 
	-----------------------------------------------------------
	 SCS Same-Spin Scale       =       0.3333333333333333 [-]
	 SCS Opposite-Spin Scale   =       1.2000000000000000 [-]
	 SCS Same-Spin Energy      =      -0.1055220964310264 [Eh]
	 SCS Opposite-Spin Energy  =      -1.3501451410223098 [Eh]
	 SCS Correlation Energy    =      -1.4556672374533361 [Eh]
	 SCS Total Energy          =    -314.9942089545360204 [Eh]
	-----------------------------------------------------------


  -Total Gradient:
     Atom            X                  Y                   Z
    ------   -----------------  -----------------  -----------------
       1       -0.001588875771    -0.000122318003    -0.000234460284
       2       -0.000655404853    -0.001315774407    -0.000342672104
       3       -0.000908885908     0.000256112305     0.001102180385
       4       -0.000801010928     0.000812972775    -0.000991824594
       5        0.000812518341    -0.001281688651    -0.000498199284
       6        0.000670553988    -0.000992124739     0.000746695191
       7       -0.001020113885    -0.001019691817    -0.000722121992
       8        0.000954678342    -0.000047226467    -0.001099633999
       9        0.000716741680     0.000479023029     0.001793727010
      10        0.000370943485     0.001273364011     0.000842039428
      11        0.000459775075    -0.000713698734     0.001292595590
      12        0.000151557115     0.000486365252     0.001839498812
      13        0.001211484050     0.000403824532     0.000721025197
      14       -0.000583443665    -0.000141632529     0.001470435455
      15       -0.000926596681    -0.000374869314    -0.001889227777
      16       -0.000523379884    -0.001137312061    -0.000627858805
      17       -0.000529069250     0.000639120445    -0.001182541027
      18        0.001173643835    -0.001460728493    -0.000333250669
      19        0.000441149324    -0.001198040266     0.000730697696
      20        0.000563828505    -0.000560352937    -0.001202005593
      21       -0.001093687050     0.001480163094     0.000499815604
      22       -0.000674482946     0.000663668208     0.001251798301
      23       -0.000557360523     0.001168354329    -0.000719167081
      24        0.001194797097     0.001238378708    -0.001267367857
      25        0.000319502399     0.001255985816     0.000086747147
      26        0.000821138111     0.000208125918    -0.001266924751


			-----------------------------------------
			 OPTKING 2.0: for geometry optimizations 
			  - R.A. King,  Bethel University        
			-----------------------------------------

	Internal coordinates to be generated automatically.
	Detected frag 1 with atoms:  1 2 3 4 5 6 7 8 9 10 11 12 13 14 15 16 17 18 19 20
	 21 22 23 24 25 26
	---Fragment 1 Bond Connectivity---
	 1 : 2 3 4 9
	 2 : 1
	 3 : 1
	 4 : 1
	 5 : 6 7 8 12
	 6 : 5
	 7 : 5
	 8 : 5
	 9 : 1 10 11 15
	 10 : 9
	 11 : 9
	 12 : 5 13 14 24
	 13 : 12
	 14 : 12
	 15 : 9 16 17 18
	 16 : 15
	 17 : 15
	 18 : 15 19 20 21
	 19 : 18
	 20 : 18
	 21 : 18 22 23 24
	 22 : 21
	 23 : 21
	 24 : 12 21 25 26
	 25 : 24
	 26 : 24

	---Fragment 1 Geometry and Gradient---
	 C           7.3464697636        0.3127240642       -0.7042024213
	 H           7.8403031311        2.2417053926       -0.1880772931
	 H           8.3429682843       -0.1575054654       -2.4390391925
	 H           8.0394664287       -0.9296877980        0.7819940974
	 C          -5.7999051772        2.2616809358       -0.1028329533
	 H          -6.6941016243        3.5505534988       -1.4324494564
	 H          -4.2010606715        3.2306365213        0.7440922397
	 H          -7.1522762871        1.8617236410        1.3952289310
	 C           4.5080871497        0.0386088111       -1.0046072413
	 H           4.0662965042       -1.8844608223       -1.5912844022
	 H           3.8396020113        1.2841252488       -2.5079731698
	 C          -5.0005643751       -0.1784386785       -1.3905442931
	 H          -6.6721199577       -1.0635271458       -2.2038531984
	 H          -3.7454744991        0.2437019619       -2.9730123981
	 C           3.0991051682        0.6596232852        1.4158344381
	 H           3.7169901139        2.5110385882        2.0860367570
	 H           3.6322150429       -0.7022786770        2.8744864868
	 C           0.2415473748        0.6635620577        1.1235139004
	 H          -0.2824670162        2.0930207061       -0.2688332322
	 H          -0.6266931435        1.2270712126        2.9088964131
	 C          -0.8173921423       -1.8859905395        0.3370413491
	 H          -0.1707183243       -2.3410290705       -1.5671327477
	 H          -0.0384271497       -3.3352110743        1.5853760226
	 C          -3.6872665844       -2.0492376246        0.3779090604
	 H          -4.2267617585       -3.9711257605       -0.1318562721
	 H          -4.3589564948       -1.7456735935        2.3069136762
	            -0.0015888758       -0.0001223180       -0.0002344603
	            -0.0006554049       -0.0013157744       -0.0003426721
	            -0.0009088859        0.0002561123        0.0011021804
	            -0.0008010109        0.0008129728       -0.0009918246
	             0.0008125183       -0.0012816887       -0.0004981993
	             0.0006705540       -0.0009921247        0.0007466952
	            -0.0010201139       -0.0010196918       -0.0007221220
	             0.0009546783       -0.0000472265       -0.0010996340
	             0.0007167417        0.0004790230        0.0017937270
	             0.0003709435        0.0012733640        0.0008420394
	             0.0004597751       -0.0007136987        0.0012925956
	             0.0001515571        0.0004863653        0.0018394988
	             0.0012114840        0.0004038245        0.0007210252
	            -0.0005834437       -0.0001416325        0.0014704355
	            -0.0009265967       -0.0003748693       -0.0018892278
	            -0.0005233799       -0.0011373121       -0.0006278588
	            -0.0005290692        0.0006391204       -0.0011825410
	             0.0011736438       -0.0014607285       -0.0003332507
	             0.0004411493       -0.0011980403        0.0007306977
	             0.0005638285       -0.0005603529       -0.0012020056
	            -0.0010936870        0.0014801631        0.0004998156
	            -0.0006744829        0.0006636682        0.0012517983
	            -0.0005573605        0.0011683543       -0.0007191671
	             0.0011947971        0.0012383787       -0.0012673679
	             0.0003195024        0.0012559858        0.0000867471
	             0.0008211381        0.0002081259       -0.0012669248

	Previous optimization step data not found.  Starting new optimization.

	---Fragment 1 Intrafragment Coordinates---
	 - Coordinate -           - BOHR/RAD -       - ANG/DEG -
	 R(1,2)           =         2.056994	       1.088514
	 R(1,3)           =         2.055185	       1.087557
	 R(1,4)           =         2.057331	       1.088693
	 R(1,9)           =         2.867368	       1.517346
	 R(5,6)           =         2.056371	       1.088184
	 R(5,7)           =         2.052428	       1.086098
	 R(5,8)           =         2.057441	       1.088751
	 R(5,12)          =         2.872513	       1.520068
	 R(9,10)          =         2.058535	       1.089330
	 R(9,11)          =         2.063563	       1.091991
	 R(9,15)          =         2.868698	       1.518049
	 R(12,13)         =         2.058871	       1.089508
	 R(12,14)         =         2.063409	       1.091909
	 R(12,24)         =         2.889994	       1.529319
	 R(15,16)         =         2.063660	       1.092042
	 R(15,17)         =         2.065587	       1.093061
	 R(15,18)         =         2.872473	       1.520047
	 R(18,19)         =         2.063147	       1.091770
	 R(18,20)         =         2.063728	       1.092078
	 R(18,21)         =         2.870559	       1.519035
	 R(21,22)         =         2.061826	       1.091071
	 R(21,23)         =         2.065276	       1.092897
	 R(21,24)         =         2.874804	       1.521281
	 R(24,25)         =         2.060235	       1.090230
	 R(24,26)         =         2.065037	       1.092770
	 B(1,9,10)        =         1.908806	     109.366533
	 B(1,9,11)        =         1.916966	     109.834064
	 B(1,9,15)        =         1.957461	     112.154240
	 B(2,1,3)         =         1.885946	     108.056760
	 B(2,1,4)         =         1.879883	     107.709350
	 B(2,1,9)         =         1.932197	     110.706717
	 B(3,1,4)         =         1.884194	     107.956338
	 B(3,1,9)         =         1.949439	     111.694633
	 B(4,1,9)         =         1.929850	     110.572281
	 B(5,12,13)       =         1.892667	     108.441820
	 B(5,12,14)       =         1.916941	     109.832631
	 B(5,12,24)       =         1.984532	     113.705280
	 B(6,5,7)         =         1.885624	     108.038316
	 B(6,5,8)         =         1.882632	     107.866891
	 B(6,5,12)        =         1.942897	     111.319798
	 B(7,5,8)         =         1.879016	     107.659701
	 B(7,5,12)        =         1.948995	     111.669173
	 B(8,5,12)        =         1.922165	     110.131960
	 B(9,15,16)       =         1.897765	     108.733911
	 B(9,15,17)       =         1.903214	     109.046134
	 B(9,15,18)       =         1.985632	     113.768324
	 B(10,9,11)       =         1.861581	     106.660721
	 B(10,9,15)       =         1.914832	     109.711783
	 B(11,9,15)       =         1.901724	     108.960736
	 B(12,24,21)      =         1.991269	     114.091287
	 B(12,24,25)      =         1.910769	     109.479006
	 B(12,24,26)      =         1.905662	     109.186384
	 B(13,12,14)      =         1.853371	     106.190345
	 B(13,12,24)      =         1.909626	     109.413536
	 B(14,12,24)      =         1.902145	     108.984890
	 B(15,18,19)      =         1.898952	     108.801934
	 B(15,18,20)      =         1.908015	     109.321221
	 B(15,18,21)      =         1.975390	     113.181490
	 B(16,15,17)      =         1.859703	     106.553143
	 B(16,15,18)      =         1.906758	     109.249189
	 B(17,15,18)      =         1.906591	     109.239595
	 B(18,21,22)      =         1.910646	     109.471964
	 B(18,21,23)      =         1.894939	     108.572028
	 B(18,21,24)      =         1.998524	     114.507004
	 B(19,18,20)      =         1.862725	     106.726309
	 B(19,18,21)      =         1.914291	     109.680785
	 B(20,18,21)      =         1.901115	     108.925885
	 B(21,24,25)      =         1.886901	     108.111471
	 B(21,24,26)      =         1.906720	     109.247035
	 B(22,21,23)      =         1.859867	     106.562508
	 B(22,21,24)      =         1.889884	     108.282350
	 B(23,21,24)      =         1.905073	     109.152651
	 B(25,24,26)      =         1.857807	     106.444525
	 D(1,9,15,16)     =         0.911483	      52.224141
	 D(1,9,15,17)     =        -1.109737	     -63.583261
	 D(1,9,15,18)     =         3.040572	     174.211955
	 D(2,1,9,10)      =         3.103569	     177.821393
	 D(2,1,9,11)      =         1.066178	      61.087491
	 D(2,1,9,15)      =        -1.051240	     -60.231634
	 D(3,1,9,10)      =         1.001061	      57.356556
	 D(3,1,9,11)      =        -1.036330	     -59.377346
	 D(3,1,9,15)      =         3.129437	     179.303529
	 D(4,1,9,10)      =        -1.097626	     -62.889360
	 D(4,1,9,11)      =        -3.135017	    -179.623262
	 D(4,1,9,15)      =         1.030750	      59.057612
	 D(5,12,24,21)    =        -1.656830	     -94.929345
	 D(5,12,24,25)    =         2.509460	     143.781475
	 D(5,12,24,26)    =         0.481937	      27.612977
	 D(6,5,12,13)     =        -1.031228	     -59.084990
	 D(6,5,12,14)     =         0.987083	      56.555697
	 D(6,5,12,24)     =         3.123642	     178.971505
	 D(7,5,12,13)     =        -3.140404	    -179.931898
	 D(7,5,12,14)     =        -1.122093	     -64.291212
	 D(7,5,12,24)     =         1.014466	      58.124597
	 D(8,5,12,13)     =         1.056077	      60.508733
	 D(8,5,12,14)     =         3.074387	     176.149419
	 D(8,5,12,24)     =        -1.072239	     -61.434773
	 D(9,15,18,19)    =        -1.058621	     -60.654505
	 D(9,15,18,20)    =        -3.086731	    -176.856647
	 D(9,15,18,21)    =         1.074085	      61.540554
	 D(10,9,15,16)    =         3.036417	     173.973873
	 D(10,9,15,17)    =         1.015196	      58.166470
	 D(10,9,15,18)    =        -1.117679	     -64.038314
	 D(11,9,15,16)    =        -1.214669	     -69.595430
	 D(11,9,15,17)    =         3.047295	     174.597168
	 D(11,9,15,18)    =         0.914420	      52.392384
	 D(12,24,21,18)   =         1.056005	      60.504631
	 D(12,24,21,22)   =        -1.080999	     -61.936687
	 D(12,24,21,23)   =        -3.099115	    -177.566187
	 D(13,12,24,21)   =         2.507466	     143.667243
	 D(13,12,24,25)   =         0.390571	      22.378063
	 D(13,12,24,26)   =        -1.636952	     -93.790436
	 D(14,12,24,21)   =         0.487865	      27.952629
	 D(14,12,24,25)   =        -1.629030	     -93.336551
	 D(14,12,24,26)   =         2.626632	     150.494951
	 D(15,18,21,22)   =        -1.155656	     -66.214192
	 D(15,18,21,23)   =         0.868248	      49.746952
	 D(15,18,21,24)   =         3.001836	     171.992512
	 D(16,15,18,19)   =         1.065485	      61.047789
	 D(16,15,18,20)   =        -0.962625	     -55.154353
	 D(16,15,18,21)   =        -3.084994	    -176.757152
	 D(17,15,18,19)   =         3.093553	     177.247551
	 D(17,15,18,20)   =         1.065443	      61.045409
	 D(17,15,18,21)   =        -1.056926	     -60.557390
	 D(18,21,24,25)   =        -3.097115	    -177.451597
	 D(18,21,24,26)   =        -1.082183	     -62.004539
	 D(19,18,21,22)   =         0.968465	      55.488971
	 D(19,18,21,23)   =         2.992369	     171.450115
	 D(19,18,21,24)   =        -1.157229	     -66.304325
	 D(20,18,21,22)   =         3.001289	     171.961177
	 D(20,18,21,23)   =        -1.257993	     -72.077679
	 D(20,18,21,24)   =         0.875595	      50.167881
	 D(22,21,24,25)   =         1.049067	      60.107084
	 D(22,21,24,26)   =         3.063998	     175.554143
	 D(23,21,24,25)   =        -0.969049	     -55.522416
	 D(23,21,24,26)   =         1.045882	      59.924643
	 R(5,18)          =         6.368442	       3.370035

	Current energy   :      -314.9802289572

	Generating empirical Hessian (Schlegel '84) for each fragment.
	Taking RFO optimization step.
	Going to follow RFO solution 1.
	Using RFO vector 1.
	Norm of target step-size    0.16009
	Projected energy change by RFO approximation:        -0.0013022822

	Back-transformation to cartesian coordinates...
	Successfully converged to displaced geometry.

	--- Internal Coordinate Step in ANG or DEG, aJ/ANG or AJ/DEG ---
	 ---------------------------------------------------------------------------
	   Coordinate                Previous        Force       Change         New 
	   ----------                --------       ------       ------       ------
	    1 R(1,2)          =      1.088514     0.012170     0.002231     1.090745
	    2 R(1,3)          =      1.087557     0.011779     0.002152     1.089709
	    3 R(1,4)          =      1.088693     0.012171     0.002232     1.090925
	    4 R(1,9)          =      1.517346     0.032942     0.006895     1.524241
	    5 R(5,6)          =      1.088184     0.011503     0.002106     1.090290
	    6 R(5,7)          =      1.086098     0.012968     0.002358     1.088456
	    7 R(5,8)          =      1.088751     0.011691     0.002144     1.090895
	    8 R(5,12)         =      1.520068     0.029344     0.006711     1.526779
	    9 R(9,10)         =      1.089330     0.012434     0.002285     1.091615
	   10 R(9,11)         =      1.091991     0.012534     0.002324     1.094314
	   11 R(9,15)         =      1.518049     0.034996     0.007342     1.525391
	   12 R(12,13)        =      1.089508     0.011880     0.002185     1.091692
	   13 R(12,14)        =      1.091909     0.012453     0.002308     1.094217
	   14 R(12,24)        =      1.529319     0.028804     0.007226     1.536545
	   15 R(15,16)        =      1.092042     0.011377     0.002110     1.094151
	   16 R(15,17)        =      1.093061     0.011477     0.002135     1.095197
	   17 R(15,18)        =      1.520047     0.036143     0.007631     1.527678
	   18 R(18,19)        =      1.091770     0.011825     0.002191     1.093961
	   19 R(18,20)        =      1.092078     0.011782     0.002185     1.094263
	   20 R(18,21)        =      1.519035     0.032681     0.007114     1.526148
	   21 R(21,22)        =      1.091071     0.012474     0.002306     1.093377
	   22 R(21,23)        =      1.092897     0.012068     0.002244     1.095141
	   23 R(21,24)        =      1.521281     0.029960     0.007580     1.528861
	   24 R(24,25)        =      1.090230     0.010519     0.001939     1.092168
	   25 R(24,26)        =      1.092770     0.011699     0.002175     1.094945
	   26 B(1,9,10)       =    109.366533    -0.000000     0.001591   109.368124
	   27 B(1,9,11)       =    109.834064     0.000001    -0.035024   109.799041
	   28 B(1,9,15)       =    112.154240    -0.000011    -0.003110   112.151130
	   29 B(2,1,3)        =    108.056760    -0.000023    -0.106847   107.949912
	   30 B(2,1,4)        =    107.709350    -0.000023    -0.067574   107.641776
	   31 B(2,1,9)        =    110.706717     0.000024     0.105730   110.812447
	   32 B(3,1,4)        =    107.956338    -0.000023    -0.087441   107.868897
	   33 B(3,1,9)        =    111.694633     0.000015     0.040366   111.734999
	   34 B(4,1,9)        =    110.572281     0.000026     0.102629   110.674909
	   35 B(5,12,13)      =    108.441820     0.000017    -0.130142   108.311678
	   36 B(5,12,14)      =    109.832631     0.000002     0.061867   109.894498
	   37 B(5,12,24)      =    113.705280    -0.000041     0.145823   113.851103
	   38 B(6,5,7)        =    108.038316    -0.000022    -0.123620   107.914697
	   39 B(6,5,8)        =    107.866891    -0.000021    -0.102852   107.764039
	   40 B(6,5,12)       =    111.319798     0.000009     0.008032   111.327830
	   41 B(7,5,8)        =    107.659701    -0.000026    -0.111258   107.548443
	   42 B(7,5,12)       =    111.669173     0.000030     0.183737   111.852910
	   43 B(8,5,12)       =    110.131960     0.000027     0.127879   110.259839
	   44 B(9,15,16)      =    108.733911    -0.000026    -0.150777   108.583133
	   45 B(9,15,17)      =    109.046134    -0.000006     0.103312   109.149446
	   46 B(9,15,18)      =    113.768324     0.000060     0.266564   114.034888
	   47 B(10,9,11)      =    106.660721    -0.000015    -0.189502   106.471218
	   48 B(10,9,15)      =    109.711783     0.000016     0.150473   109.862256
	   49 B(11,9,15)      =    108.960736     0.000008     0.066373   109.027109
	   50 B(12,24,21)     =    114.091287    -0.000068     0.200558   114.291845
	   51 B(12,24,25)     =    109.479006     0.000028    -0.082964   109.396043
	   52 B(12,24,26)     =    109.186384     0.000016     0.065097   109.251481
	   53 B(13,12,14)     =    106.190345    -0.000019    -0.217133   105.973212
	   54 B(13,12,24)     =    109.413536     0.000020    -0.027896   109.385640
	   55 B(14,12,24)     =    108.984890     0.000022     0.138961   109.123851
	   56 B(15,18,19)     =    108.801934    -0.000019    -0.001763   108.800172
	   57 B(15,18,20)     =    109.321221    -0.000017    -0.126296   109.194925
	   58 B(15,18,21)     =    113.181490     0.000052     0.226910   113.408400
	   59 B(16,15,17)     =    106.553143    -0.000004    -0.223071   106.330071
	   60 B(16,15,18)     =    109.249189    -0.000012    -0.078153   109.171036
	   61 B(17,15,18)     =    109.239595    -0.000015     0.047716   109.287311
	   62 B(18,21,22)     =    109.471964     0.000029     0.125223   109.597187
	   63 B(18,21,23)     =    108.572028     0.000031    -0.064331   108.507697
	   64 B(18,21,24)     =    114.507004    -0.000083     0.135889   114.642893
	   65 B(19,18,20)     =    106.726309    -0.000001    -0.169895   106.556414
	   66 B(19,18,21)     =    109.680785     0.000001     0.152658   109.833443
	   67 B(20,18,21)     =    108.925885    -0.000018    -0.106722   108.819163
	   68 B(21,24,25)     =    108.111471     0.000030    -0.127088   107.984383
	   69 B(21,24,26)     =    109.247035     0.000021     0.161207   109.408243
	   70 B(22,21,23)     =    106.562508    -0.000025    -0.203026   106.359481
	   71 B(22,21,24)     =    108.282350     0.000029     0.070810   108.353160
	   72 B(23,21,24)     =    109.152651     0.000022    -0.091118   109.061533
	   73 B(25,24,26)     =    106.444525    -0.000025    -0.252106   106.192420
	   74 D(1,9,15,16)    =     52.224141    -0.000002     0.547443    52.771584
	   75 D(1,9,15,17)    =    -63.583261     0.000003     0.839053   -62.744208
	   76 D(1,9,15,18)    =    174.211955    -0.000000     0.516303   174.728258
	   77 D(2,1,9,10)     =    177.821393    -0.000003    -0.079432   177.741961
	   78 D(2,1,9,11)     =     61.087491     0.000001     0.168635    61.256126
	   79 D(2,1,9,15)     =    -60.231634     0.000000     0.110765   -60.120869
	   80 D(3,1,9,10)     =     57.356556    -0.000002    -0.043346    57.313210
	   81 D(3,1,9,11)     =    -59.377346     0.000002     0.204721   -59.172625
	   82 D(3,1,9,15)     =    179.303529     0.000001     0.146851   179.450380
	   83 D(4,1,9,10)     =    -62.889360    -0.000002    -0.029364   -62.918725
	   84 D(4,1,9,11)     =   -179.623262     0.000002     0.218703  -179.404559
	   85 D(4,1,9,15)     =     59.057612     0.000001     0.160833    59.218445
	   86 D(5,12,24,21)   =    -94.929345     0.000007     1.668428   -93.260917
	   87 D(5,12,24,25)   =    143.781475     0.000004     1.756646   145.538120
	   88 D(5,12,24,26)   =     27.612977     0.000005     2.068823    29.681800
	   89 D(6,5,12,13)    =    -59.084990     0.000002     0.439248   -58.645741
	   90 D(6,5,12,14)    =     56.555697    -0.000001     0.141007    56.696703
	   91 D(6,5,12,24)    =    178.971505    -0.000000     0.472334   179.443839
	   92 D(7,5,12,13)    =   -179.931898     0.000002     0.464615  -179.467282
	   93 D(7,5,12,14)    =    -64.291212    -0.000000     0.166374   -64.124838
	   94 D(7,5,12,24)    =     58.124597     0.000000     0.497702    58.622298
	   95 D(8,5,12,13)    =     60.508733     0.000001     0.399735    60.908468
	   96 D(8,5,12,14)    =    176.149419    -0.000001     0.101494   176.250913
	   97 D(8,5,12,24)    =    -61.434773    -0.000001     0.432821   -61.001951
	   98 D(9,15,18,19)   =    -60.654505    -0.000000     1.446626   -59.207879
	   99 D(9,15,18,20)   =   -176.856647     0.000005     1.719824  -175.136823
	  100 D(9,15,18,21)   =     61.540554     0.000005     1.794377    63.334931
	  101 D(10,9,15,16)   =    173.973873    -0.000001     0.653020   174.626893
	  102 D(10,9,15,17)   =     58.166470     0.000004     0.944630    59.111100
	  103 D(10,9,15,18)   =    -64.038314     0.000000     0.621880   -63.416434
	  104 D(11,9,15,16)   =    -69.595430    -0.000002     0.547790   -69.047640
	  105 D(11,9,15,17)   =    174.597168     0.000003     0.839400   175.436567
	  106 D(11,9,15,18)   =     52.392384    -0.000001     0.516650    52.909033
	  107 D(12,24,21,18)  =     60.504631    -0.000002     1.280517    61.785149
	  108 D(12,24,21,22)  =    -61.936687    -0.000002     0.971704   -60.964983
	  109 D(12,24,21,23)  =   -177.566187    -0.000002     1.222314  -176.343874
	  110 D(13,12,24,21)  =    143.667243     0.000005     1.757079   145.424322
	  111 D(13,12,24,25)  =     22.378063     0.000002     1.845297    24.223360
	  112 D(13,12,24,26)  =    -93.790436     0.000003     2.157475   -91.632961
	  113 D(14,12,24,21)  =     27.952629     0.000005     1.954718    29.907347
	  114 D(14,12,24,25)  =    -93.336551     0.000002     2.042936   -91.293615
	  115 D(14,12,24,26)  =    150.494951     0.000003     2.355114   152.850064
	  116 D(15,18,21,22)  =    -66.214192    -0.000000     0.839966   -65.374226
	  117 D(15,18,21,23)  =     49.746952     0.000000     0.630200    50.377152
	  118 D(15,18,21,24)  =    171.992512    -0.000001     0.556830   172.549342
	  119 D(16,15,18,19)  =     61.047789    -0.000001     1.376720    62.424509
	  120 D(16,15,18,20)  =    -55.154353     0.000004     1.649918   -53.504435
	  121 D(16,15,18,21)  =   -176.757152     0.000004     1.724470  -175.032681
	  122 D(17,15,18,19)  =    177.247551    -0.000005     1.092504   178.340054
	  123 D(17,15,18,20)  =     61.045409    -0.000000     1.365702    62.411110
	  124 D(17,15,18,21)  =    -60.557390    -0.000000     1.440254   -59.117136
	  125 D(18,21,24,25)  =   -177.451597     0.000001     1.214311  -176.237286
	  126 D(18,21,24,26)  =    -62.004539     0.000001     0.931969   -61.072569
	  127 D(19,18,21,22)  =     55.488971     0.000002     1.105701    56.594672
	  128 D(19,18,21,23)  =    171.450115     0.000003     0.895934   172.346049
	  129 D(19,18,21,24)  =    -66.304325     0.000002     0.822565   -65.481760
	  130 D(20,18,21,22)  =    171.961177    -0.000000     0.926227   172.887404
	  131 D(20,18,21,23)  =    -72.077679     0.000001     0.716461   -71.361218
	  132 D(20,18,21,24)  =     50.167881    -0.000001     0.643092    50.810972
	  133 D(22,21,24,25)  =     60.107084     0.000001     0.905498    61.012582
	  134 D(22,21,24,26)  =    175.554143     0.000000     0.623156   176.177299
	  135 D(23,21,24,25)  =    -55.522416     0.000001     1.156107   -54.366309
	  136 D(23,21,24,26)  =     59.924643     0.000000     0.873766    60.798408
	  137 R(5,18)         =      3.370035     0.007924     0.008111     3.378146
	 ---------------------------------------------------------------------------

  ==> Convergence Check <==

  Measures of convergence in internal coordinates in au.
  Criteria marked as inactive (o), active & met (*), and active & unmet ( ).
  --------------------------------------------------------------------------------------------- ~
   Step     Total Energy     Delta E     MAX Force     RMS Force      MAX Disp      RMS Disp    ~
  --------------------------------------------------------------------------------------------- ~
    Convergence Criteria             o    2.00e-06 *    1.00e-06 *    6.00e-06 *    4.00e-06 *  ~
  --------------------------------------------------------------------------------------------- ~
      1    -314.98022896   -3.15e+02 o    4.39e-03      1.06e-03      4.11e-02      1.37e-02    ~
  ---------------------------------------------------------------------------------------------

	Writing optimization data to binary file.
	Structure for next step:
	Cartesian Geometry (in Angstrom)
	    C     3.9047544616   0.2215009039  -0.3525505270
	    H     4.1612076389   1.2340901755  -0.0385132033
	    H     4.4392199134   0.0116171259  -1.2787041840
	    H     4.2747198850  -0.4649425827   0.4103633275
	    C    -3.0667006882   1.1813050351  -0.1209729460
	    H    -3.5502947321   1.8375479034  -0.8449999658
	    H    -2.2094273770   1.7108623922   0.2905943459
	    H    -3.7702628587   1.0100760329   0.6949516982
	    C     2.3975327940   0.0732076199  -0.5246055921
	    H     2.1708378588  -0.9347418859  -0.8771247873
	    H     2.0435899325   0.7599048673  -1.2996510066
	    C    -2.6625142588  -0.1461125720  -0.7578794130
	    H    -3.5598778989  -0.6217645575  -1.1582364951
	    H    -2.0097604505   0.0365242206  -1.6168719037
	    C     1.6406701289   0.3519023648   0.7701171523
	    H     1.9555639780   1.3264256097   1.1552321911
	    H     1.9340822344  -0.3865077173   1.5238516928
	    C     0.1207128528   0.3402272608   0.6171671680
	    H    -0.1657658576   1.1006457808  -0.1152560692
	    H    -0.3386446646   0.6327539826   1.5662880317
	    C    -0.4361274163  -1.0176550240   0.1985832457
	    H    -0.0836374878  -1.2645299693  -0.8065419817
	    H    -0.0253643660  -1.7825675031   0.8660537128
	    C    -1.9620296204  -1.1119943312   0.2102967063
	    H    -2.2383214004  -2.1388951982  -0.0386398144
	    H    -2.3297501610  -0.9345994090   1.2262775741
			--------------------------
			 OPTKING Finished Execution 
			--------------------------

    Structure for next step:
    Molecular point group: c1
    Full point group: C1

    Geometry (in Angstrom), charge = 0, multiplicity = 1:

    C            3.905287522303     0.222820926436    -0.353761968248
    H            4.161740699630     1.235410198048    -0.039724644540
    H            4.439752974118     0.012937148457    -1.279915625175
    H            4.275252945720    -0.463622560157     0.409151886275
    C           -3.066167627498     1.182625057686    -0.122184387177
    H           -3.549761671370     1.838867925926    -0.846211407019
    H           -2.208894316302     1.712182414783     0.289382904684
    H           -3.769729797945     1.011396055485     0.693740256951
    C            2.398065854740     0.074527642464    -0.525817033303
    H            2.171370919515    -0.933421863392    -0.878336228457
    H            2.044122993178     0.761224889889    -1.300862447829
    C           -2.661981198076    -0.144792549468    -0.759090854184
    H           -3.559344838175    -0.620444534898    -1.159447936253
    H           -2.009227389783     0.037844243112    -1.618083344854
    C            1.641203189637     0.353222387369     0.768905711075
    H            1.956097038709     1.327745632221     1.154020749948
    H            1.934615295104    -0.385187694766     1.522640251551
    C            0.121245913549     0.341547283333     0.615955726773
    H           -0.165232796907     1.101965803315    -0.116467510426
    H           -0.338111603905     0.634074005142     1.565076590501
    C           -0.435594355588    -1.016335001450     0.197371804482
    H           -0.083104427070    -1.263209946725    -0.807753422855
    H           -0.024831305241    -1.781247480531     0.864842271584
    C           -1.961496559663    -1.110674308689     0.209085265101
    H           -2.237788339643    -2.137575175626    -0.039851255607
    H           -2.329217100292    -0.933279386457     1.225066132919

gradient() will perform analytic gradient computation.

*** tstart() called on wr32
*** at Tue Sep 20 16:52:36 2016


         ---------------------------------------------------------
                                   SCF
            by Justin Turney, Rob Parrish, and Andy Simmonett
                              RHF Reference
                       12 Threads,  30000 MiB Core
         ---------------------------------------------------------

  ==> Geometry <==

    Molecular point group: c1
    Full point group: C1

    Geometry (in Angstrom), charge = 0, multiplicity = 1:

       Center              X                  Y                   Z               Mass       
    ------------   -----------------  -----------------  -----------------  -----------------
           C          3.905287522303     0.222820926436    -0.353761968248    12.000000000000
           H          4.161740699630     1.235410198048    -0.039724644540     1.007825032070
           H          4.439752974118     0.012937148457    -1.279915625175     1.007825032070
           H          4.275252945720    -0.463622560157     0.409151886275     1.007825032070
           C         -3.066167627498     1.182625057686    -0.122184387177    12.000000000000
           H         -3.549761671370     1.838867925926    -0.846211407019     1.007825032070
           H         -2.208894316302     1.712182414783     0.289382904684     1.007825032070
           H         -3.769729797945     1.011396055485     0.693740256951     1.007825032070
           C          2.398065854740     0.074527642464    -0.525817033303    12.000000000000
           H          2.171370919515    -0.933421863392    -0.878336228457     1.007825032070
           H          2.044122993178     0.761224889889    -1.300862447829     1.007825032070
           C         -2.661981198076    -0.144792549468    -0.759090854184    12.000000000000
           H         -3.559344838175    -0.620444534898    -1.159447936253     1.007825032070
           H         -2.009227389783     0.037844243112    -1.618083344854     1.007825032070
           C          1.641203189637     0.353222387369     0.768905711075    12.000000000000
           H          1.956097038709     1.327745632221     1.154020749948     1.007825032070
           H          1.934615295104    -0.385187694766     1.522640251551     1.007825032070
           C          0.121245913549     0.341547283333     0.615955726773    12.000000000000
           H         -0.165232796907     1.101965803315    -0.116467510426     1.007825032070
           H         -0.338111603905     0.634074005142     1.565076590501     1.007825032070
           C         -0.435594355588    -1.016335001450     0.197371804482    12.000000000000
           H         -0.083104427070    -1.263209946725    -0.807753422855     1.007825032070
           H         -0.024831305241    -1.781247480531     0.864842271584     1.007825032070
           C         -1.961496559663    -1.110674308689     0.209085265101    12.000000000000
           H         -2.237788339643    -2.137575175626    -0.039851255607     1.007825032070
           H         -2.329217100292    -0.933279386457     1.225066132919     1.007825032070

  Running in c1 symmetry.

  Rotational constants: A =      0.14591  B =      0.02388  C =      0.02292 [cm^-1]
  Rotational constants: A =   4374.34998  B =    715.82830  C =    687.23699 [MHz]
  Nuclear repulsion =  392.600193459675722

  Charge       = 0
  Multiplicity = 1
  Electrons    = 66
  Nalpha       = 33
  Nbeta        = 33

  ==> Algorithm <==

  SCF Algorithm Type is DF.
  DIIS enabled.
  MOM disabled.
  Fractional occupation disabled.
  Guess Type is READ.
  Energy threshold   = 1.00e-10
  Density threshold  = 1.00e-10
  Integral threshold = 0.00e+00

  ==> Primary Basis <==

  Basis Set: AUG-CC-PVTZ
    Number of shells: 274
    Number of basis function: 782
    Number of Cartesian functions: 890
    Spherical Harmonics?: true
    Max angular momentum: 3

  ==> Pre-Iterations <==

   -------------------------------------------------------
    Irrep   Nso     Nmo     Nalpha   Nbeta   Ndocc  Nsocc
   -------------------------------------------------------
     A        782     782       0       0       0       0
   -------------------------------------------------------
    Total     782     782      33      33      33       0
   -------------------------------------------------------

  ==> Integral Setup <==

  ==> DFJK: Density-Fitted J/K Matrices <==

    J tasked:                  Yes
    K tasked:                  Yes
    wK tasked:                  No
    OpenMP threads:             12
    Integrals threads:          12
    Memory (MB):             21457
    Algorithm:                Core
    Integral Cache:           NONE
    Schwarz Cutoff:          1E-12
    Fitting Condition:       1E-12

   => Auxiliary Basis Set <=

  Basis Set: 
    Number of shells: 492
    Number of basis function: 1660
    Number of Cartesian functions: 2038
    Spherical Harmonics?: true
    Max angular momentum: 4

  Minimum eigenvalue in the overlap matrix is 1.7655186674E-06.
  Using Symmetric Orthogonalization.
  SCF Guess: Reading in previously saved MOs, projecting if necessary.

  Using orbitals from previous SCF, no projection.
  Recomputing DOCC and SOCC from number of alpha and beta electrons from previous calculation.
              A 
    DOCC [    33 ]

  ==> Iterations <==

                           Total Energy        Delta E     RMS |[F,P]|

   @DF-RHF iter   0:  -313.48016598458702   -3.13480e+02   1.28991e-04 
   @DF-RHF iter   1:  -313.53838795432745   -5.82220e-02   2.93697e-05 
   @DF-RHF iter   2:  -313.53884159990429   -4.53646e-04   1.25303e-05 DIIS
   @DF-RHF iter   3:  -313.53891150663941   -6.99067e-05   4.71340e-06 DIIS
   @DF-RHF iter   4:  -313.53892679540201   -1.52888e-05   5.59453e-07 DIIS
   @DF-RHF iter   5:  -313.53892703047126   -2.35069e-07   1.89293e-07 DIIS
   @DF-RHF iter   6:  -313.53892704910930   -1.86380e-08   4.23310e-08 DIIS
   @DF-RHF iter   7:  -313.53892705026357   -1.15426e-09   9.29830e-09 DIIS
   @DF-RHF iter   8:  -313.53892705031382   -5.02496e-11   2.92483e-09 DIIS
   @DF-RHF iter   9:  -313.53892705031825   -4.43379e-12   7.28439e-10 DIIS
   @DF-RHF iter  10:  -313.53892705031848   -2.27374e-13   1.86994e-10 DIIS
   @DF-RHF iter  11:  -313.53892705031893   -4.54747e-13   4.37179e-11 DIIS

  ==> Post-Iterations <==

    Orbital Energies (a.u.)
    -----------------------

    Doubly Occupied:                                                      

       1A    -11.212949     2A    -11.212327     3A    -11.211015  
       4A    -11.210814     5A    -11.210408     6A    -11.209971  
       7A    -11.207167     8A    -11.205560     9A     -1.093631  
      10A     -1.059091    11A     -1.006771    12A     -0.951606  
      13A     -0.879620    14A     -0.829132    15A     -0.789506  
      16A     -0.760988    17A     -0.644519    18A     -0.622160  
      19A     -0.611713    20A     -0.596744    21A     -0.576830  
      22A     -0.559685    23A     -0.544743    24A     -0.538707  
      25A     -0.508210    26A     -0.498663    27A     -0.487472  
      28A     -0.477976    29A     -0.468752    30A     -0.462008  
      31A     -0.444935    32A     -0.437780    33A     -0.432372  

    Virtual:                                                              

      34A      0.030171    35A      0.032806    36A      0.034212  
      37A      0.035700    38A      0.045879    39A      0.047853  
      40A      0.048512    41A      0.054405    42A      0.054524  
      43A      0.066040    44A      0.067774    45A      0.069077  
      46A      0.072335    47A      0.078954    48A      0.086844  
      49A      0.091186    50A      0.098215    51A      0.101469  
      52A      0.114476    53A      0.116582    54A      0.118642  
      55A      0.121994    56A      0.126177    57A      0.130265  
      58A      0.132893    59A      0.137222    60A      0.138414  
      61A      0.147055    62A      0.148801    63A      0.153172  
      64A      0.153806    65A      0.156192    66A      0.160890  
      67A      0.163788    68A      0.167016    69A      0.172098  
      70A      0.175691    71A      0.178588    72A      0.181803  
      73A      0.190862    74A      0.194813    75A      0.197837  
      76A      0.205395    77A      0.218131    78A      0.225092  
      79A      0.226323    80A      0.238758    81A      0.242188  
      82A      0.246076    83A      0.250261    84A      0.258597  
      85A      0.266345    86A      0.269867    87A      0.276282  
      88A      0.279404    89A      0.285140    90A      0.292239  
      91A      0.297659    92A      0.303639    93A      0.308614  
      94A      0.312471    95A      0.315166    96A      0.318959  
      97A      0.326124    98A      0.328593    99A      0.329541  
     100A      0.334893   101A      0.343029   102A      0.345099  
     103A      0.349977   104A      0.350841   105A      0.352182  
     106A      0.357089   107A      0.362935   108A      0.365052  
     109A      0.368437   110A      0.371522   111A      0.374775  
     112A      0.380931   113A      0.384477   114A      0.386904  
     115A      0.393868   116A      0.396769   117A      0.399752  
     118A      0.402583   119A      0.404967   120A      0.409437  
     121A      0.411925   122A      0.418266   123A      0.421812  
     124A      0.429340   125A      0.431583   126A      0.438424  
     127A      0.438676   128A      0.441726   129A      0.448019  
     130A      0.450173   131A      0.456453   132A      0.461588  
     133A      0.464677   134A      0.466158   135A      0.468185  
     136A      0.471965   137A      0.472752   138A      0.476280  
     139A      0.480985   140A      0.483260   141A      0.487888  
     142A      0.496139   143A      0.498963   144A      0.500868  
     145A      0.503379   146A      0.508383   147A      0.510143  
     148A      0.516824   149A      0.520973   150A      0.522341  
     151A      0.524816   152A      0.531826   153A      0.532627  
     154A      0.545037   155A      0.549798   156A      0.551758  
     157A      0.555823   158A      0.559543   159A      0.562613  
     160A      0.565868   161A      0.577559   162A      0.582763  
     163A      0.584923   164A      0.588380   165A      0.589821  
     166A      0.591485   167A      0.602571   168A      0.606352  
     169A      0.608307   170A      0.609069   171A      0.617819  
     172A      0.621421   173A      0.623356   174A      0.629530  
     175A      0.637982   176A      0.645499   177A      0.653476  
     178A      0.656499   179A      0.660631   180A      0.662273  
     181A      0.668266   182A      0.671321   183A      0.679189  
     184A      0.684425   185A      0.687839   186A      0.692131  
     187A      0.693795   188A      0.709796   189A      0.717776  
     190A      0.720424   191A      0.723207   192A      0.728542  
     193A      0.735267   194A      0.741756   195A      0.750853  
     196A      0.762262   197A      0.769185   198A      0.780379  
     199A      0.781409   200A      0.793360   201A      0.798930  
     202A      0.813735   203A      0.817387   204A      0.821373  
     205A      0.832020   206A      0.838926   207A      0.843826  
     208A      0.847817   209A      0.852026   210A      0.859987  
     211A      0.864254   212A      0.870655   213A      0.875212  
     214A      0.878063   215A      0.881233   216A      0.887145  
     217A      0.895230   218A      0.901296   219A      0.905712  
     220A      0.910924   221A      0.915899   222A      0.918551  
     223A      0.923408   224A      0.926432   225A      0.934352  
     226A      0.936161   227A      0.943086   228A      0.947585  
     229A      0.949721   230A      0.954201   231A      0.958136  
     232A      0.965101   233A      0.970728   234A      0.977610  
     235A      0.984235   236A      0.989480   237A      0.990826  
     238A      0.996718   239A      0.998861   240A      1.003568  
     241A      1.013369   242A      1.019323   243A      1.025505  
     244A      1.029063   245A      1.036382   246A      1.042806  
     247A      1.045640   248A      1.051676   249A      1.057668  
     250A      1.063819   251A      1.068765   252A      1.072968  
     253A      1.078871   254A      1.085222   255A      1.086874  
     256A      1.091837   257A      1.100066   258A      1.104875  
     259A      1.108665   260A      1.114494   261A      1.118224  
     262A      1.121628   263A      1.122743   264A      1.133320  
     265A      1.134588   266A      1.143911   267A      1.146363  
     268A      1.149507   269A      1.158293   270A      1.168111  
     271A      1.169031   272A      1.174421   273A      1.176479  
[...]
	 D(20,18,21,23)   =        -1.247980	     -71.503999
	 D(20,18,21,24)   =         0.882569	      50.567494
	 D(22,21,24,25)   =         1.050992	      60.217415
	 D(22,21,24,26)   =         3.062460	     175.466021
	 D(23,21,24,25)   =        -0.963116	     -55.182469
	 D(23,21,24,26)   =         1.048352	      60.066137
	 R(5,18)          =         6.399772	       3.386614

	Current energy   :      -314.9805084431

	Energy change for the previous step:
		Projected    :        -0.0000000000
		Actual       :         0.0000000024

	Performing BFGS update.
	Previous computed or guess Hessian on step 1.
	Denominators (dg)(dq) or (dq)(dq) are very small.
	 Skipping Hessian update for step 15.
	Denominators (dg)(dq) or (dq)(dq) are very small.
	 Skipping Hessian update for step 14.
	Denominators (dg)(dq) or (dq)(dq) are very small.
	 Skipping Hessian update for step 13.
	Denominators (dg)(dq) or (dq)(dq) are very small.
	 Skipping Hessian update for step 12.
	Denominators (dg)(dq) or (dq)(dq) are very small.
	 Skipping Hessian update for step 11.
	Denominators (dg)(dq) or (dq)(dq) are very small.
	 Skipping Hessian update for step 10.
	Denominators (dg)(dq) or (dq)(dq) are very small.
	 Skipping Hessian update for step 9.
	Denominators (dg)(dq) or (dq)(dq) are very small.
	 Skipping Hessian update for step 8.
	Denominators (dg)(dq) or (dq)(dq) are very small.
	 Skipping Hessian update for step 7.
	Denominators (dg)(dq) or (dq)(dq) are very small.
	 Skipping Hessian update for step 6.
	Steps to be used in Hessian update: 5 4
	Taking RFO optimization step.
	Going to follow RFO solution 1.
	Using RFO vector 1.
	Norm of target step-size    0.00001
	Projected energy change by RFO approximation:        -0.0000000000

	Back-transformation to cartesian coordinates...
	Successfully converged to displaced geometry.

	--- Internal Coordinate Step in ANG or DEG, aJ/ANG or AJ/DEG ---
	 ---------------------------------------------------------------------------
	   Coordinate                Previous        Force       Change         New 
	   ----------                --------       ------       ------       ------
	    1 R(1,2)          =      1.090696     0.000001     0.000000     1.090696
	    2 R(1,3)          =      1.089712     0.000001     0.000000     1.089712
	    3 R(1,4)          =      1.090796     0.000001     0.000000     1.090796
	    4 R(1,9)          =      1.523932    -0.000000    -0.000000     1.523932
	    5 R(5,6)          =      1.090256    -0.000001    -0.000000     1.090256
	    6 R(5,7)          =      1.088404    -0.000002    -0.000000     1.088404
	    7 R(5,8)          =      1.090846    -0.000001    -0.000000     1.090846
	    8 R(5,12)         =      1.526540    -0.000000    -0.000000     1.526540
	    9 R(9,10)         =      1.091587     0.000001     0.000000     1.091587
	   10 R(9,11)         =      1.094032     0.000001     0.000000     1.094032
	   11 R(9,15)         =      1.524752    -0.000000    -0.000000     1.524752
	   12 R(12,13)        =      1.091737    -0.000001    -0.000000     1.091736
	   13 R(12,14)        =      1.094066    -0.000002    -0.000000     1.094066
	   14 R(12,24)        =      1.535328    -0.000002    -0.000000     1.535328
	   15 R(15,16)        =      1.094049     0.000000     0.000000     1.094049
	   16 R(15,17)        =      1.095056     0.000000    -0.000000     1.095056
	   17 R(15,18)        =      1.527097    -0.000001    -0.000000     1.527097
	   18 R(18,19)        =      1.093731    -0.000001    -0.000000     1.093730
	   19 R(18,20)        =      1.094183     0.000000     0.000000     1.094183
	   20 R(18,21)        =      1.525466    -0.000002    -0.000000     1.525465
	   21 R(21,22)        =      1.093304    -0.000000    -0.000000     1.093304
	   22 R(21,23)        =      1.094989    -0.000000    -0.000000     1.094988
	   23 R(21,24)        =      1.528503     0.000000     0.000000     1.528503
	   24 R(24,25)        =      1.092240    -0.000000    -0.000000     1.092240
	   25 R(24,26)        =      1.094783    -0.000001    -0.000000     1.094783
	   26 B(1,9,10)       =    109.387418     0.000000     0.000000   109.387418
	   27 B(1,9,11)       =    109.799211     0.000000     0.000013   109.799224
	   28 B(1,9,15)       =    112.044489     0.000000     0.000010   112.044499
	   29 B(2,1,3)        =    107.966032    -0.000000    -0.000006   107.966026
	   30 B(2,1,4)        =    107.682509    -0.000000    -0.000007   107.682502
	   31 B(2,1,9)        =    110.775419    -0.000000    -0.000004   110.775415
	   32 B(3,1,4)        =    107.895044    -0.000000    -0.000009   107.895035
	   33 B(3,1,9)        =    111.693843     0.000000     0.000007   111.693851
	   34 B(4,1,9)        =    110.674942     0.000000     0.000017   110.674960
	   35 B(5,12,13)      =    108.215353     0.000000     0.000056   108.215409
	   36 B(5,12,14)      =    109.938655     0.000000    -0.000001   109.938654
	   37 B(5,12,24)      =    113.874574    -0.000000    -0.000023   113.874551
	   38 B(6,5,7)        =    107.968640    -0.000000    -0.000015   107.968625
	   39 B(6,5,8)        =    107.787545    -0.000000    -0.000006   107.787539
	   40 B(6,5,12)       =    111.235863     0.000000     0.000013   111.235876
	   41 B(7,5,8)        =    107.606791    -0.000000    -0.000010   107.606781
	   42 B(7,5,12)       =    111.867185     0.000000     0.000033   111.867218
	   43 B(8,5,12)       =    110.208895    -0.000000    -0.000017   110.208877
	   44 B(9,15,16)      =    108.595611    -0.000000     0.000009   108.595620
	   45 B(9,15,17)      =    109.136126    -0.000000    -0.000014   109.136112
	   46 B(9,15,18)      =    113.893530     0.000000     0.000034   113.893564
	   47 B(10,9,11)      =    106.572288    -0.000000    -0.000023   106.572265
	   48 B(10,9,15)      =    109.894110     0.000000    -0.000001   109.894109
	   49 B(11,9,15)      =    108.991954    -0.000000    -0.000001   108.991953
	   50 B(12,24,21)     =    114.375512     0.000000     0.000003   114.375515
	   51 B(12,24,25)     =    109.325648    -0.000000    -0.000009   109.325638
	   52 B(12,24,26)     =    109.208201    -0.000000    -0.000030   109.208171
	   53 B(13,12,14)     =    106.104357    -0.000000    -0.000009   106.104348
	   54 B(13,12,24)     =    109.304219    -0.000000    -0.000010   109.304208
	   55 B(14,12,24)     =    109.109959     0.000000    -0.000012   109.109947
	   56 B(15,18,19)     =    108.787472     0.000000     0.000029   108.787501
	   57 B(15,18,20)     =    109.241903     0.000000     0.000032   109.241934
	   58 B(15,18,21)     =    113.231353    -0.000000    -0.000013   113.231341
	   59 B(16,15,17)     =    106.441771     0.000000    -0.000008   106.441763
	   60 B(16,15,18)     =    109.214758    -0.000000    -0.000005   109.214752
	   61 B(17,15,18)     =    109.291682    -0.000000    -0.000018   109.291664
	   62 B(18,21,22)     =    109.586870    -0.000000    -0.000019   109.586851
	   63 B(18,21,23)     =    108.500623     0.000000     0.000022   108.500645
	   64 B(18,21,24)     =    114.717509    -0.000000    -0.000043   114.717466
	   65 B(19,18,20)     =    106.666678    -0.000000    -0.000002   106.666677
	   66 B(19,18,21)     =    109.826480    -0.000000    -0.000036   109.826444
	   67 B(20,18,21)     =    108.876427    -0.000000    -0.000009   108.876417
	   68 B(21,24,25)     =    107.868978    -0.000000     0.000016   107.868994
	   69 B(21,24,26)     =    109.450886     0.000000     0.000015   109.450901
	   70 B(22,21,23)     =    106.437546    -0.000000     0.000013   106.437559
	   71 B(22,21,24)     =    108.331919     0.000000     0.000010   108.331929
	   72 B(23,21,24)     =    108.948547     0.000000     0.000021   108.948568
	   73 B(25,24,26)     =    106.297379     0.000000     0.000006   106.297385
	   74 D(1,9,15,16)    =     53.620265     0.000000     0.000109    53.620374
	   75 D(1,9,15,17)    =    -62.027845     0.000000     0.000121   -62.027724
	   76 D(1,9,15,18)    =    175.547072     0.000000     0.000132   175.547204
	   77 D(2,1,9,10)     =    178.015264    -0.000000    -0.000007   178.015258
	   78 D(2,1,9,11)     =     61.396135     0.000000     0.000014    61.396149
	   79 D(2,1,9,15)     =    -59.865064    -0.000000    -0.000000   -59.865065
	   80 D(3,1,9,10)     =     57.619136    -0.000000    -0.000001    57.619135
	   81 D(3,1,9,11)     =    -58.999993     0.000000     0.000019   -58.999974
	   82 D(3,1,9,15)     =    179.738807     0.000000     0.000005   179.738812
	   83 D(4,1,9,10)     =    -62.618428    -0.000000    -0.000007   -62.618435
	   84 D(4,1,9,11)     =   -179.237557     0.000000     0.000014  -179.237543
	   85 D(4,1,9,15)     =     59.501243     0.000000    -0.000001    59.501242
	   86 D(5,12,24,21)   =    -93.881883    -0.000000    -0.000038   -93.881920
	   87 D(5,12,24,25)   =    145.061306    -0.000000    -0.000053   145.061253
	   88 D(5,12,24,26)   =     29.142777     0.000000    -0.000038    29.142738
	   89 D(6,5,12,13)    =    -58.595507    -0.000000    -0.000070   -58.595577
	   90 D(6,5,12,14)    =     56.873218     0.000000    -0.000050    56.873168
	   91 D(6,5,12,24)    =    179.652520     0.000000    -0.000082   179.652437
	   92 D(7,5,12,13)    =   -179.431703    -0.000000    -0.000083  -179.431786
	   93 D(7,5,12,14)    =    -63.962978     0.000000    -0.000063   -63.963041
	   94 D(7,5,12,24)    =     58.816324    -0.000000    -0.000096    58.816228
	   95 D(8,5,12,13)    =     60.895442    -0.000000    -0.000080    60.895361
	   96 D(8,5,12,14)    =    176.364166     0.000000    -0.000060   176.364106
	   97 D(8,5,12,24)    =    -60.856532    -0.000000    -0.000093   -60.856624
	   98 D(9,15,18,19)   =    -58.893016     0.000000     0.000214   -58.892802
	   99 D(9,15,18,20)   =   -174.972217    -0.000000     0.000182  -174.972034
	  100 D(9,15,18,21)   =     63.511633    -0.000000     0.000180    63.511813
	  101 D(10,9,15,16)   =    175.450261     0.000000     0.000116   175.450377
	  102 D(10,9,15,17)   =     59.802151     0.000000     0.000128    59.802279
	  103 D(10,9,15,18)   =    -62.622932     0.000000     0.000139   -62.622793
	  104 D(11,9,15,16)   =    -68.104853    -0.000000     0.000087   -68.104766
	  105 D(11,9,15,17)   =    176.247037    -0.000000     0.000099   176.247136
	  106 D(11,9,15,18)   =     53.821954    -0.000000     0.000110    53.822063
	  107 D(12,24,21,18)  =     61.131463    -0.000000    -0.000019    61.131444
	  108 D(12,24,21,22)  =    -61.640611     0.000000     0.000027   -61.640583
	  109 D(12,24,21,23)  =   -177.040494    -0.000000    -0.000005  -177.040499
	  110 D(13,12,24,21)  =    144.970854    -0.000000    -0.000087   144.970766
	  111 D(13,12,24,25)  =     23.914042    -0.000000    -0.000103    23.913939
	  112 D(13,12,24,26)  =    -92.004487    -0.000000    -0.000088   -92.004575
	  113 D(14,12,24,21)  =     29.349823    -0.000000    -0.000064    29.349759
	  114 D(14,12,24,25)  =    -91.706988    -0.000000    -0.000079   -91.707068
	  115 D(14,12,24,26)  =    152.374482     0.000000    -0.000065   152.374418
	  116 D(15,18,21,22)  =    -65.617685    -0.000000    -0.000094   -65.617779
	  117 D(15,18,21,23)  =     50.217244    -0.000000    -0.000076    50.217167
	  118 D(15,18,21,24)  =    172.288737    -0.000000    -0.000062   172.288675
	  119 D(16,15,18,19)  =     62.691203     0.000000     0.000245    62.691448
	  120 D(16,15,18,20)  =    -53.387998     0.000000     0.000213   -53.387784
	  121 D(16,15,18,21)  =   -174.904148     0.000000     0.000211  -174.903937
	  122 D(17,15,18,19)  =    178.767384     0.000000     0.000223   178.767607
	  123 D(17,15,18,20)  =     62.688184    -0.000000     0.000191    62.688374
	  124 D(17,15,18,21)  =    -58.827967    -0.000000     0.000188   -58.827778
	  125 D(18,21,24,25)  =   -177.010511    -0.000000    -0.000018  -177.010529
	  126 D(18,21,24,26)  =    -61.761905    -0.000000     0.000006   -61.761900
	  127 D(19,18,21,22)  =     56.207021     0.000000    -0.000091    56.206930
	  128 D(19,18,21,23)  =    172.041950     0.000000    -0.000074   172.041876
	  129 D(19,18,21,24)  =    -65.886556     0.000000    -0.000060   -65.886616
	  130 D(20,18,21,22)  =    172.661072    -0.000000    -0.000119   172.660953
	  131 D(20,18,21,23)  =    -71.503999    -0.000000    -0.000102   -71.504101
	  132 D(20,18,21,24)  =     50.567494    -0.000000    -0.000088    50.567407
	  133 D(22,21,24,25)  =     60.217415     0.000000     0.000029    60.217444
	  134 D(22,21,24,26)  =    175.466021     0.000000     0.000053   175.466073
	  135 D(23,21,24,25)  =    -55.182469    -0.000000    -0.000003   -55.182472
	  136 D(23,21,24,26)  =     60.066137     0.000000     0.000020    60.066157
	  137 R(5,18)         =      3.386614    -0.000001    -0.000001     3.386612
	 ---------------------------------------------------------------------------

  ==> Convergence Check <==

  Measures of convergence in internal coordinates in au.
  Criteria marked as inactive (o), active & met (*), and active & unmet ( ).
  ---------------------------------------------------------------------------------------------
   Step     Total Energy     Delta E     MAX Force     RMS Force      MAX Disp      RMS Disp   
  ---------------------------------------------------------------------------------------------
    Convergence Criteria             o    2.00e-06 *    1.00e-06 *    6.00e-06 *    4.00e-06 *
  ---------------------------------------------------------------------------------------------
     16    -314.98050844    2.41e-09 o    2.70e-07 *    6.20e-08 *    4.28e-06 *    1.27e-06 *  ~
  ---------------------------------------------------------------------------------------------


  **** Optimization is complete! (in 16 steps) ****

  ==> Optimization Summary <==

  Measures of convergence in internal coordinates in au.
  --------------------------------------------------------------------------------------------------------------- ~
   Step         Total Energy             Delta E       MAX Force       RMS Force        MAX Disp        RMS Disp  ~
  --------------------------------------------------------------------------------------------------------------- ~
      1    -314.980228957228   -314.980228957228      0.00438693      0.00105856      0.04110449      0.01367511  ~
      2    -314.980485730041     -0.000256772814      0.00097134      0.00018752      0.03011730      0.01067978  ~
      3    -314.980490203363     -0.000004473322      0.00043821      0.00012247      0.01797511      0.00612566  ~
      4    -314.980507356368     -0.000017153005      0.00023994      0.00004762      0.00621943      0.00187766  ~
      5    -314.980508165474     -0.000000809107      0.00008133      0.00001995      0.00235169      0.00077414  ~
      6    -314.980508434412     -0.000000268938      0.00002212      0.00000434      0.00033453      0.00011812  ~
      7    -314.980508447077     -0.000000012665      0.00000394      0.00000080      0.00013660      0.00004391  ~
      8    -314.980508444564      0.000000002514      0.00000328      0.00000046      0.00007543      0.00001980  ~
      9    -314.980508448906     -0.000000004343      0.00000104      0.00000023      0.00003687      0.00001088  ~
     10    -314.980508446771      0.000000002135      0.00000189      0.00000047      0.00006007      0.00001646  ~
     11    -314.980508447641     -0.000000000869      0.00000156      0.00000046      0.00003779      0.00001576  ~
     12    -314.980508444372      0.000000003269      0.00000067      0.00000020      0.00001680      0.00000451  ~
     13    -314.980508445704     -0.000000001333      0.00000067      0.00000014      0.00001048      0.00000376  ~
     14    -314.980508447743     -0.000000002039      0.00000050      0.00000010      0.00001476      0.00000445  ~
     15    -314.980508445541      0.000000002202      0.00000064      0.00000019      0.00001357      0.00000500  ~
     16    -314.980508443130      0.000000002411      0.00000027      0.00000006      0.00000428      0.00000127  ~
  --------------------------------------------------------------------------------------------------------------- ~

	Writing optimization data to binary file.
	Final energy is   -314.9805084431298
	Final (previous) structure:
	Cartesian Geometry (in Angstrom)
	    C     3.9085766044   0.1725766765  -0.3492009589
	    H     4.1837949949   1.1779679404  -0.0281703619
	    H     4.4424846468  -0.0427898726  -1.2744203719
	    H     4.2603618862  -0.5259447749   0.4111609794
	    C    -3.0747348620   1.1973648568  -0.1091832922
	    H    -3.5597860125   1.8550299501  -0.8308903242
	    H    -2.2215973844   1.7285408591   0.3087075321
	    H    -3.7802129117   1.0155903990   0.7027309104
	    C     2.3997801860   0.0567376960  -0.5294367553
	    H     2.1531254281  -0.9457085628  -0.8841539824
	    H     2.0645338736   0.7530382868  -1.3038273233
	    C    -2.6618908676  -0.1229999553  -0.7545673523
	    H    -3.5565987868  -0.5986994563  -1.1608884105
	    H    -2.0054557718   0.0683678154  -1.6086468056
	    C     1.6448997853   0.3503473725   0.7623908438
	    H     1.9683432781   1.3241765004   1.1418436156
	    H     1.9292510993  -0.3874868616   1.5199482225
	    C     0.1259815803   0.3517067116   0.6045591672
	    H    -0.1503928863   1.1063143027  -0.1373512132
	    H    -0.3344292581   0.6568713964   1.5490868082
	    C    -0.4377944815  -1.0057817735   0.1966047083
	    H    -0.0862988636  -1.2622047217  -0.8063965257
	    H    -0.0324859239  -1.7672493636   0.8710615124
	    C    -1.9637144281  -1.0938199390   0.2083924748
	    H    -2.2422652417  -2.1187023642  -0.0465869533
	    H    -2.3311018318  -0.9194370575   1.2248407037
	Saving final (previous) structure.
			--------------------------
			 OPTKING Finished Execution 
			--------------------------

    Final optimized geometry and variables:
    Molecular point group: c1
    Full point group: C1

    Geometry (in Angstrom), charge = 0, multiplicity = 1:

    C            3.908576604428     0.172576676522    -0.349200958917
    H            4.183794994853     1.177967940423    -0.028170361934
    H            4.442484646800    -0.042789872609    -1.274420371882
    H            4.260361886193    -0.525944774942     0.411160979361
    C           -3.074734861975     1.197364856783    -0.109183292180
    H           -3.559786012494     1.855029950056    -0.830890324242
    H           -2.221597384398     1.728540859103     0.308707532071
    H           -3.780212911697     1.015590398953     0.702730910410
    C            2.399780185975     0.056737695977    -0.529436755347
    H            2.153125428118    -0.945708562773    -0.884153982438
    H            2.064533873574     0.753038286823    -1.303827323260
    C           -2.661890867563    -0.122999955301    -0.754567352338
    H           -3.556598786776    -0.598699456332    -1.160888410463
    H           -2.005455771754     0.068367815427    -1.608646805580
    C            1.644899785280     0.350347372514     0.762390843833
    H            1.968343278131     1.324176500449     1.141843615644
    H            1.929251099290    -0.387486861563     1.519948222524
    C            0.125981580315     0.351706711649     0.604559167155
    H           -0.150392886330     1.106314302668    -0.137351213167
    H           -0.334429258148     0.656871396436     1.549086808204
    C           -0.437794481459    -1.005781773541     0.196604708252
    H           -0.086298863582    -1.262204721721    -0.806396525710
    H           -0.032485923900    -1.767249363571     0.871061512438
    C           -1.963714428106    -1.093819939036     0.208392474813
    H           -2.242265241682    -2.118702364235    -0.046586953342
    H           -2.331101831785    -0.919437057543     1.224840703703

	Cleaning optimization helper files.

*** Psi4 exiting successfully. Buy a developer a beer!
