    -----------------------------------------------------------------------
          Psi4: An Open-Source Ab Initio Electronic Structure Package
                              Psi4 1.0.0 Driver

                          Git: Rev {master} 6a9a71b dirty

    J. M. Turney, A. C. Simmonett, R. M. Parrish, E. G. Hohenstein,
    F. A. Evangelista, J. T. Fermann, B. J. Mintz, L. A. Burns, J. J. Wilke,
    M. L. Abrams, N. J. Russ, M. L. Leininger, C. L. Janssen, E. T. Seidl,
    W. D. Allen, H. F. Schaefer, R. A. King, E. F. Valeev, C. D. Sherrill,
    and T. D. Crawford, WIREs Comput. Mol. Sci. 2, 556-565 (2012)
    (doi: 10.1002/wcms.93)

                         Additional Contributions by
    A. E. DePrince, U. Bozkaya, A. Yu. Sokolov, D. G. A. Smith, R. Di Remigio,
    R. M. Richard, J. F. Gonthier, H. R. McAlexander, M. Saitow, and
    B. P. Pritchard
    -----------------------------------------------------------------------


    Psi4 started on: Tue Sep 20 15:41:44 2016

    Process ID:  30709
    PSI4DATADIR: /usr/local/hpc5/psi4conda/share/psi4
    Memory level set to 256.000 MB

  ==> Input File <==

--------------------------------------------------------------------------
memory 110 Gb

molecule molecule_02_psi {
0 1
symmetry c1
    C           -3.823675474007     0.256839413874    -1.130281750459
    H           -4.862724294731    -0.063565958783    -1.058005142194
    H           -3.414974886784    -0.137667809023    -2.061385244381
    H           -3.812275733918     1.345395156905    -1.198103877246
    C            3.823676920801    -0.256840789911    -1.130277428038
    H            4.862727225491     0.063559384652    -1.057996839729
    H            3.414980631034     0.137672170713    -2.061380481777
    H            3.812272307191    -1.345396383072    -1.198104132708
    C           -3.003613347160    -0.217877330746     0.062865171529
    H           -3.043614491511    -1.308518807213     0.128148197780
    H           -3.442180619774     0.163854546315     0.988647667248
    C            3.003613979847     0.217875015826     0.062869384197
    H            3.442177384982    -0.163862103283     0.988651672448
    H            3.043619772431     1.308516059330     0.128156723154
    C           -1.547341444654     0.222882148511    -0.018980743802
    H           -1.503051638308     1.316297016625    -0.069944419765
    H           -1.117747804037    -0.149346921758    -0.952757149562
    C           -0.718536708699    -0.257806887068     1.166627142978
    H           -0.708975620581    -1.352575564052     1.177972273388
    H           -1.213349366899     0.056846950989     2.090079440890
    C            0.718535741658     0.257806079675     1.166628510195
    H            0.708975122198     1.352574500728     1.177979255231
    H            1.213348135617    -0.056852810840     2.090079170762
    C            1.547340219132    -0.222877482684    -0.018981682721
    H            1.503046031646    -1.316291861002    -0.069953544236
    H            1.117749192391     0.149360438644    -0.952755744797
}

set globals {
  reference rhf
  g_convergence gau_verytight
  basis aug-cc-pvtz
  freeze_core true
  scf_type df
  mp_type df
}
optimize('mp2')
--------------------------------------------------------------------------
/usr/local/hpc5/psi4conda/lib/python2.7/site-packages/v2rdm_casscf/v2rdm_casscf.so loaded.

  Memory set to 110.000 GiB by Python script.
gradient() will perform analytic gradient computation.

*** tstart() called on wr40
*** at Tue Sep 20 15:41:44 2016


         ---------------------------------------------------------
                                   SCF
            by Justin Turney, Rob Parrish, and Andy Simmonett
                              RHF Reference
                       32 Threads, 110000 MiB Core
         ---------------------------------------------------------

  ==> Geometry <==

    Molecular point group: c1
    Full point group: C1

    Geometry (in Angstrom), charge = 0, multiplicity = 1:

       Center              X                  Y                   Z               Mass       
    ------------   -----------------  -----------------  -----------------  -----------------
           C         -3.823675474007     0.256839413874    -1.130281750459    12.000000000000
           H         -4.862724294731    -0.063565958783    -1.058005142194     1.007825032070
           H         -3.414974886784    -0.137667809023    -2.061385244381     1.007825032070
           H         -3.812275733918     1.345395156905    -1.198103877246     1.007825032070
           C          3.823676920801    -0.256840789911    -1.130277428038    12.000000000000
           H          4.862727225491     0.063559384652    -1.057996839729     1.007825032070
           H          3.414980631034     0.137672170713    -2.061380481777     1.007825032070
           H          3.812272307191    -1.345396383072    -1.198104132708     1.007825032070
           C         -3.003613347160    -0.217877330746     0.062865171529    12.000000000000
           H         -3.043614491511    -1.308518807213     0.128148197780     1.007825032070
           H         -3.442180619774     0.163854546315     0.988647667248     1.007825032070
           C          3.003613979847     0.217875015826     0.062869384197    12.000000000000
           H          3.442177384982    -0.163862103283     0.988651672448     1.007825032070
           H          3.043619772431     1.308516059330     0.128156723154     1.007825032070
           C         -1.547341444654     0.222882148511    -0.018980743802    12.000000000000
           H         -1.503051638308     1.316297016625    -0.069944419765     1.007825032070
           H         -1.117747804037    -0.149346921758    -0.952757149562     1.007825032070
           C         -0.718536708699    -0.257806887068     1.166627142978    12.000000000000
           H         -0.708975620581    -1.352575564052     1.177972273388     1.007825032070
           H         -1.213349366899     0.056846950989     2.090079440890     1.007825032070
           C          0.718535741658     0.257806079675     1.166628510195    12.000000000000
           H          0.708975122198     1.352574500728     1.177979255231     1.007825032070
           H          1.213348135617    -0.056852810840     2.090079170762     1.007825032070
           C          1.547340219132    -0.222877482684    -0.018981682721    12.000000000000
           H          1.503046031646    -1.316291861002    -0.069953544236     1.007825032070
           H          1.117749192391     0.149360438644    -0.952755744797     1.007825032070

  Running in c1 symmetry.

  Rotational constants: A =      0.15022  B =      0.02078  C =      0.01906 [cm^-1]
  Rotational constants: A =   4503.40830  B =    622.94173  C =    571.54463 [MHz]
  Nuclear repulsion =  383.064019963972044

  Charge       = 0
  Multiplicity = 1
  Electrons    = 66
  Nalpha       = 33
  Nbeta        = 33

  ==> Algorithm <==

  SCF Algorithm Type is DF.
  DIIS enabled.
  MOM disabled.
  Fractional occupation disabled.
  Guess Type is SAD.
  Energy threshold   = 1.00e-10
  Density threshold  = 1.00e-10
  Integral threshold = 0.00e+00

  ==> Primary Basis <==

  Basis Set: AUG-CC-PVTZ
    Number of shells: 274
    Number of basis function: 782
    Number of Cartesian functions: 890
    Spherical Harmonics?: true
    Max angular momentum: 3

  ==> Pre-Iterations <==

   -------------------------------------------------------
    Irrep   Nso     Nmo     Nalpha   Nbeta   Ndocc  Nsocc
   -------------------------------------------------------
     A        782     782       0       0       0       0
   -------------------------------------------------------
    Total     782     782      33      33      33       0
   -------------------------------------------------------

  ==> Integral Setup <==

  ==> DFJK: Density-Fitted J/K Matrices <==

    J tasked:                  Yes
    K tasked:                  Yes
    wK tasked:                  No
    OpenMP threads:             32
    Integrals threads:          32
    Memory (MB):             78678
    Algorithm:                Core
    Integral Cache:           NONE
    Schwarz Cutoff:          1E-12
    Fitting Condition:       1E-12

   => Auxiliary Basis Set <=

  Basis Set: 
    Number of shells: 492
    Number of basis function: 1660
    Number of Cartesian functions: 2038
    Spherical Harmonics?: true
    Max angular momentum: 4

  Minimum eigenvalue in the overlap matrix is 2.3289113264E-06.
  Using Symmetric Orthogonalization.
  SCF Guess: Superposition of Atomic Densities via on-the-fly atomic UHF.

  ==> Iterations <==

                           Total Energy        Delta E     RMS |[F,P]|

   @DF-RHF iter   0:  -316.62465529372724   -3.16625e+02   6.85177e-03 
   @DF-RHF iter   1:  -313.25316865898839    3.37149e+00   8.06810e-04 
   @DF-RHF iter   2:  -313.50303666994313   -2.49868e-01   3.13526e-04 DIIS
   @DF-RHF iter   3:  -313.53976726493482   -3.67306e-02   1.05917e-04 DIIS
   @DF-RHF iter   4:  -313.54576977661981   -6.00251e-03   1.68596e-05 DIIS
   @DF-RHF iter   5:  -313.54594962249342   -1.79846e-04   5.18886e-06 DIIS
   @DF-RHF iter   6:  -313.54596326273946   -1.36402e-05   1.35662e-06 DIIS
   @DF-RHF iter   7:  -313.54596445237570   -1.18964e-06   2.67636e-07 DIIS
   @DF-RHF iter   8:  -313.54596450026276   -4.78871e-08   8.24757e-08 DIIS
   @DF-RHF iter   9:  -313.54596450394530   -3.68254e-09   2.19780e-08 DIIS
   @DF-RHF iter  10:  -313.54596450421974   -2.74440e-10   5.70581e-09 DIIS
   @DF-RHF iter  11:  -313.54596450424191   -2.21689e-11   1.18720e-09 DIIS
   @DF-RHF iter  12:  -313.54596450424259   -6.82121e-13   2.66894e-10 DIIS
   @DF-RHF iter  13:  -313.54596450424179    7.95808e-13   8.83906e-11 DIIS

  ==> Post-Iterations <==

    Orbital Energies (a.u.)
    -----------------------

    Doubly Occupied:                                                      

       1A    -11.212306     2A    -11.212306     3A    -11.210705  
       4A    -11.210157     5A    -11.209373     6A    -11.209310  
       7A    -11.207007     8A    -11.207007     9A     -1.093628  
      10A     -1.061280    11A     -1.012807    12A     -0.946894  
      13A     -0.882197    14A     -0.811388    15A     -0.795860  
      16A     -0.770028    17A     -0.648308    18A     -0.637152  
      19A     -0.597123    20A     -0.592202    21A     -0.569793  
      22A     -0.564088    23A     -0.552502    24A     -0.522804  
      25A     -0.522396    26A     -0.499060    27A     -0.483386  
      28A     -0.471667    29A     -0.468361    30A     -0.460146  
      31A     -0.454872    32A     -0.441428    33A     -0.433860  

    Virtual:                                                              

      34A      0.030421    35A      0.031885    36A      0.034123  
      37A      0.036153    38A      0.043680    39A      0.048181  
      40A      0.048997    41A      0.054112    42A      0.059196  
      43A      0.062237    44A      0.065984    45A      0.069932  
      46A      0.074600    47A      0.081643    48A      0.085094  
      49A      0.091034    50A      0.092792    51A      0.107161  
      52A      0.112795    53A      0.115437    54A      0.117668  
      55A      0.118248    56A      0.130219    57A      0.130815  
      58A      0.134025    59A      0.141215    60A      0.142456  
      61A      0.145538    62A      0.149025    63A      0.153285  
      64A      0.155749    65A      0.160099    66A      0.160785  
      67A      0.164214    68A      0.166084    69A      0.171666  
      70A      0.180085    71A      0.181480    72A      0.187534  
      73A      0.190748    74A      0.198240    75A      0.201159  
      76A      0.212107    77A      0.222318    78A      0.223763  
      79A      0.229175    80A      0.238417    81A      0.239941  
      82A      0.246433    83A      0.258270    84A      0.259654  
      85A      0.264598    86A      0.266357    87A      0.267693  
      88A      0.269308    89A      0.284367    90A      0.284735  
      91A      0.292164    92A      0.296941    93A      0.302366  
      94A      0.307379    95A      0.309794    96A      0.317987  
      97A      0.320516    98A      0.324570    99A      0.332383  
     100A      0.334197   101A      0.342281   102A      0.342535  
     103A      0.342889   104A      0.357891   105A      0.360539  
     106A      0.361330   107A      0.365456   108A      0.368616  
     109A      0.369143   110A      0.373071   111A      0.376162  
     112A      0.379225   113A      0.384817   114A      0.390786  
     115A      0.391013   116A      0.395475   117A      0.396951  
     118A      0.396956   119A      0.400101   120A      0.400910  
     121A      0.404974   122A      0.412016   123A      0.414842  
     124A      0.423241   125A      0.428717   126A      0.433169  
     127A      0.435399   128A      0.436508   129A      0.447067  
     130A      0.448811   131A      0.453591   132A      0.454099  
     133A      0.457640   134A      0.460462   135A      0.463205  
     136A      0.464900   137A      0.465640   138A      0.471859  
     139A      0.479906   140A      0.479983   141A      0.480578  
     142A      0.487195   143A      0.491241   144A      0.492296  
     145A      0.498407   146A      0.506545   147A      0.510485  
     148A      0.511340   149A      0.512915   150A      0.517981  
     151A      0.521218   152A      0.525817   153A      0.529548  
     154A      0.532742   155A      0.536283   156A      0.541355  
     157A      0.541806   158A      0.547963   159A      0.554358  
     160A      0.556805   161A      0.558458   162A      0.564825  
     163A      0.570096   164A      0.583608   165A      0.583884  
     166A      0.587299   167A      0.589320   168A      0.597090  
     169A      0.603769   170A      0.604445   171A      0.609388  
     172A      0.614497   173A      0.615897   174A      0.619980  
     175A      0.627458   176A      0.633596   177A      0.634515  
     178A      0.644210   179A      0.649410   180A      0.653760  
     181A      0.663324   182A      0.665817   183A      0.675681  
     184A      0.685583   185A      0.691248   186A      0.692372  
     187A      0.710573   188A      0.712730   189A      0.713538  
     190A      0.718063   191A      0.721795   192A      0.728979  
     193A      0.729519   194A      0.747737   195A      0.748216  
     196A      0.767040   197A      0.770686   198A      0.775601  
     199A      0.775919   200A      0.794706   201A      0.795397  
     202A      0.809184   203A      0.810022   204A      0.828249  
     205A      0.837773   206A      0.838511   207A      0.847280  
     208A      0.849621   209A      0.851554   210A      0.859624  
     211A      0.861672   212A      0.867181   213A      0.869691  
     214A      0.876961   215A      0.879931   216A      0.883384  
     217A      0.885253   218A      0.897037   219A      0.899886  
     220A      0.901652   221A      0.911584   222A      0.913010  
     223A      0.914832   224A      0.924746   225A      0.927406  
     226A      0.934762   227A      0.936072   228A      0.938583  
     229A      0.941400   230A      0.948374   231A      0.949496  
     232A      0.950893   233A      0.953174   234A      0.960093  
     235A      0.966898   236A      0.967283   237A      0.978295  
     238A      0.980362   239A      0.993581   240A      0.995168  
     241A      1.004399   242A      1.005386   243A      1.015950  
     244A      1.018342   245A      1.024159   246A      1.027555  
     247A      1.031524   248A      1.037704   249A      1.042326  
     250A      1.047897   251A      1.051390   252A      1.064488  
     253A      1.068342   254A      1.072538   255A      1.080075  
     256A      1.084880   257A      1.086678   258A      1.098368  
     259A      1.108619   260A      1.110426   261A      1.112746  
     262A      1.117936   263A      1.124067   264A      1.130933  
     265A      1.132056   266A      1.136058   267A      1.138639  
     268A      1.146300   269A      1.151399   270A      1.158380  
     271A      1.163900   272A      1.171447   273A      1.172224  
     274A      1.184394   275A      1.185284   276A      1.189781  
     277A      1.193418   278A      1.195244   279A      1.200229  
     280A      1.200511   281A      1.205665   282A      1.213939  
     283A      1.215354   284A      1.218066   285A      1.229386  
     286A      1.238403   287A      1.244673   288A      1.245886  
     289A      1.255239   290A      1.256856   291A      1.268284  
     292A      1.270261   293A      1.277619   294A      1.279673  
     295A      1.285196   296A      1.296514   297A      1.297510  
     298A      1.298160   299A      1.303191   300A      1.316845  
     301A      1.319298   302A      1.320657   303A      1.325993  
     304A      1.330223   305A      1.341685   306A      1.347014  
     307A      1.351570   308A      1.364676   309A      1.371516  
     310A      1.374363   311A      1.381711   312A      1.388066  
     313A      1.393749   314A      1.397998   315A      1.404550  
     316A      1.417345   317A      1.432976   318A      1.433955  
     319A      1.442494   320A      1.449883   321A      1.456436  
     322A      1.462746   323A      1.481414   324A      1.486081  
     325A      1.492809   326A      1.502091   327A      1.504590  
     328A      1.517382   329A      1.517792   330A      1.534339  
     331A      1.544139   332A      1.547738   333A      1.553757  
     334A      1.559006   335A      1.575327   336A      1.578160  
     337A      1.580219   338A      1.588525   339A      1.602930  
     340A      1.603584   341A      1.609206   342A      1.617966  
     343A      1.631303   344A      1.634339   345A      1.645891  
     346A      1.649148   347A      1.649537   348A      1.658664  
     349A      1.666110   350A      1.671800   351A      1.672908  
     352A      1.683887   353A      1.692569   354A      1.693104  
     355A      1.694618   356A      1.698518   357A      1.698630  
     358A      1.713653   359A      1.717276   360A      1.718174  
     361A      1.727254   362A      1.729786   363A      1.736808  
     364A      1.752814   365A      1.760927   366A      1.763902  
     367A      1.763904   368A      1.773044   369A      1.775780  
     370A      1.780814   371A      1.788048   372A      1.789958  
     373A      1.793541   374A      1.798057   375A      1.803875  
     376A      1.816749   377A      1.817072   378A      1.820425  
     379A      1.824351   380A      1.828620   381A      1.833487  
     382A      1.845606   383A      1.852365   384A      1.858628  
     385A      1.859035   386A      1.868185   387A      1.882125  
     388A      1.887201   389A      1.890046   390A      1.902195  
     391A      1.914081   392A      1.919108   393A      1.925373  
     394A      1.925404   395A      1.941588   396A      1.943186  
     397A      1.954054   398A      1.956973   399A      1.965761  
     400A      1.973894   401A      1.977120   402A      1.987507  
     403A      1.988157   404A      1.994841   405A      2.003314  
     406A      2.005393   407A      2.015806   408A      2.016978  
     409A      2.030556   410A      2.032698   411A      2.050177  
     412A      2.052872   413A      2.057244   414A      2.075040  
     415A      2.090596   416A      2.091747   417A      2.101263  
     418A      2.109141   419A      2.121405   420A      2.122971  
     421A      2.131294   422A      2.143263   423A      2.143691  
     424A      2.146556   425A      2.158366   426A      2.171121  
     427A      2.173808   428A      2.180318   429A      2.193963  
     430A      2.199885   431A      2.211141   432A      2.231090  
     433A      2.232355   434A      2.249264   435A      2.255774  
     436A      2.257511   437A      2.263667   438A      2.270202  
     439A      2.278358   440A      2.288425   441A      2.295356  
     442A      2.309276   443A      2.317206   444A      2.329033  
     445A      2.329902   446A      2.337793   447A      2.348877  
     448A      2.350985   449A      2.364885   450A      2.365830  
     451A      2.375742   452A      2.390917   453A      2.400908  
     454A      2.409497   455A      2.415237   456A      2.427644  
     457A      2.430364   458A      2.452307   459A      2.457599  
     460A      2.478821   461A      2.479885   462A      2.491352  
     463A      2.508393   464A      2.509266   465A      2.522468  
     466A      2.526764   467A      2.558680   468A      2.560570  
     469A      2.581743   470A      2.590014   471A      2.600164  
     472A      2.601759   473A      2.631277   474A      2.647429  
     475A      2.659802   476A      2.691049   477A      2.708209  
     478A      2.758521   479A      2.758961   480A      2.811353  
     481A      2.825787   482A      2.833242   483A      2.865542  
     484A      2.869350   485A      2.897881   486A      2.945897  
     487A      2.963566   488A      2.984756   489A      3.031817  
     490A      3.090159   491A      3.116107   492A      3.158917  
     493A      3.280885   494A      3.283228   495A      3.301053  
     496A      3.401818   497A      3.425543   498A      3.443007  
     499A      3.459836   500A      3.465809   501A      3.474649  
     502A      3.486191   503A      3.493565   504A      3.500555  
     505A      3.523495   506A      3.528817   507A      3.539623  
     508A      3.541246   509A      3.560809   510A      3.569724  
     511A      3.576540   512A      3.602596   513A      3.603009  
     514A      3.604955   515A      3.613138   516A      3.636497  
     517A      3.641675   518A      3.663216   519A      3.668228  
     520A      3.677822   521A      3.692222   522A      3.698250  
     523A      3.699898   524A      3.714240   525A      3.714500  
     526A      3.717293   527A      3.734447   528A      3.749239  
     529A      3.756790   530A      3.766343   531A      3.776515  
     532A      3.777067   533A      3.798958   534A      3.800603  
     535A      3.806882   536A      3.815132   537A      3.823281  
     538A      3.825827   539A      3.828080   540A      3.850754  
     541A      3.852935   542A      3.857637   543A      3.858291  
     544A      3.864691   545A      3.871036   546A      3.881736  
     547A      3.895357   548A      3.902404   549A      3.916416  
     550A      3.918689   551A      3.938475   552A      3.947524  
     553A      3.947554   554A      3.960205   555A      3.961055  
     556A      3.977549   557A      3.981126   558A      3.984547  
     559A      3.990466   560A      3.996486   561A      4.003270  
     562A      4.011195   563A      4.017739   564A      4.018771  
     565A      4.027655   566A      4.041378   567A      4.048761  
     568A      4.049353   569A      4.053217   570A      4.059939  
     571A      4.073096   572A      4.086143   573A      4.092876  
     574A      4.100586   575A      4.104815   576A      4.110464  
     577A      4.125790   578A      4.137406   579A      4.158400  
     580A      4.159838   581A      4.177378   582A      4.181472  
     583A      4.208888   584A      4.210345   585A      4.228190  
     586A      4.231201   587A      4.238896   588A      4.240108  
     589A      4.253141   590A      4.254197   591A      4.264098  
     592A      4.271060   593A      4.276758   594A      4.299364  
     595A      4.306113   596A      4.323540   597A      4.333737  
     598A      4.340757   599A      4.356503   600A      4.368920  
     601A      4.369472   602A      4.380562   603A      4.392335  
     604A      4.404664   605A      4.406128   606A      4.416979  
     607A      4.440022   608A      4.453703   609A      4.476392  
     610A      4.481966   611A      4.493396   612A      4.504743  
     613A      4.540826   614A      4.545033   615A      4.550696  
     616A      4.553980   617A      4.565675   618A      4.581778  
     619A      4.586345   620A      4.603365   621A      4.620512  
     622A      4.642379   623A      4.655740   624A      4.657287  
     625A      4.677196   626A      4.695929   627A      4.697419  
     628A      4.701954   629A      4.704145   630A      4.720188  
     631A      4.724863   632A      4.743878   633A      4.744790  
     634A      4.763895   635A      4.782843   636A      4.784986  
     637A      4.793015   638A      4.819115   639A      4.823536  
     640A      4.834244   641A      4.835066   642A      4.847583  
     643A      4.860533   644A      4.864821   645A      4.874562  
     646A      4.880020   647A      4.885860   648A      4.892719  
     649A      4.893515   650A      4.918742   651A      4.921560  
     652A      4.927096   653A      4.961682   654A      4.962212  
     655A      4.977477   656A      4.979163   657A      5.001490  
     658A      5.028347   659A      5.029160   660A      5.030730  
     661A      5.050070   662A      5.068259   663A      5.091127  
     664A      5.110953   665A      5.126045   666A      5.131047  
     667A      5.137888   668A      5.148136   669A      5.161165  
     670A      5.171890   671A      5.187967   672A      5.198746  
     673A      5.210236   674A      5.212327   675A      5.230748  
     676A      5.243653   677A      5.248066   678A      5.256585  
     679A      5.269625   680A      5.276695   681A      5.279647  
     682A      5.288570   683A      5.317622   684A      5.327202  
     685A      5.348572   686A      5.353113   687A      5.373793  
     688A      5.378817   689A      5.378950   690A      5.400286  
     691A      5.404380   692A      5.408048   693A      5.418840  
     694A      5.439457   695A      5.441659   696A      5.447608  
     697A      5.456766   698A      5.471570   699A      5.479609  
     700A      5.480182   701A      5.499153   702A      5.519092  
     703A      5.525404   704A      5.540287   705A      5.555828  
     706A      5.564110   707A      5.574478   708A      5.598811  
     709A      5.607247   710A      5.612156   711A      5.626753  
     712A      5.636900   713A      5.662152   714A      5.673347  
     715A      5.687544   716A      5.696276   717A      5.705271  
     718A      5.723461   719A      5.740548   720A      5.741307  
     721A      5.768803   722A      5.776647   723A      5.780409  
     724A      5.797215   725A      5.798026   726A      5.824227  
     727A      5.846748   728A      5.850524   729A      5.880745  
     730A      5.887045   731A      5.901081   732A      5.935210  
     733A      5.939437   734A      5.972911   735A      5.983257  
     736A      5.994249   737A      6.038498   738A      6.054916  
     739A      6.084480   740A      6.114563   741A      6.136874  
     742A      6.144115   743A      6.169231   744A      6.185890  
     745A      6.209960   746A      6.224126   747A      6.232698  
     748A      6.246080   749A      6.262129   750A      6.269024  
     751A      6.289593   752A      6.301772   753A      6.302498  
     754A      6.316171   755A      6.344752   756A      6.352447  
     757A      6.410423   758A      6.420404   759A      6.542396  
     760A      6.547119   761A      6.605823   762A      6.653036  
     763A      6.714015   764A      6.756450   765A      6.776872  
     766A      6.780072   767A      6.841251   768A      6.841819  
     769A      6.874369   770A      6.884142   771A      6.951005  
     772A      6.960213   773A      7.088835   774A      7.113075  
     775A     17.820758   776A     17.987963   777A     18.294348  
     778A     18.460722   779A     18.473457   780A     18.567853  
     781A     19.149222   782A     19.580314  

    Final Occupation by Irrep:
              A 
    DOCC [    33 ]

  Energy converged.

  @DF-RHF Final Energy:  -313.54596450424179

   => Energetics <=

    Nuclear Repulsion Energy =            383.0640199639720436
    One-Electron Energy =               -1181.2771592737053652
    Two-Electron Energy =                 484.6671748054915270
    DFT Exchange-Correlation Energy =       0.0000000000000000
    Empirical Dispersion Energy =           0.0000000000000000
    PCM Polarization Energy =               0.0000000000000000
    EFP Energy =                            0.0000000000000000
    Total Energy =                       -313.5459645042418515


  Saving occupied orbitals to File 180.

*** tstop() called on wr40 at Tue Sep 20 15:42:26 2016
Module time:
	user time   =    1068.91 seconds =      17.82 minutes
	system time =      17.98 seconds =       0.30 minutes
	total time  =         42 seconds =       0.70 minutes
Total time:
	user time   =    1068.91 seconds =      17.82 minutes
	system time =      17.98 seconds =       0.30 minutes
	total time  =         42 seconds =       0.70 minutes


Properties will be evaluated at   0.000000,   0.000000,   0.000000 Bohr

Properties computed using the SCF density matrix

  Nuclear Dipole Moment: (a.u.)
     X:     0.0000      Y:    -0.0000      Z:    -1.7912

  Electronic Dipole Moment: (a.u.)
     X:    -0.0000      Y:     0.0000      Z:     1.8282

  Dipole Moment: (a.u.)
     X:    -0.0000      Y:     0.0000      Z:     0.0370     Total:     0.0370

  Dipole Moment: (Debye)
     X:    -0.0000      Y:     0.0000      Z:     0.0939     Total:     0.0939


  //>>>>>>>>>>>>>>>>>>>>>>>>>>>>>>>>>>>//
  //               DFMP2               //
  //<<<<<<<<<<<<<<<<<<<<<<<<<<<<<<<<<<<//


*** tstart() called on wr40
*** at Tue Sep 20 15:42:26 2016


*** tstop() called on wr40 at Tue Sep 20 15:42:26 2016
Module time:
	user time   =       6.13 seconds =       0.10 minutes
	system time =       0.24 seconds =       0.00 minutes
	total time  =          0 seconds =       0.00 minutes
Total time:
	user time   =    1078.26 seconds =      17.97 minutes
	system time =      18.36 seconds =       0.31 minutes
	total time  =         42 seconds =       0.70 minutes
	 --------------------------------------------------------
	                          DF-MP2                         
	      2nd-Order Density-Fitted Moller-Plesset Theory     
	              RMP2 Wavefunction,  32 Threads             
	                                                         
	        Rob Parrish, Justin Turney, Andy Simmonett,      
	           Ed Hohenstein, and C. David Sherrill          
	 --------------------------------------------------------

   => Auxiliary Basis Set <=

  Basis Set: 
    Number of shells: 476
    Number of basis function: 1676
    Number of Cartesian functions: 2078
    Spherical Harmonics?: true
    Max angular momentum: 4

	 --------------------------------------------------------
	                 NBF =   782, NAUX =  1676
	 --------------------------------------------------------
	   CLASS    FOCC     OCC    AOCC    AVIR     VIR    FVIR
	   PAIRS       8      33      25     749     749       0
	 --------------------------------------------------------

DGAS Warning! /src/lib/libfock/apps.cc:80 is not currently checking restricted

         ------------------------------------------------------------
                                     CPHF                           
                                  Rob Parrish                       
         ------------------------------------------------------------

  ==> Geometry <==

    Molecular point group: c1
    Full point group: C1

    Geometry (in Angstrom), charge = 0, multiplicity = 1:

       Center              X                  Y                   Z               Mass       
    ------------   -----------------  -----------------  -----------------  -----------------
           C         -3.823675474007     0.256839413874    -1.130281750459    12.000000000000
           H         -4.862724294731    -0.063565958783    -1.058005142194     1.007825032070
           H         -3.414974886784    -0.137667809023    -2.061385244381     1.007825032070
           H         -3.812275733918     1.345395156905    -1.198103877246     1.007825032070
           C          3.823676920801    -0.256840789911    -1.130277428038    12.000000000000
           H          4.862727225491     0.063559384652    -1.057996839729     1.007825032070
           H          3.414980631034     0.137672170713    -2.061380481777     1.007825032070
           H          3.812272307191    -1.345396383072    -1.198104132708     1.007825032070
           C         -3.003613347160    -0.217877330746     0.062865171529    12.000000000000
           H         -3.043614491511    -1.308518807213     0.128148197780     1.007825032070
           H         -3.442180619774     0.163854546315     0.988647667248     1.007825032070
           C          3.003613979847     0.217875015826     0.062869384197    12.000000000000
           H          3.442177384982    -0.163862103283     0.988651672448     1.007825032070
           H          3.043619772431     1.308516059330     0.128156723154     1.007825032070
           C         -1.547341444654     0.222882148511    -0.018980743802    12.000000000000
           H         -1.503051638308     1.316297016625    -0.069944419765     1.007825032070
           H         -1.117747804037    -0.149346921758    -0.952757149562     1.007825032070
           C         -0.718536708699    -0.257806887068     1.166627142978    12.000000000000
           H         -0.708975620581    -1.352575564052     1.177972273388     1.007825032070
           H         -1.213349366899     0.056846950989     2.090079440890     1.007825032070
           C          0.718535741658     0.257806079675     1.166628510195    12.000000000000
           H          0.708975122198     1.352574500728     1.177979255231     1.007825032070
           H          1.213348135617    -0.056852810840     2.090079170762     1.007825032070
           C          1.547340219132    -0.222877482684    -0.018981682721    12.000000000000
           H          1.503046031646    -1.316291861002    -0.069953544236     1.007825032070
           H          1.117749192391     0.149360438644    -0.952755744797     1.007825032070

  Nuclear repulsion =  383.064019963972044
  Reference energy  = -313.545964504241795

  ==> Basis Set <==

  Basis Set: AUG-CC-PVTZ
    Number of shells: 274
    Number of basis function: 782
    Number of Cartesian functions: 890
    Spherical Harmonics?: true
    Max angular momentum: 3

  ==> CGRSolver (by Rob Parrish) <==

   Number of roots    =         1
   Preconditioning    =    JACOBI
   Convergence cutoff =     1E-06
   Maximum iterations =       100

  ==> CPHFRHamiltonian (by Rob Parrish) <== 

  ==> DFJK: Density-Fitted J/K Matrices <==

    J tasked:                  Yes
    K tasked:                  Yes
    wK tasked:                  No
    OpenMP threads:             32
    Integrals threads:          32
    Memory (MB):             78678
    Algorithm:                Core
    Integral Cache:           NONE
    Schwarz Cutoff:          1E-12
    Fitting Condition:       1E-12

   => Auxiliary Basis Set <=

  Basis Set: 
    Number of shells: 492
    Number of basis function: 1660
    Number of Cartesian functions: 2038
    Spherical Harmonics?: true
    Max angular momentum: 4

  ==> CPHF Iterations <==

  => Iterations <=

             Iter  Converged  Remaining    Residual
  CGR           1          0          1   8.779E-02
  CGR           2          0          1   1.228E-02
  CGR           3          0          1   3.085E-03
  CGR           4          0          1   8.030E-04
  CGR           5          0          1   1.622E-04
  CGR           6          0          1   3.787E-05
  CGR           7          0          1   9.019E-06
  CGR           8          0          1   2.818E-06
  CGR           9          1          0   7.139E-07

    CGRSolver converged.

  ==> DFCorrGrad: Density-Fitted Correlated Gradients <==

    OpenMP threads:             32
    Integrals threads:          32
    Memory (MB):             78678
    Schwarz Cutoff:          0E+00
    Fitting Condition:       1E-12

   => Auxiliary Basis Set <=

  Basis Set: 
    Number of shells: 492
    Number of basis function: 1660
    Number of Cartesian functions: 2038
    Spherical Harmonics?: true
    Max angular momentum: 4

	-----------------------------------------------------------
	 ==================> DF-MP2 Energies <==================== 
	-----------------------------------------------------------
	 Reference Energy          =    -313.5459645042417947 [Eh]
	 Singles Energy            =      -0.0000000000000003 [Eh]
	 Same-Spin Energy          =      -0.3150180972843636 [Eh]
	 Opposite-Spin Energy      =      -1.1235612136249149 [Eh]
	 Correlation Energy        =      -1.4385793109092788 [Eh]
	 Total Energy              =    -314.9845438151510848 [Eh]
	-----------------------------------------------------------
	 ================> DF-SCS-MP2 Energies <================== 
	-----------------------------------------------------------
	 SCS Same-Spin Scale       =       0.3333333333333333 [-]
	 SCS Opposite-Spin Scale   =       1.2000000000000000 [-]
	 SCS Same-Spin Energy      =      -0.1050060324281212 [Eh]
	 SCS Opposite-Spin Energy  =      -1.3482734563498979 [Eh]
	 SCS Correlation Energy    =      -1.4532794887780194 [Eh]
	 SCS Total Energy          =    -314.9992439930198316 [Eh]
	-----------------------------------------------------------


  -Total Gradient:
     Atom            X                  Y                   Z
    ------   -----------------  -----------------  -----------------
       1       -0.000000065384     0.000000087916    -0.000000147958
       2        0.000000183177     0.000000045812    -0.000000028412
       3       -0.000000062696     0.000000052089     0.000000216314
       4        0.000000031436    -0.000000271230     0.000000082577
       5       -0.000000073963    -0.000000012794    -0.000000049756
       6        0.000000063680     0.000000026270     0.000000003043
       7       -0.000000000067     0.000000009061     0.000000037473
       8       -0.000000010990    -0.000000008196     0.000000026197
       9       -0.000000074870    -0.000000127149     0.000000311956
      10        0.000000034435     0.000000190044    -0.000000082068
      11        0.000000101130     0.000000014431    -0.000000252787
      12       -0.000000057793     0.000000008604     0.000000070179
      13        0.000000065350    -0.000000075780     0.000000050785
      14       -0.000000015994     0.000000044544    -0.000000052847
      15       -0.000000236108     0.000000237843    -0.000000230465
      16       -0.000000158427     0.000000002241    -0.000000065734
      17       -0.000000066158    -0.000000014108     0.000000061556
      18        0.000000079970     0.000000105813    -0.000000057359
      19        0.000000106535    -0.000000384932     0.000000012886
      20       -0.000000126948     0.000000142583     0.000000225803
      21       -0.000000152099    -0.000000098783    -0.000000241504
      22       -0.000000111683     0.000000451131     0.000000010812
      23        0.000000186612    -0.000000203226     0.000000319374
      24        0.000000258077    -0.000000093076    -0.000000067847
      25        0.000000112104    -0.000000172382    -0.000000127858
      26       -0.000000009327     0.000000043274    -0.000000024360


			-----------------------------------------
			 OPTKING 2.0: for geometry optimizations 
			  - R.A. King,  Bethel University        
			-----------------------------------------

	Internal coordinates to be generated automatically.
	Detected frag 1 with atoms:  1 2 3 4 5 6 7 8 9 10 11 12 13 14 15 16 17 18 19 20
	 21 22 23 24 25 26
	---Fragment 1 Bond Connectivity---
	 1 : 2 3 4 9
	 2 : 1
	 3 : 1
	 4 : 1
	 5 : 6 7 8 12
	 6 : 5
	 7 : 5
	 8 : 5
	 9 : 1 10 11 15
	 10 : 9
	 11 : 9
	 12 : 5 13 14 24
	 13 : 12
	 14 : 12
	 15 : 9 16 17 18
	 16 : 15
	 17 : 15
	 18 : 15 19 20 21
	 19 : 18
	 20 : 18
	 21 : 18 22 23 24
	 22 : 21
	 23 : 21
	 24 : 12 21 25 26
	 25 : 24
	 26 : 24

	---Fragment 1 Geometry and Gradient---
	 C          -7.2256994669        0.4853561524       -2.1359229614
	 H          -9.1892171768       -0.1201222535       -1.9993399659
	 H          -6.4533672867       -0.2601544564       -3.8954535663
	 H          -7.2041570802        2.5424283871       -2.2640882067
	 C           7.2257022009       -0.4853587527       -2.1359147932
	 H           9.1892227151        0.1201098302       -1.9993242765
	 H           6.4533781418        0.2601626988       -3.8954445662
	 H           7.2041506046       -2.5424307042       -2.2640886895
	 C          -5.6760066352       -0.4117284857        0.1187979575
	 H          -5.7515978430       -2.4727421854        0.2421649982
	 H          -6.5047786713        0.3096402182        1.8682733330
	 C           5.6760078308        0.4117241111        0.1188059183
	 H           6.5047725584       -0.3096544988        1.8682809017
	 H           5.7516078225        2.4727369926        0.2421811088
	 C          -2.9240515645        0.4211862206       -0.0358684076
	 H          -2.8403559600        2.4874408710       -0.1321757979
	 H          -2.1122372353       -0.2822247809       -1.8004500838
	 C          -1.3578375959       -0.4871844117        2.2046057994
	 H          -1.3397697578       -2.5559973901        2.2260449888
	 H          -2.2928980069        0.1074251689        3.9496777393
	 C           1.3578357684        0.4871828860        2.2046083831
	 H           1.3397688160        2.5559953807        2.2260581826
	 H           2.2928956802       -0.1074362424        3.9496772288
	 C           2.9240492486       -0.4211774035       -0.0358701819
	 H           2.8403453649       -2.4874311282       -0.1321930406
	 H           2.1122398589        0.2822503241       -1.8004474292
	            -0.0000000654        0.0000000879       -0.0000001480
	             0.0000001832        0.0000000458       -0.0000000284
	            -0.0000000627        0.0000000521        0.0000002163
	             0.0000000314       -0.0000002712        0.0000000826
	            -0.0000000740       -0.0000000128       -0.0000000498
	             0.0000000637        0.0000000263        0.0000000030
	            -0.0000000001        0.0000000091        0.0000000375
	            -0.0000000110       -0.0000000082        0.0000000262
	            -0.0000000749       -0.0000001271        0.0000003120
	             0.0000000344        0.0000001900       -0.0000000821
	             0.0000001011        0.0000000144       -0.0000002528
	            -0.0000000578        0.0000000086        0.0000000702
	             0.0000000653       -0.0000000758        0.0000000508
	            -0.0000000160        0.0000000445       -0.0000000528
	            -0.0000002361        0.0000002378       -0.0000002305
	            -0.0000001584        0.0000000022       -0.0000000657
	            -0.0000000662       -0.0000000141        0.0000000616
	             0.0000000800        0.0000001058       -0.0000000574
	             0.0000001065       -0.0000003849        0.0000000129
	            -0.0000001269        0.0000001426        0.0000002258
	            -0.0000001521       -0.0000000988       -0.0000002415
	            -0.0000001117        0.0000004511        0.0000000108
	             0.0000001866       -0.0000002032        0.0000003194
	             0.0000002581       -0.0000000931       -0.0000000678
	             0.0000001121       -0.0000001724       -0.0000001279
	            -0.0000000093        0.0000000433       -0.0000000244

	Previous optimization step data not found.  Starting new optimization.

	---Fragment 1 Intrafragment Coordinates---
	 - Coordinate -           - BOHR/RAD -       - ANG/DEG -
	 R(1,2)           =         2.059286	       1.089727
	 R(1,3)           =         2.061124	       1.090700
	 R(1,4)           =         2.061174	       1.090726
	 R(1,9)           =         2.879249	       1.523633
	 R(5,6)           =         2.059287	       1.089728
	 R(5,7)           =         2.061124	       1.090700
	 R(5,8)           =         2.061174	       1.090726
	 R(5,12)          =         2.879249	       1.523633
	 R(9,10)          =         2.066086	       1.093326
	 R(9,11)          =         2.065890	       1.093222
	 R(9,15)          =         2.879397	       1.523711
	 R(12,13)         =         2.065890	       1.093222
	 R(12,14)         =         2.066086	       1.093326
	 R(12,24)         =         2.879397	       1.523711
	 R(15,16)         =         2.070190	       1.095498
	 R(15,17)         =         2.065812	       1.093180
	 R(15,18)         =         2.880606	       1.524351
	 R(18,19)         =         2.069003	       1.094869
	 R(18,20)         =         2.067166	       1.093897
	 R(18,21)         =         2.885182	       1.526772
	 R(21,22)         =         2.069003	       1.094869
	 R(21,23)         =         2.067166	       1.093897
	 R(21,24)         =         2.880605	       1.524351
	 R(24,25)         =         2.070191	       1.095498
	 R(24,26)         =         2.065812	       1.093180
	 B(1,9,10)        =         1.915450	     109.747217
	 B(1,9,11)        =         1.916054	     109.781812
	 B(1,9,15)        =         1.962989	     112.471005
	 B(2,1,3)         =         1.883424	     107.912218
	 B(2,1,4)         =         1.883390	     107.910317
	 B(2,1,9)         =         1.949428	     111.694024
	 B(3,1,4)         =         1.879667	     107.696980
	 B(3,1,9)         =         1.932781	     110.740198
	 B(4,1,9)         =         1.932659	     110.733211
	 B(5,12,13)       =         1.916054	     109.781821
	 B(5,12,14)       =         1.915450	     109.747218
	 B(5,12,24)       =         1.962989	     112.471012
	 B(6,5,7)         =         1.883423	     107.912216
	 B(6,5,8)         =         1.883390	     107.910310
	 B(6,5,12)        =         1.949428	     111.694024
	 B(7,5,8)         =         1.879667	     107.696976
	 B(7,5,12)        =         1.932781	     110.740203
	 B(8,5,12)        =         1.932659	     110.733219
	 B(9,15,16)       =         1.906947	     109.260010
	 B(9,15,17)       =         1.899662	     108.842602
	 B(9,15,18)       =         1.967792	     112.746191
	 B(10,9,11)       =         1.857801	     106.444163
	 B(10,9,15)       =         1.903640	     109.070519
	 B(11,9,15)       =         1.904871	     109.141073
	 B(12,24,21)      =         1.967793	     112.746209
	 B(12,24,25)      =         1.906947	     109.259992
	 B(12,24,26)      =         1.899662	     108.842613
	 B(13,12,14)      =         1.857801	     106.444146
	 B(13,12,24)      =         1.904871	     109.141081
	 B(14,12,24)      =         1.903639	     109.070509
	 B(15,18,19)      =         1.905108	     109.154625
	 B(15,18,20)      =         1.896465	     108.659447
	 B(15,18,21)      =         1.988073	     113.908178
	 B(16,15,17)      =         1.858998	     106.512743
	 B(16,15,18)      =         1.905979	     109.204579
	 B(17,15,18)      =         1.921253	     110.079708
	 B(18,21,22)      =         1.906532	     109.236256
	 B(18,21,23)      =         1.905639	     109.185095
	 B(18,21,24)      =         1.988072	     113.908158
	 B(19,18,20)      =         1.857530	     106.428644
	 B(19,18,21)      =         1.906532	     109.236232
	 B(20,18,21)      =         1.905640	     109.185111
	 B(21,24,25)      =         1.905979	     109.204578
	 B(21,24,26)      =         1.921253	     110.079689
	 B(22,21,23)      =         1.857530	     106.428650
	 B(22,21,24)      =         1.905108	     109.154636
	 B(23,21,24)      =         1.896465	     108.659442
	 B(25,24,26)      =         1.858998	     106.512753
	 D(1,9,15,16)     =         1.026495	      58.813818
	 D(1,9,15,17)     =        -0.996971	     -57.122233
	 D(1,9,15,18)     =        -3.133975	    -179.563556
	 D(2,1,9,10)      =         1.020882	      58.492240
	 D(2,1,9,11)      =        -1.015272	     -58.170817
	 D(2,1,9,15)      =        -3.139787	    -179.896565
	 D(3,1,9,10)      =        -1.078817	     -61.811674
	 D(3,1,9,11)      =        -3.114972	    -178.474731
	 D(3,1,9,15)      =         1.043699	      59.799521
	 D(4,1,9,10)      =         3.120456	     178.788977
	 D(4,1,9,11)      =         1.084302	      62.125920
	 D(4,1,9,15)      =        -1.040213	     -59.599828
	 D(5,12,24,21)    =        -3.133979	    -179.563771
	 D(5,12,24,25)    =         1.026491	      58.813605
	 D(5,12,24,26)    =        -0.996975	     -57.122453
	 D(6,5,12,13)     =        -1.015272	     -58.170778
	 D(6,5,12,14)     =         1.020883	      58.492265
	 D(6,5,12,24)     =        -3.139787	    -179.896548
	 D(7,5,12,13)     =        -3.114971	    -178.474691
	 D(7,5,12,14)     =        -1.078817	     -61.811648
	 D(7,5,12,24)     =         1.043699	      59.799539
	 D(8,5,12,13)     =         1.084302	      62.125956
	 D(8,5,12,14)     =         3.120457	     178.788999
	 D(8,5,12,24)     =        -1.040213	     -59.599814
	 D(9,15,18,19)    =         1.082976	      62.049978
	 D(9,15,18,20)    =        -0.935976	     -53.627457
	 D(9,15,18,21)    =        -3.064323	    -175.572795
	 D(10,9,15,16)    =        -3.127464	    -179.190503
	 D(10,9,15,17)    =         1.132255	      64.873446
	 D(10,9,15,18)    =        -1.004749	     -57.567877
	 D(11,9,15,16)    =        -1.104367	     -63.275573
	 D(11,9,15,17)    =        -3.127833	    -179.211623
	 D(11,9,15,18)    =         1.018348	      58.347054
	 D(12,24,21,18)   =        -3.064318	    -175.572497
	 D(12,24,21,22)   =         1.082981	      62.050249
	 D(12,24,21,23)   =        -0.935971	     -53.627196
	 D(13,12,24,21)   =         1.018344	      58.346816
	 D(13,12,24,25)   =        -1.104371	     -63.275808
	 D(13,12,24,26)   =        -3.127837	    -179.211866
	 D(14,12,24,21)   =        -1.004753	     -57.568093
	 D(14,12,24,25)   =        -3.127468	    -179.190717
	 D(14,12,24,26)   =         1.132251	      64.873225
	 D(15,18,21,22)   =         1.028445	      58.925579
	 D(15,18,21,23)   =         3.053253	     174.938513
	 D(15,18,21,24)   =        -1.106658	     -63.406820
	 D(16,15,18,19)   =        -3.076946	    -176.296009
	 D(16,15,18,20)   =         1.187287	      68.026556
	 D(16,15,18,21)   =        -0.941060	     -53.918782
	 D(17,15,18,19)   =        -1.041862	     -59.694273
	 D(17,15,18,20)   =        -3.060814	    -175.371708
	 D(17,15,18,21)   =         1.094024	      62.682954
	 D(18,21,24,25)   =        -0.941055	     -53.918496
	 D(18,21,24,26)   =         1.094029	      62.683240
	 D(19,18,21,22)   =        -3.119637	    -178.742040
	 D(19,18,21,23)   =        -1.094829	     -62.729106
	 D(19,18,21,24)   =         1.028445	      58.925561
	 D(20,18,21,22)   =        -1.094830	     -62.729119
	 D(20,18,21,23)   =         0.929978	      53.283815
	 D(20,18,21,24)   =         3.053253	     174.938482
	 D(22,21,24,25)   =        -3.076941	    -176.295749
	 D(22,21,24,26)   =        -1.041857	     -59.694014
	 D(23,21,24,25)   =         1.187292	      68.026805
	 D(23,21,24,26)   =        -3.060809	    -175.371460

	Current energy   :      -314.9845438152

	Generating empirical Hessian (Schlegel '84) for each fragment.
	Taking RFO optimization step.
	Going to follow RFO solution 1.
	Using RFO vector 1.
	Norm of target step-size    0.00005
	Projected energy change by RFO approximation:        -0.0000000001

	Back-transformation to cartesian coordinates...
	Successfully converged to displaced geometry.

	--- Internal Coordinate Step in ANG or DEG, aJ/ANG or AJ/DEG ---
	 ---------------------------------------------------------------------------
	   Coordinate                Previous        Force       Change         New 
	   ----------                --------       ------       ------       ------
	    1 R(1,2)          =      1.089727     0.000002     0.000000     1.089728
	    2 R(1,3)          =      1.090700     0.000002     0.000000     1.090700
	    3 R(1,4)          =      1.090726     0.000002     0.000000     1.090727
	    4 R(1,9)          =      1.523633     0.000001     0.000000     1.523633
	    5 R(5,6)          =      1.089728    -0.000001    -0.000000     1.089728
	    6 R(5,7)          =      1.090700     0.000000     0.000000     1.090700
	    7 R(5,8)          =      1.090726    -0.000000    -0.000000     1.090726
	    8 R(5,12)         =      1.523633     0.000000     0.000000     1.523633
	    9 R(9,10)         =      1.093326     0.000002     0.000000     1.093326
	   10 R(9,11)         =      1.093222     0.000002     0.000000     1.093222
	   11 R(9,15)         =      1.523711     0.000001     0.000000     1.523711
	   12 R(12,13)        =      1.093222    -0.000001    -0.000000     1.093222
	   13 R(12,14)        =      1.093326    -0.000000    -0.000000     1.093326
	   14 R(12,24)        =      1.523711     0.000000     0.000000     1.523711
	   15 R(15,16)        =      1.095498    -0.000000    -0.000000     1.095498
	   16 R(15,17)        =      1.093180     0.000001     0.000000     1.093181
	   17 R(15,18)        =      1.524351    -0.000003    -0.000001     1.524350
	   18 R(18,19)        =      1.094869    -0.000003    -0.000001     1.094869
	   19 R(18,20)        =      1.093897    -0.000002    -0.000000     1.093897
	   20 R(18,21)        =      1.526772    -0.000002    -0.000000     1.526772
	   21 R(21,22)        =      1.094869    -0.000004    -0.000001     1.094868
	   22 R(21,23)        =      1.093897    -0.000003    -0.000001     1.093896
	   23 R(21,24)        =      1.524351    -0.000003    -0.000001     1.524350
	   24 R(24,25)        =      1.095498    -0.000001    -0.000000     1.095497
	   25 R(24,26)        =      1.093180    -0.000000    -0.000000     1.093180
	   26 B(1,9,10)       =    109.747217    -0.000000     0.000009   109.747226
	   27 B(1,9,11)       =    109.781812    -0.000000     0.000012   109.781824
	   28 B(1,9,15)       =    112.471005     0.000000     0.000036   112.471041
	   29 B(2,1,3)        =    107.912218    -0.000000    -0.000005   107.912213
	   30 B(2,1,4)        =    107.910317    -0.000000    -0.000014   107.910303
	   31 B(2,1,9)        =    111.694024    -0.000000    -0.000020   111.694005
	   32 B(3,1,4)        =    107.696980    -0.000000    -0.000018   107.696963
	   33 B(3,1,9)        =    110.740198     0.000000     0.000018   110.740216
	   34 B(4,1,9)        =    110.733211     0.000000     0.000037   110.733248
	   35 B(5,12,13)      =    109.781821     0.000000     0.000016   109.781838
	   36 B(5,12,14)      =    109.747218    -0.000000     0.000008   109.747226
	   37 B(5,12,24)      =    112.471012     0.000000     0.000020   112.471032
	   38 B(6,5,7)        =    107.912216    -0.000000    -0.000003   107.912212
	   39 B(6,5,8)        =    107.910310    -0.000000    -0.000005   107.910305
	   40 B(6,5,12)       =    111.694024    -0.000000    -0.000003   111.694021
	   41 B(7,5,8)        =    107.696976    -0.000000    -0.000011   107.696965
	   42 B(7,5,12)       =    110.740203     0.000000     0.000009   110.740212
	   43 B(8,5,12)       =    110.733219     0.000000     0.000013   110.733233
	   44 B(9,15,16)      =    109.260010     0.000000     0.000046   109.260056
	   45 B(9,15,17)      =    108.842602    -0.000000     0.000024   108.842626
	   46 B(9,15,18)      =    112.746191     0.000000     0.000052   112.746243
	   47 B(10,9,11)      =    106.444163    -0.000000    -0.000062   106.444101
	   48 B(10,9,15)      =    109.070519    -0.000000    -0.000001   109.070518
	   49 B(11,9,15)      =    109.141073    -0.000000     0.000000   109.141073
	   50 B(12,24,21)     =    112.746209     0.000000     0.000041   112.746250
	   51 B(12,24,25)     =    109.259992     0.000000     0.000044   109.260036
	   52 B(12,24,26)     =    108.842613    -0.000000     0.000002   108.842615
	   53 B(13,12,14)     =    106.444146    -0.000000    -0.000034   106.444111
	   54 B(13,12,24)     =    109.141081    -0.000000    -0.000015   109.141066
	   55 B(14,12,24)     =    109.070509    -0.000000     0.000001   109.070510
	   56 B(15,18,19)     =    109.154625     0.000000    -0.000039   109.154585
	   57 B(15,18,20)     =    108.659447     0.000000     0.000073   108.659520
	   58 B(15,18,21)     =    113.908178    -0.000000    -0.000126   113.908052
	   59 B(16,15,17)     =    106.512743     0.000000    -0.000025   106.512719
	   60 B(16,15,18)     =    109.204579    -0.000000    -0.000103   109.204476
	   61 B(17,15,18)     =    110.079708    -0.000000     0.000002   110.079710
	   62 B(18,21,22)     =    109.236256     0.000000     0.000024   109.236280
	   63 B(18,21,23)     =    109.185095     0.000000     0.000085   109.185180
	   64 B(18,21,24)     =    113.908158    -0.000000    -0.000123   113.908034
	   65 B(19,18,20)     =    106.428644    -0.000000    -0.000006   106.428638
	   66 B(19,18,21)     =    109.236232     0.000000     0.000050   109.236281
	   67 B(20,18,21)     =    109.185111     0.000000     0.000057   109.185168
	   68 B(21,24,25)     =    109.204578    -0.000000    -0.000097   109.204481
	   69 B(21,24,26)     =    110.079689    -0.000000     0.000010   110.079698
	   70 B(22,21,23)     =    106.428650    -0.000000    -0.000016   106.428634
	   71 B(22,21,24)     =    109.154636     0.000000    -0.000060   109.154576
	   72 B(23,21,24)     =    108.659442     0.000000     0.000097   108.659539
	   73 B(25,24,26)     =    106.512753     0.000000    -0.000000   106.512752
	   74 D(1,9,15,16)    =     58.813818     0.000000    -0.000263    58.813555
	   75 D(1,9,15,17)    =    -57.122233    -0.000000    -0.000272   -57.122505
	   76 D(1,9,15,18)    =   -179.563556    -0.000000    -0.000327  -179.563882
	   77 D(2,1,9,10)     =     58.492240    -0.000000     0.000054    58.492294
	   78 D(2,1,9,11)     =    -58.170817     0.000000     0.000117   -58.170700
	   79 D(2,1,9,15)     =   -179.896565     0.000000     0.000084  -179.896482
	   80 D(3,1,9,10)     =    -61.811674    -0.000000     0.000062   -61.811612
	   81 D(3,1,9,11)     =   -178.474731     0.000000     0.000124  -178.474606
	   82 D(3,1,9,15)     =     59.799521     0.000000     0.000092    59.799612
	   83 D(4,1,9,10)     =    178.788977    -0.000000     0.000048   178.789026
	   84 D(4,1,9,11)     =     62.125920     0.000000     0.000111    62.126031
	   85 D(4,1,9,15)     =    -59.599828    -0.000000     0.000078   -59.599750
	   86 D(5,12,24,21)   =   -179.563771    -0.000000     0.000002  -179.563770
	   87 D(5,12,24,25)   =     58.813605     0.000000     0.000067    58.813671
	   88 D(5,12,24,26)   =    -57.122453     0.000000     0.000042   -57.122411
	   89 D(6,5,12,13)    =    -58.170778     0.000000     0.000009   -58.170769
	   90 D(6,5,12,14)    =     58.492265    -0.000000    -0.000018    58.492247
	   91 D(6,5,12,24)    =   -179.896548     0.000000     0.000003  -179.896545
	   92 D(7,5,12,13)    =   -178.474691     0.000000     0.000010  -178.474682
	   93 D(7,5,12,14)    =    -61.811648    -0.000000    -0.000018   -61.811666
	   94 D(7,5,12,24)    =     59.799539     0.000000     0.000003    59.799542
	   95 D(8,5,12,13)    =     62.125956     0.000000     0.000010    62.125965
	   96 D(8,5,12,14)    =    178.788999    -0.000000    -0.000018   178.788981
	   97 D(8,5,12,24)    =    -59.599814     0.000000     0.000003   -59.599811
	   98 D(9,15,18,19)   =     62.049978    -0.000000     0.000016    62.049993
	   99 D(9,15,18,20)   =    -53.627457    -0.000000     0.000005   -53.627452
	  100 D(9,15,18,21)   =   -175.572795    -0.000000    -0.000037  -175.572832
	  101 D(10,9,15,16)   =   -179.190503     0.000000    -0.000228  -179.190731
	  102 D(10,9,15,17)   =     64.873446     0.000000    -0.000237    64.873209
	  103 D(10,9,15,18)   =    -57.567877    -0.000000    -0.000292   -57.568168
	  104 D(11,9,15,16)   =    -63.275573    -0.000000    -0.000302   -63.275875
	  105 D(11,9,15,17)   =   -179.211623    -0.000000    -0.000311  -179.211935
	  106 D(11,9,15,18)   =     58.347054    -0.000000    -0.000366    58.346688
	  107 D(12,24,21,18)  =   -175.572497    -0.000000    -0.000568  -175.573065
	  108 D(12,24,21,22)  =     62.050249    -0.000000    -0.000470    62.049780
	  109 D(12,24,21,23)  =    -53.627196    -0.000000    -0.000471   -53.627668
	  110 D(13,12,24,21)  =     58.346816    -0.000000    -0.000022    58.346794
	  111 D(13,12,24,25)  =    -63.275808     0.000000     0.000043   -63.275765
	  112 D(13,12,24,26)  =   -179.211866    -0.000000     0.000018  -179.211848
	  113 D(14,12,24,21)  =    -57.568093    -0.000000     0.000026   -57.568067
	  114 D(14,12,24,25)  =   -179.190717     0.000000     0.000091  -179.190626
	  115 D(14,12,24,26)  =     64.873225     0.000000     0.000067    64.873291
	  116 D(15,18,21,22)  =     58.925579    -0.000000     0.000783    58.926362
	  117 D(15,18,21,23)  =    174.938513     0.000000     0.000824   174.939338
	  118 D(15,18,21,24)  =    -63.406820     0.000000     0.000927   -63.405893
	  119 D(16,15,18,19)  =   -176.296009     0.000000     0.000036  -176.295973
	  120 D(16,15,18,20)  =     68.026556     0.000000     0.000025    68.026581
	  121 D(16,15,18,21)  =    -53.918782     0.000000    -0.000016   -53.918798
	  122 D(17,15,18,19)  =    -59.694273    -0.000000    -0.000053   -59.694326
	  123 D(17,15,18,20)  =   -175.371708    -0.000000    -0.000064  -175.371771
	  124 D(17,15,18,21)  =     62.682954    -0.000000    -0.000105    62.682849
	  125 D(18,21,24,25)  =    -53.918496     0.000000    -0.000553   -53.919049
	  126 D(18,21,24,26)  =     62.683240    -0.000000    -0.000605    62.682635
	  127 D(19,18,21,22)  =   -178.742040    -0.000000     0.000681  -178.741359
	  128 D(19,18,21,23)  =    -62.729106    -0.000000     0.000723   -62.728383
	  129 D(19,18,21,24)  =     58.925561     0.000000     0.000826    58.926387
	  130 D(20,18,21,22)  =    -62.729119    -0.000000     0.000733   -62.728386
	  131 D(20,18,21,23)  =     53.283815     0.000000     0.000775    53.284590
	  132 D(20,18,21,24)  =    174.938482     0.000000     0.000878   174.939360
	  133 D(22,21,24,25)  =   -176.295749     0.000000    -0.000455  -176.296204
	  134 D(22,21,24,26)  =    -59.694014    -0.000000    -0.000507   -59.694521
	  135 D(23,21,24,25)  =     68.026805     0.000000    -0.000457    68.026348
	  136 D(23,21,24,26)  =   -175.371460    -0.000000    -0.000508  -175.371968
	 ---------------------------------------------------------------------------

  ==> Convergence Check <==

  Measures of convergence in internal coordinates in au.
  Criteria marked as inactive (o), active & met (*), and active & unmet ( ).
  --------------------------------------------------------------------------------------------- ~
   Step     Total Energy     Delta E     MAX Force     RMS Force      MAX Disp      RMS Disp    ~
  --------------------------------------------------------------------------------------------- ~
    Convergence Criteria             o    2.00e-06 *    1.00e-06 *    6.00e-06 *    4.00e-06 *  ~
  --------------------------------------------------------------------------------------------- ~
      1    -314.98454382   -3.15e+02 o    4.60e-07 *    1.27e-07 *    1.62e-05      4.52e-06    ~
  ---------------------------------------------------------------------------------------------

	Writing optimization data to binary file.
	Structure for next step:
	Cartesian Geometry (in Angstrom)
	    C    -3.8236627053   0.2568412239  -1.1302902067
	    H    -4.8627138138  -0.0635583462  -1.0580163736
	    H    -3.4149608459  -0.1376712450  -2.0613913235
	    H    -3.8122570758   1.3453970805  -1.1981161890
	    C     3.8236637408  -0.2568354102  -1.1302866298
	    H     4.8627134620   0.0635678469  -1.0580128803
	    H     3.4149600930   0.1376766414  -2.0613868949
	    H     3.8122620754  -1.3453909847  -1.1981139019
	    C    -3.0036078073  -0.2178765334   0.0628616432
	    H    -3.0436144554  -1.3085179454   0.1281474740
	    H    -3.4421777804   0.1638589761   0.9886418154
	    C     3.0036073974   0.2178774731   0.0628659491
	    H     3.4421780066  -0.1638583740   0.9886451716
	    H     3.0436105399   1.3085185262   0.1281537614
	    C    -1.5473331585   0.2228758887  -0.0189780565
	    H    -1.5030372090   1.3162901854  -0.0699486475
	    H    -1.1177348703  -0.1493612210  -0.9527492516
	    C    -0.7185376027  -0.2578070107   1.1666379155
	    H    -0.7089811840  -1.3525750515   1.1779908730
	    H    -1.2133532068   0.0568552352   2.0900852426
	    C     0.7185362401   0.2578010044   1.1666402972
	    H     0.7089797804   1.3525687184   1.1779954890
	    H     1.2133495694  -0.0568630109   2.0900879571
	    C     1.5473342703  -0.2228791831  -0.0189749663
	    H     1.5030419773  -1.3162934218  -0.0699456575
	    H     1.1177357958   0.1493571110  -0.9527461817
			--------------------------
			 OPTKING Finished Execution 
			--------------------------

    Structure for next step:
    Molecular point group: c1
    Full point group: C1

    Geometry (in Angstrom), charge = 0, multiplicity = 1:

    C           -3.823662752286     0.256841485308    -1.130290913706
    H           -4.862713860797    -0.063558084743    -1.058017080607
    H           -3.414960892925    -0.137670983512    -2.061392030505
    H           -3.812257122835     1.345397341920    -1.198116896025
    C            3.823663693848    -0.256835148715    -1.130287336849
    H            4.862713414990     0.063568108368    -1.058013587325
    H            3.414960045953     0.137676902823    -2.061387601922
    H            3.812262028444    -1.345390723239    -1.198114608941
    C           -3.003607854271    -0.217876271928     0.062860936182
    H           -3.043614502384    -1.308517683905     0.128146766975
    H           -3.442177827423     0.163859237585     0.988641108334
    C            3.003607350385     0.217877734506     0.062865242023
    H            3.442177959596    -0.163858112532     0.988644464513
    H            3.043610492951     1.308518787690     0.128153054319
    C           -1.547333205452     0.222876150109    -0.018978763574
    H           -1.503037256024     1.316290446856    -0.069949354511
    H           -1.117734917334    -0.149360959579    -0.952749958628
    C           -0.718537649687    -0.257806749281     1.166637208449
    H           -0.708981230976    -1.352574790047     1.177990165961
    H           -1.213353253765     0.056855496627     2.090084535539
    C            0.718536193082     0.257801265895     1.166639590116
    H            0.708979733359     1.352568979889     1.177994782006
    H            1.213349522443    -0.056862749462     2.090087250063
    C            1.547334223337    -0.222878921662    -0.018975673295
    H            1.503041930330    -1.316293160388    -0.069946364500
    H            1.117735748828     0.149357372411    -0.952746888788

gradient() will perform analytic gradient computation.

*** tstart() called on wr40
*** at Tue Sep 20 15:45:00 2016


         ---------------------------------------------------------
                                   SCF
            by Justin Turney, Rob Parrish, and Andy Simmonett
                              RHF Reference
                       32 Threads, 110000 MiB Core
         ---------------------------------------------------------

  ==> Geometry <==

    Molecular point group: c1
    Full point group: C1

    Geometry (in Angstrom), charge = 0, multiplicity = 1:

       Center              X                  Y                   Z               Mass       
    ------------   -----------------  -----------------  -----------------  -----------------
           C         -3.823662752286     0.256841485308    -1.130290913706    12.000000000000
           H         -4.862713860797    -0.063558084743    -1.058017080607     1.007825032070
           H         -3.414960892925    -0.137670983512    -2.061392030505     1.007825032070
           H         -3.812257122835     1.345397341920    -1.198116896025     1.007825032070
           C          3.823663693848    -0.256835148715    -1.130287336849    12.000000000000
           H          4.862713414990     0.063568108368    -1.058013587325     1.007825032070
           H          3.414960045953     0.137676902823    -2.061387601922     1.007825032070
           H          3.812262028444    -1.345390723239    -1.198114608941     1.007825032070
           C         -3.003607854271    -0.217876271928     0.062860936182    12.000000000000
           H         -3.043614502384    -1.308517683905     0.128146766975     1.007825032070
           H         -3.442177827423     0.163859237585     0.988641108334     1.007825032070
           C          3.003607350385     0.217877734506     0.062865242023    12.000000000000
           H          3.442177959596    -0.163858112532     0.988644464513     1.007825032070
           H          3.043610492951     1.308518787690     0.128153054319     1.007825032070
           C         -1.547333205452     0.222876150109    -0.018978763574    12.000000000000
           H         -1.503037256024     1.316290446856    -0.069949354511     1.007825032070
           H         -1.117734917334    -0.149360959579    -0.952749958628     1.007825032070
           C         -0.718537649687    -0.257806749281     1.166637208449    12.000000000000
           H         -0.708981230976    -1.352574790047     1.177990165961     1.007825032070
           H         -1.213353253765     0.056855496627     2.090084535539     1.007825032070
           C          0.718536193082     0.257801265895     1.166639590116    12.000000000000
           H          0.708979733359     1.352568979889     1.177994782006     1.007825032070
           H          1.213349522443    -0.056862749462     2.090087250063     1.007825032070
           C          1.547334223337    -0.222878921662    -0.018975673295    12.000000000000
           H          1.503041930330    -1.316293160388    -0.069946364500     1.007825032070
           H          1.117735748828     0.149357372411    -0.952746888788     1.007825032070

  Running in c1 symmetry.

  Rotational constants: A =      0.15022  B =      0.02078  C =      0.01906 [cm^-1]
  Rotational constants: A =   4503.35760  B =    622.94535  C =    571.54675 [MHz]
  Nuclear repulsion =  383.064247446019351

  Charge       = 0
  Multiplicity = 1
  Electrons    = 66
  Nalpha       = 33
  Nbeta        = 33

  ==> Algorithm <==

  SCF Algorithm Type is DF.
  DIIS enabled.
  MOM disabled.
  Fractional occupation disabled.
  Guess Type is READ.
  Energy threshold   = 1.00e-10
  Density threshold  = 1.00e-10
  Integral threshold = 0.00e+00

  ==> Primary Basis <==

  Basis Set: AUG-CC-PVTZ
    Number of shells: 274
    Number of basis function: 782
    Number of Cartesian functions: 890
    Spherical Harmonics?: true
    Max angular momentum: 3

  ==> Pre-Iterations <==

   -------------------------------------------------------
    Irrep   Nso     Nmo     Nalpha   Nbeta   Ndocc  Nsocc
   -------------------------------------------------------
     A        782     782       0       0       0       0
   -------------------------------------------------------
    Total     782     782      33      33      33       0
   -------------------------------------------------------

  ==> Integral Setup <==

  ==> DFJK: Density-Fitted J/K Matrices <==

    J tasked:                  Yes
    K tasked:                  Yes
    wK tasked:                  No
    OpenMP threads:             32
    Integrals threads:          32
    Memory (MB):             78678
    Algorithm:                Core
    Integral Cache:           NONE
    Schwarz Cutoff:          1E-12
    Fitting Condition:       1E-12

   => Auxiliary Basis Set <=

  Basis Set: 
    Number of shells: 492
    Number of basis function: 1660
    Number of Cartesian functions: 2038
    Spherical Harmonics?: true
    Max angular momentum: 4

  Minimum eigenvalue in the overlap matrix is 2.3288701730E-06.
  Using Symmetric Orthogonalization.
  SCF Guess: Reading in previously saved MOs, projecting if necessary.

  Using orbitals from previous SCF, no projection.
  Recomputing DOCC and SOCC from number of alpha and beta electrons from previous calculation.
              A 
    DOCC [    33 ]

  ==> Iterations <==

                           Total Energy        Delta E     RMS |[F,P]|

   @DF-RHF iter   0:  -313.54596423917229   -3.13546e+02   3.16101e-08 
   @DF-RHF iter   1:  -313.54596443762551   -1.98453e-07   6.30174e-09 
   @DF-RHF iter   2:  -313.54596443764689   -2.13731e-11   2.49795e-09 DIIS
   @DF-RHF iter   3:  -313.54596443764996   -3.06954e-12   1.09191e-09 DIIS
   @DF-RHF iter   4:  -313.54596443765098   -1.02318e-12   1.29752e-10 DIIS
   @DF-RHF iter   5:  -313.54596443765064    3.41061e-13   3.78449e-11 DIIS

  ==> Post-Iterations <==

    Orbital Energies (a.u.)
    -----------------------

    Doubly Occupied:                                                      

       1A    -11.212306     2A    -11.212306     3A    -11.210705  
       4A    -11.210157     5A    -11.209373     6A    -11.209309  
       7A    -11.207007     8A    -11.207007     9A     -1.093628  
      10A     -1.061280    11A     -1.012808    12A     -0.946894  
      13A     -0.882197    14A     -0.811389    15A     -0.795860  
      16A     -0.770028    17A     -0.648308    18A     -0.637152  
      19A     -0.597123    20A     -0.592202    21A     -0.569794  
      22A     -0.564088    23A     -0.552502    24A     -0.522804  
      25A     -0.522397    26A     -0.499060    27A     -0.483386  
      28A     -0.471667    29A     -0.468361    30A     -0.460146  
      31A     -0.454872    32A     -0.441428    33A     -0.433860  

    Virtual:                                                              

      34A      0.030421    35A      0.031885    36A      0.034123  
      37A      0.036153    38A      0.043680    39A      0.048181  
      40A      0.048997    41A      0.054112    42A      0.059195  
      43A      0.062237    44A      0.065984    45A      0.069932  
      46A      0.074600    47A      0.081643    48A      0.085094  
      49A      0.091034    50A      0.092792    51A      0.107160  
      52A      0.112795    53A      0.115437    54A      0.117668  
      55A      0.118248    56A      0.130219    57A      0.130816  
      58A      0.134025    59A      0.141215    60A      0.142456  
      61A      0.145538    62A      0.149025    63A      0.153285  
      64A      0.155749    65A      0.160099    66A      0.160785  
      67A      0.164213    68A      0.166084    69A      0.171666  
      70A      0.180085    71A      0.181480    72A      0.187534  
      73A      0.190748    74A      0.198240    75A      0.201159  
      76A      0.212107    77A      0.222319    78A      0.223763  
      79A      0.229175    80A      0.238417    81A      0.239941  
      82A      0.246434    83A      0.258270    84A      0.259654  
      85A      0.264599    86A      0.266357    87A      0.267693  
      88A      0.269308    89A      0.284368    90A      0.284736  
      91A      0.292165    92A      0.296941    93A      0.302366  
      94A      0.307379    95A      0.309794    96A      0.317987  
      97A      0.320516    98A      0.324570    99A      0.332383  
     100A      0.334197   101A      0.342281   102A      0.342535  
     103A      0.342889   104A      0.357891   105A      0.360538  
     106A      0.361331   107A      0.365456   108A      0.368616  
     109A      0.369143   110A      0.373071   111A      0.376162  
     112A      0.379226   113A      0.384817   114A      0.390786  
     115A      0.391013   116A      0.395476   117A      0.396950  
     118A      0.396957   119A      0.400101   120A      0.400910  
     121A      0.404974   122A      0.412017   123A      0.414841  
     124A      0.423242   125A      0.428717   126A      0.433169  
     127A      0.435399   128A      0.436508   129A      0.447067  
     130A      0.448811   131A      0.453592   132A      0.454099  
     133A      0.457640   134A      0.460462   135A      0.463205  
     136A      0.464900   137A      0.465641   138A      0.471859  
     139A      0.479906   140A      0.479983   141A      0.480578  
     142A      0.487195   143A      0.491241   144A      0.492297  
     145A      0.498408   146A      0.506545   147A      0.510485  
     148A      0.511341   149A      0.512915   150A      0.517981  
     151A      0.521218   152A      0.525817   153A      0.529549  
     154A      0.532742   155A      0.536283   156A      0.541356  
     157A      0.541806   158A      0.547963   159A      0.554359  
     160A      0.556805   161A      0.558458   162A      0.564825  
     163A      0.570096   164A      0.583608   165A      0.583884  
     166A      0.587299   167A      0.589320   168A      0.597091  
     169A      0.603770   170A      0.604445   171A      0.609389  
     172A      0.614498   173A      0.615898   174A      0.619980  
     175A      0.627458   176A      0.633596   177A      0.634515  
     178A      0.644210   179A      0.649410   180A      0.653761  
     181A      0.663324   182A      0.665817   183A      0.675682  
     184A      0.685583   185A      0.691248   186A      0.692373  
     187A      0.710574   188A      0.712730   189A      0.713537  
     190A      0.718062   191A      0.721796   192A      0.728979  
     193A      0.729519   194A      0.747735   195A      0.748217  
     196A      0.767041   197A      0.770686   198A      0.775600  
     199A      0.775919   200A      0.794706   201A      0.795398  
     202A      0.809184   203A      0.810021   204A      0.828249  
     205A      0.837774   206A      0.838511   207A      0.847280  
     208A      0.849621   209A      0.851553   210A      0.859624  
     211A      0.861674   212A      0.867181   213A      0.869692  
     214A      0.876961   215A      0.879931   216A      0.883384  
     217A      0.885253   218A      0.897037   219A      0.899886  
     220A      0.901652   221A      0.911584   222A      0.913011  
     223A      0.914832   224A      0.924746   225A      0.927407  
     226A      0.934763   227A      0.936073   228A      0.938583  
     229A      0.941401   230A      0.948374   231A      0.949496  
     232A      0.950893   233A      0.953174   234A      0.960093  
     235A      0.966898   236A      0.967284   237A      0.978296  
     238A      0.980361   239A      0.993581   240A      0.995169  
     241A      1.004399   242A      1.005386   243A      1.015950  
     244A      1.018343   245A      1.024159   246A      1.027555  
     247A      1.031525   248A      1.037704   249A      1.042327  
     250A      1.047897   251A      1.051391   252A      1.064487  
     253A      1.068343   254A      1.072539   255A      1.080076  
     256A      1.084880   257A      1.086678   258A      1.098368  
     259A      1.108620   260A      1.110426   261A      1.112745  
     262A      1.117936   263A      1.124067   264A      1.130933  
     265A      1.132056   266A      1.136058   267A      1.138639  
     268A      1.146300   269A      1.151399   270A      1.158382  
     271A      1.163900   272A      1.171448   273A      1.172226  
     274A      1.184393   275A      1.185285   276A      1.189782  
     277A      1.193417   278A      1.195245   279A      1.200229  
     280A      1.200511   281A      1.205666   282A      1.213939  
     283A      1.215355   284A      1.218067   285A      1.229387  
     286A      1.238403   287A      1.244673   288A      1.245885  
     289A      1.255239   290A      1.256856   291A      1.268284  
     292A      1.270262   293A      1.277619   294A      1.279673  
     295A      1.285195   296A      1.296515   297A      1.297510  
     298A      1.298161   299A      1.303192   300A      1.316845  
     301A      1.319298   302A      1.320658   303A      1.325995  
[...]
	 D(7,5,12,14)     =        -1.078817	     -61.811650
	 D(7,5,12,24)     =         1.043699	      59.799563
	 D(8,5,12,13)     =         1.084303	      62.125994
	 D(8,5,12,14)     =         3.120457	     178.788999
	 D(8,5,12,24)     =        -1.040213	     -59.599788
	 D(9,15,18,19)    =         1.082982	      62.050287
	 D(9,15,18,20)    =        -0.935970	     -53.627126
	 D(9,15,18,21)    =        -3.064317	    -175.572450
	 D(10,9,15,16)    =        -3.127465	    -179.190554
	 D(10,9,15,17)    =         1.132255	      64.873443
	 D(10,9,15,18)    =        -1.004750	     -57.567949
	 D(11,9,15,16)    =        -1.104369	     -63.275693
	 D(11,9,15,17)    =        -3.127834	    -179.211696
	 D(11,9,15,18)    =         1.018346	      58.346912
	 D(12,24,21,18)   =        -3.064321	    -175.572670
	 D(12,24,21,22)   =         1.082978	      62.050096
	 D(12,24,21,23)   =        -0.935973	     -53.627315
	 D(13,12,24,21)   =         1.018344	      58.346796
	 D(13,12,24,25)   =        -1.104371	     -63.275780
	 D(13,12,24,26)   =        -3.127836	    -179.211817
	 D(14,12,24,21)   =        -1.004752	     -57.568073
	 D(14,12,24,25)   =        -3.127467	    -179.190650
	 D(14,12,24,26)   =         1.132253	      64.873314
	 D(15,18,21,22)   =         1.028444	      58.925493
	 D(15,18,21,23)   =         3.053252	     174.938425
	 D(15,18,21,24)   =        -1.106658	     -63.406855
	 D(16,15,18,19)   =        -3.076940	    -176.295670
	 D(16,15,18,20)   =         1.187294	      68.026917
	 D(16,15,18,21)   =        -0.941054	     -53.918407
	 D(17,15,18,19)   =        -1.041857	     -59.694032
	 D(17,15,18,20)   =        -3.060809	    -175.371446
	 D(17,15,18,21)   =         1.094029	      62.683231
	 D(18,21,24,25)   =        -0.941058	     -53.918661
	 D(18,21,24,26)   =         1.094025	      62.683024
	 D(19,18,21,22)   =        -3.119639	    -178.742128
	 D(19,18,21,23)   =        -1.094831	     -62.729196
	 D(19,18,21,24)   =         1.028444	      58.925524
	 D(20,18,21,22)   =        -1.094831	     -62.729196
	 D(20,18,21,23)   =         0.929977	      53.283736
	 D(20,18,21,24)   =         3.053252	     174.938456
	 D(22,21,24,25)   =        -3.076944	    -176.295894
	 D(22,21,24,26)   =        -1.041860	     -59.694209
	 D(23,21,24,25)   =         1.187290	      68.026694
	 D(23,21,24,26)   =        -3.060812	    -175.371621

	Current energy   :      -314.9845438106

	Energy change for the previous step:
		Projected    :        -0.0000000000
		Actual       :        -0.0000000010

	Performing BFGS update.
	Previous computed or guess Hessian on step 1.
	Denominators (dg)(dq) or (dq)(dq) are very small.
	 Skipping Hessian update for step 4.
	Denominators (dg)(dq) or (dq)(dq) are very small.
	 Skipping Hessian update for step 3.
	Denominators (dg)(dq) or (dq)(dq) are very small.
	 Skipping Hessian update for step 2.
	Steps to be used in Hessian update: 1
	Taking RFO optimization step.
	Going to follow RFO solution 1.
	Using RFO vector 1.
	Norm of target step-size    0.00001
	Projected energy change by RFO approximation:        -0.0000000000

	Back-transformation to cartesian coordinates...
	Successfully converged to displaced geometry.

	--- Internal Coordinate Step in ANG or DEG, aJ/ANG or AJ/DEG ---
	 ---------------------------------------------------------------------------
	   Coordinate                Previous        Force       Change         New 
	   ----------                --------       ------       ------       ------
	    1 R(1,2)          =      1.089728    -0.000003    -0.000000     1.089728
	    2 R(1,3)          =      1.090700    -0.000003     0.000000     1.090700
	    3 R(1,4)          =      1.090726    -0.000004     0.000000     1.090726
	    4 R(1,9)          =      1.523633    -0.000001     0.000000     1.523633
	    5 R(5,6)          =      1.089728    -0.000001     0.000000     1.089728
	    6 R(5,7)          =      1.090700    -0.000002     0.000000     1.090700
	    7 R(5,8)          =      1.090726    -0.000002     0.000000     1.090726
	    8 R(5,12)         =      1.523633     0.000000     0.000000     1.523633
	    9 R(9,10)         =      1.093326    -0.000006    -0.000000     1.093326
	   10 R(9,11)         =      1.093222    -0.000006    -0.000000     1.093222
	   11 R(9,15)         =      1.523711    -0.000002    -0.000000     1.523711
	   12 R(12,13)        =      1.093222    -0.000002     0.000000     1.093222
	   13 R(12,14)        =      1.093326    -0.000002     0.000000     1.093326
	   14 R(12,24)        =      1.523711     0.000000     0.000000     1.523711
	   15 R(15,16)        =      1.095498    -0.000008    -0.000000     1.095497
	   16 R(15,17)        =      1.093181    -0.000007    -0.000000     1.093180
	   17 R(15,18)        =      1.524350    -0.000002    -0.000000     1.524350
	   18 R(18,19)        =      1.094869    -0.000006    -0.000000     1.094868
	   19 R(18,20)        =      1.093897    -0.000005    -0.000000     1.093896
	   20 R(18,21)        =      1.526772    -0.000001    -0.000000     1.526772
	   21 R(21,22)        =      1.094869    -0.000003    -0.000000     1.094869
	   22 R(21,23)        =      1.093897    -0.000002    -0.000000     1.093897
	   23 R(21,24)        =      1.524350    -0.000000    -0.000000     1.524350
	   24 R(24,25)        =      1.095498    -0.000004    -0.000000     1.095497
	   25 R(24,26)        =      1.093180    -0.000003     0.000000     1.093180
	   26 B(1,9,10)       =    109.747215    -0.000000     0.000008   109.747223
	   27 B(1,9,11)       =    109.781821     0.000000     0.000021   109.781842
	   28 B(1,9,15)       =    112.471033     0.000000     0.000020   112.471052
	   29 B(2,1,3)        =    107.912212     0.000000    -0.000002   107.912210
	   30 B(2,1,4)        =    107.910303     0.000000    -0.000003   107.910300
	   31 B(2,1,9)        =    111.694005     0.000000     0.000001   111.694005
	   32 B(3,1,4)        =    107.696957     0.000000    -0.000007   107.696950
	   33 B(3,1,9)        =    110.740221    -0.000000     0.000004   110.740224
	   34 B(4,1,9)        =    110.733250    -0.000000     0.000007   110.733257
	   35 B(5,12,13)      =    109.781829    -0.000000     0.000001   109.781830
	   36 B(5,12,14)      =    109.747224    -0.000000    -0.000001   109.747223
	   37 B(5,12,24)      =    112.471023     0.000000     0.000008   112.471031
	   38 B(6,5,7)        =    107.912214     0.000000     0.000001   107.912215
	   39 B(6,5,8)        =    107.910306     0.000000    -0.000002   107.910304
	   40 B(6,5,12)       =    111.694017     0.000000    -0.000008   111.694010
	   41 B(7,5,8)        =    107.696961     0.000000    -0.000007   107.696954
	   42 B(7,5,12)       =    110.740213    -0.000000     0.000005   110.740218
	   43 B(8,5,12)       =    110.733237    -0.000000     0.000010   110.733247
	   44 B(9,15,16)      =    109.260028     0.000000     0.000005   109.260033
	   45 B(9,15,17)      =    108.842604     0.000000     0.000004   108.842609
	   46 B(9,15,18)      =    112.746280    -0.000000    -0.000013   112.746268
	   47 B(10,9,11)      =    106.444089     0.000000    -0.000018   106.444071
	   48 B(10,9,15)      =    109.070526    -0.000000    -0.000011   109.070515
	   49 B(11,9,15)      =    109.141098    -0.000000    -0.000021   109.141077
	   50 B(12,24,21)     =    112.746253    -0.000000     0.000017   112.746271
	   51 B(12,24,25)     =    109.260016     0.000000     0.000017   109.260032
	   52 B(12,24,26)     =    108.842602     0.000000     0.000005   108.842607
	   53 B(13,12,14)     =    106.444108     0.000000    -0.000016   106.444092
	   54 B(13,12,24)     =    109.141080    -0.000000    -0.000001   109.141078
	   55 B(14,12,24)     =    109.070520    -0.000000     0.000008   109.070527
	   56 B(15,18,19)     =    109.154626    -0.000000    -0.000019   109.154607
	   57 B(15,18,20)     =    108.659473     0.000000     0.000023   108.659496
	   58 B(15,18,21)     =    113.908101     0.000000    -0.000027   113.908073
	   59 B(16,15,17)     =    106.512695     0.000000     0.000020   106.512715
	   60 B(16,15,18)     =    109.204505     0.000000    -0.000031   109.204474
	   61 B(17,15,18)     =    110.079715     0.000000     0.000016   110.079730
	   62 B(18,21,22)     =    109.236286     0.000000     0.000017   109.236303
	   63 B(18,21,23)     =    109.185142    -0.000000     0.000001   109.185143
	   64 B(18,21,24)     =    113.908101     0.000000    -0.000016   113.908085
	   65 B(19,18,20)     =    106.428614     0.000000    -0.000014   106.428600
	   66 B(19,18,21)     =    109.236299     0.000000     0.000019   109.236318
	   67 B(20,18,21)     =    109.185126    -0.000000     0.000018   109.185144
	   68 B(21,24,25)     =    109.204504     0.000000    -0.000027   109.204477
	   69 B(21,24,26)     =    110.079726     0.000000     0.000008   110.079734
	   70 B(22,21,23)     =    106.428613     0.000000    -0.000012   106.428601
	   71 B(22,21,24)     =    109.154610    -0.000000    -0.000005   109.154605
	   72 B(23,21,24)     =    108.659487     0.000000     0.000014   108.659501
	   73 B(25,24,26)     =    106.512729    -0.000000    -0.000022   106.512707
	   74 D(1,9,15,16)    =     58.813746     0.000000    -0.000039    58.813706
	   75 D(1,9,15,17)    =    -57.122257    -0.000000    -0.000069   -57.122326
	   76 D(1,9,15,18)    =   -179.563650    -0.000000    -0.000083  -179.563733
	   77 D(2,1,9,10)     =     58.492241     0.000000     0.000019    58.492260
	   78 D(2,1,9,11)     =    -58.170732    -0.000000     0.000024   -58.170708
	   79 D(2,1,9,15)     =   -179.896538     0.000000     0.000023  -179.896515
	   80 D(3,1,9,10)     =    -61.811667     0.000000     0.000018   -61.811648
	   81 D(3,1,9,11)     =   -178.474640    -0.000000     0.000024  -178.474616
	   82 D(3,1,9,15)     =     59.799555     0.000000     0.000022    59.799577
	   83 D(4,1,9,10)     =    178.788973     0.000000     0.000020   178.788993
	   84 D(4,1,9,11)     =     62.126000    -0.000000     0.000026    62.126026
	   85 D(4,1,9,15)     =    -59.599806     0.000000     0.000024   -59.599781
	   86 D(5,12,24,21)   =   -179.563774     0.000000     0.000075  -179.563698
	   87 D(5,12,24,25)   =     58.813649     0.000000     0.000086    58.813736
	   88 D(5,12,24,26)   =    -57.122387    -0.000000     0.000101   -57.122286
	   89 D(6,5,12,13)    =    -58.170742    -0.000000     0.000035   -58.170707
	   90 D(6,5,12,14)    =     58.492264     0.000000     0.000016    58.492279
	   91 D(6,5,12,24)    =   -179.896524     0.000000     0.000031  -179.896493
	   92 D(7,5,12,13)    =   -178.474656    -0.000000     0.000036  -178.474620
	   93 D(7,5,12,14)    =    -61.811650     0.000000     0.000017   -61.811633
	   94 D(7,5,12,24)    =     59.799563     0.000000     0.000032    59.799594
	   95 D(8,5,12,13)    =     62.125994    -0.000000     0.000035    62.126028
	   96 D(8,5,12,14)    =    178.788999     0.000000     0.000015   178.789014
	   97 D(8,5,12,24)    =    -59.599788     0.000000     0.000030   -59.599758
	   98 D(9,15,18,19)   =     62.050287     0.000000     0.000025    62.050312
	   99 D(9,15,18,20)   =    -53.627126     0.000000     0.000039   -53.627087
	  100 D(9,15,18,21)   =   -175.572450    -0.000000     0.000017  -175.572433
	  101 D(10,9,15,16)   =   -179.190554     0.000000    -0.000024  -179.190578
	  102 D(10,9,15,17)   =     64.873443    -0.000000    -0.000054    64.873390
	  103 D(10,9,15,18)   =    -57.567949    -0.000000    -0.000068   -57.568017
	  104 D(11,9,15,16)   =    -63.275693     0.000000    -0.000064   -63.275757
	  105 D(11,9,15,17)   =   -179.211696    -0.000000    -0.000094  -179.211790
	  106 D(11,9,15,18)   =     58.346912    -0.000000    -0.000108    58.346803
	  107 D(12,24,21,18)  =   -175.572670     0.000000     0.000220  -175.572450
	  108 D(12,24,21,22)  =     62.050096     0.000000     0.000213    62.050309
	  109 D(12,24,21,23)  =    -53.627315     0.000000     0.000222   -53.627094
	  110 D(13,12,24,21)  =     58.346796    -0.000000     0.000070    58.346866
	  111 D(13,12,24,25)  =    -63.275780     0.000000     0.000081   -63.275700
	  112 D(13,12,24,26)  =   -179.211817    -0.000000     0.000095  -179.211722
	  113 D(14,12,24,21)  =    -57.568073     0.000000     0.000085   -57.567988
	  114 D(14,12,24,25)  =   -179.190650     0.000000     0.000096  -179.190553
	  115 D(14,12,24,26)  =     64.873314    -0.000000     0.000111    64.873425
	  116 D(15,18,21,22)  =     58.925493     0.000000     0.000080    58.925573
	  117 D(15,18,21,23)  =    174.938425     0.000000     0.000076   174.938501
	  118 D(15,18,21,24)  =    -63.406855     0.000000     0.000084   -63.406771
	  119 D(16,15,18,19)  =   -176.295670    -0.000000     0.000001  -176.295668
	  120 D(16,15,18,20)  =     68.026917    -0.000000     0.000015    68.026932
	  121 D(16,15,18,21)  =    -53.918407    -0.000000    -0.000007   -53.918414
	  122 D(17,15,18,19)  =    -59.694032     0.000000     0.000017   -59.694015
	  123 D(17,15,18,20)  =   -175.371446     0.000000     0.000031  -175.371415
	  124 D(17,15,18,21)  =     62.683231     0.000000     0.000009    62.683239
	  125 D(18,21,24,25)  =    -53.918661     0.000000     0.000234   -53.918427
	  126 D(18,21,24,26)  =     62.683024     0.000000     0.000196    62.683220
	  127 D(19,18,21,22)  =   -178.742128    -0.000000     0.000051  -178.742077
	  128 D(19,18,21,23)  =    -62.729196    -0.000000     0.000046   -62.729150
	  129 D(19,18,21,24)  =     58.925524     0.000000     0.000055    58.925579
	  130 D(20,18,21,22)  =    -62.729196     0.000000     0.000054   -62.729142
	  131 D(20,18,21,23)  =     53.283736     0.000000     0.000050    53.283786
	  132 D(20,18,21,24)  =    174.938456     0.000000     0.000059   174.938515
	  133 D(22,21,24,25)  =   -176.295894     0.000000     0.000227  -176.295668
	  134 D(22,21,24,26)  =    -59.694209     0.000000     0.000189   -59.694021
	  135 D(23,21,24,25)  =     68.026694     0.000000     0.000236    68.026929
	  136 D(23,21,24,26)  =   -175.371621     0.000000     0.000198  -175.371424
	 ---------------------------------------------------------------------------

  ==> Convergence Check <==

  Measures of convergence in internal coordinates in au.
  Criteria marked as inactive (o), active & met (*), and active & unmet ( ).
  ---------------------------------------------------------------------------------------------
   Step     Total Energy     Delta E     MAX Force     RMS Force      MAX Disp      RMS Disp   
  ---------------------------------------------------------------------------------------------
    Convergence Criteria             o    2.00e-06 *    1.00e-06 *    6.00e-06 *    4.00e-06 *
  ---------------------------------------------------------------------------------------------
      5    -314.98454381   -9.82e-10 o    9.88e-07 *    2.04e-07 *    4.11e-06 *    1.17e-06 *  ~
  ---------------------------------------------------------------------------------------------


  **** Optimization is complete! (in 5 steps) ****

  ==> Optimization Summary <==

  Measures of convergence in internal coordinates in au.
  --------------------------------------------------------------------------------------------------------------- ~
   Step         Total Energy             Delta E       MAX Force       RMS Force        MAX Disp        RMS Disp  ~
  --------------------------------------------------------------------------------------------------------------- ~
      1    -314.984543815151   -314.984543815151      0.00000046      0.00000013      0.00001618      0.00000452  ~
      2    -314.984543808813      0.000000006338      0.00000152      0.00000038      0.00001243      0.00000426  ~
      3    -314.984543811970     -0.000000003157      0.00000098      0.00000022      0.00001266      0.00000360  ~
      4    -314.984543809657      0.000000002313      0.00000080      0.00000020      0.00000701      0.00000269  ~
      5    -314.984543810638     -0.000000000982      0.00000099      0.00000020      0.00000411      0.00000117  ~
  --------------------------------------------------------------------------------------------------------------- ~

	Writing optimization data to binary file.
	Final energy is   -314.9845438106385
	Final (previous) structure:
	Cartesian Geometry (in Angstrom)
	    C    -3.8236733744   0.2568434887  -1.1302828843
	    H    -4.8627238559  -0.0635572006  -1.0580054791
	    H    -3.4149748849  -0.1376669217  -2.0613863110
	    H    -3.8122690699   1.3453994151  -1.1981070895
	    C     3.8236750009  -0.2568381846  -1.1302786874
	    H     4.8627243858   0.0635652692  -1.0580002043
	    H     3.4149764084   0.1376711655  -2.0613822917
	    H     3.8122736663  -1.3453939392  -1.1981029434
	    C    -3.0036133938  -0.2178754512   0.0628647565
	    H    -3.0436196274  -1.3085170190   0.1281492814
	    H    -3.4421798005   0.1638585659   0.9886473041
	    C     3.0036122872   0.2178781796   0.0628680236
	    H     3.4421783179  -0.1638547347   0.9886507886
	    H     3.0436149160   1.3085195668   0.1281527019
	    C    -1.5473394065   0.2228773902  -0.0189808133
	    H    -1.5030443518   1.3162921799  -0.0699468979
	    H    -1.1177466921  -0.1493549971  -0.9527565842
	    C    -0.7185363079  -0.2578110712   1.1666279389
	    H    -0.7089746209  -1.3525793827   1.1779730824
	    H    -1.2133501844   0.0568418820   2.0900796074
	    C     0.7185351701   0.2578043685   1.1666300564
	    H     0.7089732067   1.3525724970   1.1779791931
	    H     1.2133477084  -0.0568517727   2.0900811284
	    C     1.5473399463  -0.2228791266  -0.0189794231
	    H     1.5030486690  -1.3162936592  -0.0699473936
	    H     1.1177467389   0.1493539268  -0.9527543960
	Saving final (previous) structure.
			--------------------------
			 OPTKING Finished Execution 
			--------------------------

    Final optimized geometry and variables:
    Molecular point group: c1
    Full point group: C1

    Geometry (in Angstrom), charge = 0, multiplicity = 1:

    C           -3.823673374369     0.256843488715    -1.130282884258
    H           -4.862723855855    -0.063557200642    -1.058005479069
    H           -3.414974884909    -0.137666921694    -2.061386310956
    H           -3.812269069852     1.345399415075    -1.198107089541
    C            3.823675000933    -0.256838184607    -1.130278687404
    H            4.862724385762     0.063565269196    -1.058000204289
    H            3.414976408371     0.137671165495    -2.061382291712
    H            3.812273666266    -1.345393939243    -1.198102943439
    C           -3.003613393828    -0.217875451176     0.062864756518
    H           -3.043619627413    -1.308517018970     0.128149281399
    H           -3.442179800455     0.163858565920     0.988647304128
    C            3.003612287155     0.217878179621     0.062868023607
    H            3.442178317941    -0.163854734741     0.988650788618
    H            3.043614915959     1.308519566776     0.128152701926
    C           -1.547339406513     0.222877390172    -0.018980813288
    H           -1.503044351756     1.316292179866    -0.069946897873
    H           -1.117746692096    -0.149354997056    -0.952756584249
    C           -0.718536307900    -0.257811071166     1.166627938901
    H           -0.708974620908    -1.352579382704     1.177973082426
    H           -1.213350184426     0.056841882033     2.090079607439
    C            0.718535170112     0.257804368458     1.166630056384
    H            0.708973206659     1.352572496994     1.177979193148
    H            1.213347708396    -0.056851772748     2.090081128386
    C            1.547339946343    -0.222879126605    -0.018979423110
    H            1.503048668967    -1.316293659176    -0.069947393620
    H            1.117746738871     0.149353926780    -0.952754396007

	Cleaning optimization helper files.

*** Psi4 exiting successfully. Buy a developer a beer!
