    -----------------------------------------------------------------------
          Psi4: An Open-Source Ab Initio Electronic Structure Package
                              Psi4 1.0.0 Driver

                          Git: Rev {master} 6a9a71b dirty

    J. M. Turney, A. C. Simmonett, R. M. Parrish, E. G. Hohenstein,
    F. A. Evangelista, J. T. Fermann, B. J. Mintz, L. A. Burns, J. J. Wilke,
    M. L. Abrams, N. J. Russ, M. L. Leininger, C. L. Janssen, E. T. Seidl,
    W. D. Allen, H. F. Schaefer, R. A. King, E. F. Valeev, C. D. Sherrill,
    and T. D. Crawford, WIREs Comput. Mol. Sci. 2, 556-565 (2012)
    (doi: 10.1002/wcms.93)

                         Additional Contributions by
    A. E. DePrince, U. Bozkaya, A. Yu. Sokolov, D. G. A. Smith, R. Di Remigio,
    R. M. Richard, J. F. Gonthier, H. R. McAlexander, M. Saitow, and
    B. P. Pritchard
    -----------------------------------------------------------------------


    Psi4 started on: Tue Sep 20 23:31:52 2016

    Process ID:  25437
    PSI4DATADIR: /usr/local/hpc5/psi4conda/share/psi4
    Memory level set to 256.000 MB

  ==> Input File <==

--------------------------------------------------------------------------
memory 60 Gb

molecule molecule_61_psi {
0 1
C           -2.938442996821    -0.096466800476    -1.179518817172
H           -2.059185735200    -0.478798621731    -1.698171183610
H           -3.107195224733     0.926085020753    -1.521863347268
H           -3.791975092798    -0.698868098237    -1.489458967592
C            3.010207523019     0.993059568945    -0.594786928111
H            2.118268660387     1.601851821679    -0.733892363882
H            3.333739940136     0.653769001636    -1.579729300343
H            3.794476257921     1.631708542419    -0.187718765552
C           -2.755896829183    -0.136509502495     0.333458463346
H           -2.547824471127    -1.160332283202     0.650794523819
H           -3.692817191655     0.146241303555     0.818427944133
C            2.741030027146    -0.204494930922     0.312680574683
H            3.665464978463    -0.777165020741     0.407908578374
H            2.492601885959     0.139758069510     1.320880652339
C           -1.652197587450     0.797857634687     0.829056379358
H           -1.562650712152     0.700484505050     1.914959451186
H           -1.954680924461     1.830928691350     0.633793921531
C           -0.279941527481     0.558966055572     0.198149874556
H            0.420799035674     1.281337232150     0.622846794997
H           -0.320126024666     0.765220603127    -0.875447310949
C            0.249402160102    -0.852364947974     0.422428214236
H            0.303939361203    -1.040931933859     1.500286853841
H           -0.462132866479    -1.577219602172     0.018751508356
C            1.620694673396    -1.122905756337    -0.197273230179
H            1.881283791751    -2.164065003289     0.004810867997
H            1.549269693878    -1.031556705875    -1.285942858078
}

set globals {
  reference rhf
  g_convergence gau_verytight
  basis aug-cc-pvtz
  freeze_core true
  scf_type df
  mp_type df
}
optimize('mp2')
--------------------------------------------------------------------------
/usr/local/hpc5/psi4conda/lib/python2.7/site-packages/v2rdm_casscf/v2rdm_casscf.so loaded.

  Memory set to  60.000 GiB by Python script.
gradient() will perform analytic gradient computation.

*** tstart() called on wr39
*** at Tue Sep 20 23:31:54 2016


         ---------------------------------------------------------
                                   SCF
            by Justin Turney, Rob Parrish, and Andy Simmonett
                              RHF Reference
                       12 Threads,  60000 MiB Core
         ---------------------------------------------------------

  ==> Geometry <==

    Molecular point group: c1
    Full point group: C1

    Geometry (in Angstrom), charge = 0, multiplicity = 1:

       Center              X                  Y                   Z               Mass       
    ------------   -----------------  -----------------  -----------------  -----------------
           C         -2.938442996821    -0.096466800476    -1.179518817172    12.000000000000
           H         -2.059185735200    -0.478798621731    -1.698171183610     1.007825032070
           H         -3.107195224733     0.926085020753    -1.521863347268     1.007825032070
           H         -3.791975092798    -0.698868098237    -1.489458967592     1.007825032070
           C          3.010207523019     0.993059568945    -0.594786928111    12.000000000000
           H          2.118268660387     1.601851821679    -0.733892363882     1.007825032070
           H          3.333739940136     0.653769001636    -1.579729300343     1.007825032070
           H          3.794476257921     1.631708542419    -0.187718765552     1.007825032070
           C         -2.755896829183    -0.136509502495     0.333458463346    12.000000000000
           H         -2.547824471127    -1.160332283202     0.650794523819     1.007825032070
           H         -3.692817191655     0.146241303555     0.818427944133     1.007825032070
           C          2.741030027146    -0.204494930922     0.312680574683    12.000000000000
           H          3.665464978463    -0.777165020741     0.407908578374     1.007825032070
           H          2.492601885959     0.139758069510     1.320880652339     1.007825032070
           C         -1.652197587450     0.797857634687     0.829056379358    12.000000000000
           H         -1.562650712152     0.700484505050     1.914959451186     1.007825032070
           H         -1.954680924461     1.830928691350     0.633793921531     1.007825032070
           C         -0.279941527481     0.558966055572     0.198149874556    12.000000000000
           H          0.420799035674     1.281337232150     0.622846794997     1.007825032070
           H         -0.320126024666     0.765220603127    -0.875447310949     1.007825032070
           C          0.249402160102    -0.852364947974     0.422428214236    12.000000000000
           H          0.303939361203    -1.040931933859     1.500286853841     1.007825032070
           H         -0.462132866479    -1.577219602172     0.018751508356     1.007825032070
           C          1.620694673396    -1.122905756337    -0.197273230179    12.000000000000
           H          1.881283791751    -2.164065003289     0.004810867997     1.007825032070
           H          1.549269693878    -1.031556705875    -1.285942858078     1.007825032070

  Running in c1 symmetry.

  Rotational constants: A =      0.12940  B =      0.02681  C =      0.02618 [cm^-1]
  Rotational constants: A =   3879.35975  B =    803.59375  C =    784.71190 [MHz]
  Nuclear repulsion =  398.890310735184244

  Charge       = 0
  Multiplicity = 1
  Electrons    = 66
  Nalpha       = 33
  Nbeta        = 33

  ==> Algorithm <==

  SCF Algorithm Type is DF.
  DIIS enabled.
  MOM disabled.
  Fractional occupation disabled.
  Guess Type is SAD.
  Energy threshold   = 1.00e-10
  Density threshold  = 1.00e-10
  Integral threshold = 0.00e+00

  ==> Primary Basis <==

  Basis Set: AUG-CC-PVTZ
    Number of shells: 274
    Number of basis function: 782
    Number of Cartesian functions: 890
    Spherical Harmonics?: true
    Max angular momentum: 3

  ==> Pre-Iterations <==

   -------------------------------------------------------
    Irrep   Nso     Nmo     Nalpha   Nbeta   Ndocc  Nsocc
   -------------------------------------------------------
     A        782     782       0       0       0       0
   -------------------------------------------------------
    Total     782     782      33      33      33       0
   -------------------------------------------------------

  ==> Integral Setup <==

  ==> DFJK: Density-Fitted J/K Matrices <==

    J tasked:                  Yes
    K tasked:                  Yes
    wK tasked:                  No
    OpenMP threads:             12
    Integrals threads:          12
    Memory (MB):             42915
    Algorithm:                Core
    Integral Cache:           NONE
    Schwarz Cutoff:          1E-12
    Fitting Condition:       1E-12

   => Auxiliary Basis Set <=

  Basis Set: 
    Number of shells: 492
    Number of basis function: 1660
    Number of Cartesian functions: 2038
    Spherical Harmonics?: true
    Max angular momentum: 4

  Minimum eigenvalue in the overlap matrix is 1.6655371178E-06.
  Using Symmetric Orthogonalization.
  SCF Guess: Superposition of Atomic Densities via on-the-fly atomic UHF.

  ==> Iterations <==

                           Total Energy        Delta E     RMS |[F,P]|

   @DF-RHF iter   0:  -316.99209007489651   -3.16992e+02   7.02689e-03 
   @DF-RHF iter   1:  -313.30320513520689    3.68888e+00   6.84311e-04 
   @DF-RHF iter   2:  -313.50756819299352   -2.04363e-01   2.38563e-04 DIIS
   @DF-RHF iter   3:  -313.53182471004561   -2.42565e-02   9.83987e-05 DIIS
   @DF-RHF iter   4:  -313.53645738484852   -4.63267e-03   1.49941e-05 DIIS
   @DF-RHF iter   5:  -313.53661281030031   -1.55425e-04   3.89036e-06 DIIS
   @DF-RHF iter   6:  -313.53662206412412   -9.25382e-06   1.25071e-06 DIIS
   @DF-RHF iter   7:  -313.53662283701351   -7.72889e-07   2.50880e-07 DIIS
   @DF-RHF iter   8:  -313.53662288143312   -4.44196e-08   6.79266e-08 DIIS
   @DF-RHF iter   9:  -313.53662288445184   -3.01873e-09   1.96194e-08 DIIS
   @DF-RHF iter  10:  -313.53662288472526   -2.73417e-10   5.54209e-09 DIIS
   @DF-RHF iter  11:  -313.53662288474470   -1.94404e-11   1.42995e-09 DIIS
   @DF-RHF iter  12:  -313.53662288474584   -1.13687e-12   3.51164e-10 DIIS
   @DF-RHF iter  13:  -313.53662288474754   -1.70530e-12   1.06880e-10 DIIS
   @DF-RHF iter  14:  -313.53662288474595    1.59162e-12   2.85006e-11 DIIS

  ==> Post-Iterations <==

    Orbital Energies (a.u.)
    -----------------------

    Doubly Occupied:                                                      

       1A    -11.212639     2A    -11.212030     3A    -11.210859  
       4A    -11.210801     5A    -11.210177     6A    -11.209015  
       7A    -11.207000     8A    -11.205881     9A     -1.094706  
      10A     -1.058899    11A     -1.003652    12A     -0.950581  
      13A     -0.886355    14A     -0.835409    15A     -0.783665  
      16A     -0.752529    17A     -0.649213    18A     -0.625711  
      19A     -0.608447    20A     -0.600253    21A     -0.580205  
      22A     -0.555002    23A     -0.541156    24A     -0.534536  
      25A     -0.522293    26A     -0.495222    27A     -0.491674  
      28A     -0.470085    29A     -0.468877    30A     -0.460860  
      31A     -0.449423    32A     -0.433444    33A     -0.432682  

    Virtual:                                                              

      34A      0.029786    35A      0.033303    36A      0.033917  
      37A      0.035381    38A      0.046307    39A      0.048488  
      40A      0.048800    41A      0.053785    42A      0.055497  
      43A      0.068005    44A      0.069404    45A      0.069834  
      46A      0.072136    47A      0.077590    48A      0.084656  
      49A      0.092569    50A      0.096201    51A      0.101099  
      52A      0.114040    53A      0.114557    54A      0.119305  
      55A      0.122029    56A      0.129165    57A      0.130901  
      58A      0.132757    59A      0.135615    60A      0.139298  
      61A      0.147364    62A      0.148650    63A      0.149524  
      64A      0.153846    65A      0.157558    66A      0.163141  
      67A      0.166034    68A      0.169583    69A      0.173802  
      70A      0.175007    71A      0.177306    72A      0.180435  
      73A      0.185490    74A      0.188775    75A      0.194588  
      76A      0.199908    77A      0.210242    78A      0.222391  
      79A      0.227494    80A      0.231672    81A      0.238526  
      82A      0.246186    83A      0.252576    84A      0.257017  
      85A      0.268032    86A      0.278148    87A      0.281820  
      88A      0.289641    89A      0.296412    90A      0.298810  
      91A      0.300075    92A      0.302688    93A      0.308770  
      94A      0.313050    95A      0.318525    96A      0.321394  
      97A      0.324056    98A      0.326487    99A      0.330984  
     100A      0.333388   101A      0.340061   102A      0.342787  
     103A      0.345773   104A      0.349185   105A      0.353079  
     106A      0.358055   107A      0.359989   108A      0.365038  
     109A      0.365796   110A      0.371971   111A      0.372965  
     112A      0.378754   113A      0.382397   114A      0.388144  
     115A      0.395421   116A      0.398158   117A      0.399836  
     118A      0.403563   119A      0.409563   120A      0.413374  
     121A      0.416872   122A      0.422577   123A      0.425301  
     124A      0.428591   125A      0.433938   126A      0.441809  
     127A      0.443145   128A      0.448310   129A      0.450261  
     130A      0.450494   131A      0.456775   132A      0.461168  
     133A      0.466260   134A      0.470734   135A      0.473278  
     136A      0.474113   137A      0.478301   138A      0.485894  
     139A      0.488051   140A      0.491374   141A      0.494144  
     142A      0.496476   143A      0.498643   144A      0.500250  
     145A      0.504021   146A      0.511681   147A      0.518316  
     148A      0.526331   149A      0.529373   150A      0.538018  
     151A      0.539808   152A      0.540961   153A      0.545489  
     154A      0.547785   155A      0.551911   156A      0.555978  
     157A      0.558956   158A      0.562651   159A      0.566495  
     160A      0.577958   161A      0.578234   162A      0.584495  
     163A      0.591126   164A      0.593797   165A      0.596070  
     166A      0.598986   167A      0.606221   168A      0.612280  
     169A      0.614628   170A      0.616390   171A      0.620670  
     172A      0.625140   173A      0.627582   174A      0.634991  
     175A      0.637707   176A      0.650960   177A      0.653743  
     178A      0.656375   179A      0.660831   180A      0.666629  
     181A      0.670921   182A      0.675945   183A      0.679149  
     184A      0.680888   185A      0.690304   186A      0.696467  
     187A      0.700833   188A      0.706137   189A      0.713440  
     190A      0.716261   191A      0.725194   192A      0.730011  
     193A      0.733179   194A      0.741355   195A      0.751027  
     196A      0.756619   197A      0.766124   198A      0.770331  
     199A      0.779061   200A      0.785110   201A      0.792227  
     202A      0.803248   203A      0.819506   204A      0.828815  
     205A      0.834478   206A      0.837914   207A      0.842647  
     208A      0.848813   209A      0.857784   210A      0.860518  
     211A      0.866578   212A      0.874728   213A      0.882939  
     214A      0.887464   215A      0.891772   216A      0.894925  
     217A      0.901084   218A      0.904612   219A      0.910326  
     220A      0.913547   221A      0.914976   222A      0.926277  
     223A      0.929735   224A      0.932485   225A      0.936356  
     226A      0.942441   227A      0.948139   228A      0.951714  
     229A      0.958290   230A      0.963999   231A      0.964231  
     232A      0.971655   233A      0.979403   234A      0.980625  
     235A      0.988492   236A      0.991367   237A      1.001074  
     238A      1.005746   239A      1.012938   240A      1.017452  
     241A      1.020741   242A      1.022159   243A      1.027490  
     244A      1.034851   245A      1.039694   246A      1.043861  
     247A      1.050166   248A      1.057256   249A      1.062560  
     250A      1.070400   251A      1.074798   252A      1.077939  
     253A      1.083751   254A      1.091019   255A      1.096197  
     256A      1.104677   257A      1.105159   258A      1.110984  
     259A      1.114538   260A      1.117930   261A      1.122304  
     262A      1.130240   263A      1.133949   264A      1.146126  
     265A      1.153350   266A      1.160714   267A      1.163127  
     268A      1.168346   269A      1.173415   270A      1.177850  
     271A      1.181420   272A      1.186476   273A      1.192701  
     274A      1.194029   275A      1.200819   276A      1.204517  
     277A      1.211203   278A      1.216421   279A      1.225389  
     280A      1.229912   281A      1.235942   282A      1.236432  
     283A      1.244374   284A      1.247636   285A      1.252061  
     286A      1.259640   287A      1.269661   288A      1.272899  
     289A      1.281731   290A      1.283290   291A      1.288037  
     292A      1.295208   293A      1.299271   294A      1.300407  
     295A      1.309141   296A      1.309884   297A      1.317381  
     298A      1.328391   299A      1.334445   300A      1.337528  
     301A      1.348247   302A      1.353924   303A      1.358136  
     304A      1.367985   305A      1.375289   306A      1.378071  
     307A      1.385442   308A      1.389702   309A      1.399722  
     310A      1.403044   311A      1.410312   312A      1.417655  
     313A      1.430159   314A      1.438693   315A      1.439380  
     316A      1.450623   317A      1.460126   318A      1.461229  
     319A      1.472780   320A      1.482283   321A      1.482409  
     322A      1.489226   323A      1.501150   324A      1.511426  
     325A      1.513700   326A      1.524530   327A      1.532335  
     328A      1.537440   329A      1.546695   330A      1.554472  
     331A      1.558368   332A      1.563035   333A      1.576759  
     334A      1.579935   335A      1.593668   336A      1.595012  
     337A      1.602082   338A      1.607902   339A      1.610553  
     340A      1.622409   341A      1.629028   342A      1.637734  
     343A      1.643424   344A      1.650210   345A      1.654880  
     346A      1.667022   347A      1.668175   348A      1.679758  
     349A      1.685586   350A      1.692206   351A      1.697319  
     352A      1.704227   353A      1.710351   354A      1.715362  
     355A      1.724812   356A      1.727530   357A      1.733584  
     358A      1.737665   359A      1.745139   360A      1.750913  
     361A      1.758805   362A      1.759703   363A      1.765976  
     364A      1.768626   365A      1.774543   366A      1.785406  
     367A      1.790597   368A      1.808616   369A      1.812533  
     370A      1.817398   371A      1.826224   372A      1.831388  
     373A      1.837509   374A      1.844702   375A      1.846839  
     376A      1.849699   377A      1.859327   378A      1.862881  
     379A      1.869561   380A      1.878898   381A      1.884605  
     382A      1.888195   383A      1.893815   384A      1.898985  
     385A      1.907601   386A      1.915039   387A      1.917584  
     388A      1.921247   389A      1.929312   390A      1.937263  
     391A      1.942847   392A      1.946946   393A      1.959001  
     394A      1.966911   395A      1.972507   396A      1.979741  
     397A      1.983914   398A      1.987315   399A      1.997047  
     400A      2.011549   401A      2.013827   402A      2.020905  
     403A      2.023424   404A      2.034017   405A      2.038748  
     406A      2.052594   407A      2.060515   408A      2.069493  
     409A      2.079362   410A      2.084497   411A      2.085052  
     412A      2.088110   413A      2.097211   414A      2.101885  
     415A      2.106407   416A      2.114743   417A      2.130520  
     418A      2.134316   419A      2.142786   420A      2.158433  
     421A      2.162610   422A      2.164619   423A      2.167686  
     424A      2.175373   425A      2.184251   426A      2.196105  
     427A      2.205174   428A      2.213653   429A      2.218736  
     430A      2.232386   431A      2.251784   432A      2.252332  
     433A      2.267783   434A      2.276452   435A      2.280470  
     436A      2.291420   437A      2.296366   438A      2.304487  
     439A      2.313465   440A      2.322197   441A      2.335015  
     442A      2.343619   443A      2.351005   444A      2.357990  
     445A      2.362289   446A      2.374735   447A      2.377645  
     448A      2.389612   449A      2.403436   450A      2.413372  
     451A      2.419358   452A      2.425870   453A      2.433122  
     454A      2.443069   455A      2.455340   456A      2.456531  
     457A      2.467086   458A      2.486559   459A      2.489534  
     460A      2.505345   461A      2.512928   462A      2.529394  
     463A      2.538233   464A      2.550907   465A      2.561254  
     466A      2.566898   467A      2.570703   468A      2.579578  
     469A      2.583031   470A      2.612584   471A      2.617989  
     472A      2.622624   473A      2.645519   474A      2.653603  
     475A      2.659234   476A      2.679016   477A      2.715491  
     478A      2.731798   479A      2.758921   480A      2.782995  
     481A      2.791556   482A      2.798618   483A      2.819109  
     484A      2.879158   485A      2.898915   486A      2.961864  
     487A      2.998138   488A      3.031420   489A      3.074318  
     490A      3.129922   491A      3.194719   492A      3.244418  
     493A      3.278179   494A      3.332692   495A      3.339831  
     496A      3.409476   497A      3.432619   498A      3.445814  
     499A      3.451411   500A      3.480493   501A      3.496899  
     502A      3.512525   503A      3.513794   504A      3.524139  
     505A      3.535108   506A      3.558882   507A      3.568160  
     508A      3.578732   509A      3.592861   510A      3.599992  
     511A      3.606612   512A      3.619328   513A      3.633506  
     514A      3.649024   515A      3.655416   516A      3.666225  
     517A      3.680713   518A      3.683289   519A      3.700974  
     520A      3.703577   521A      3.714025   522A      3.718735  
     523A      3.726222   524A      3.745990   525A      3.751704  
     526A      3.765460   527A      3.770763   528A      3.776768  
     529A      3.787915   530A      3.793715   531A      3.800799  
     532A      3.805105   533A      3.815239   534A      3.821743  
     535A      3.833086   536A      3.850187   537A      3.857551  
     538A      3.866966   539A      3.872601   540A      3.879224  
     541A      3.881533   542A      3.892320   543A      3.902978  
     544A      3.906859   545A      3.914505   546A      3.921677  
     547A      3.926313   548A      3.939389   549A      3.943581  
     550A      3.955742   551A      3.965709   552A      3.970522  
     553A      3.978417   554A      3.983330   555A      3.998982  
     556A      4.007202   557A      4.012584   558A      4.019846  
     559A      4.028557   560A      4.036861   561A      4.045094  
     562A      4.047077   563A      4.057296   564A      4.061318  
     565A      4.069154   566A      4.073842   567A      4.074659  
     568A      4.085293   569A      4.090197   570A      4.090727  
     571A      4.101701   572A      4.110949   573A      4.124686  
     574A      4.134370   575A      4.138473   576A      4.145741  
     577A      4.168211   578A      4.172807   579A      4.181485  
     580A      4.189958   581A      4.195200   582A      4.206198  
     583A      4.213680   584A      4.223952   585A      4.231776  
     586A      4.235212   587A      4.247550   588A      4.255472  
     589A      4.262706   590A      4.273724   591A      4.291757  
     592A      4.295384   593A      4.306391   594A      4.325533  
     595A      4.330107   596A      4.336227   597A      4.343355  
     598A      4.347188   599A      4.360685   600A      4.373611  
     601A      4.378962   602A      4.396076   603A      4.410794  
     604A      4.415459   605A      4.435284   606A      4.444567  
     607A      4.450078   608A      4.460730   609A      4.471168  
     610A      4.484355   611A      4.490808   612A      4.513375  
     613A      4.542680   614A      4.553013   615A      4.560422  
     616A      4.572341   617A      4.585612   618A      4.593757  
     619A      4.610842   620A      4.626036   621A      4.641050  
     622A      4.658492   623A      4.669891   624A      4.678122  
     625A      4.688070   626A      4.695462   627A      4.703847  
     628A      4.719829   629A      4.723076   630A      4.740679  
     631A      4.748588   632A      4.762380   633A      4.774199  
     634A      4.776711   635A      4.789051   636A      4.793478  
     637A      4.809012   638A      4.813174   639A      4.831361  
     640A      4.844771   641A      4.863863   642A      4.866059  
     643A      4.879413   644A      4.898267   645A      4.901359  
     646A      4.909749   647A      4.919061   648A      4.927810  
     649A      4.943742   650A      4.944765   651A      4.955941  
     652A      4.973822   653A      4.984307   654A      4.994427  
     655A      4.998800   656A      5.008466   657A      5.023318  
     658A      5.033452   659A      5.060374   660A      5.071985  
     661A      5.083351   662A      5.098395   663A      5.112886  
     664A      5.123878   665A      5.143068   666A      5.162401  
     667A      5.165930   668A      5.169917   669A      5.184441  
     670A      5.190091   671A      5.204048   672A      5.215458  
     673A      5.222337   674A      5.236929   675A      5.246000  
     676A      5.254303   677A      5.262923   678A      5.272026  
     679A      5.278044   680A      5.295165   681A      5.306583  
     682A      5.322443   683A      5.335599   684A      5.346063  
     685A      5.352550   686A      5.358812   687A      5.370101  
     688A      5.382652   689A      5.393694   690A      5.403889  
     691A      5.410381   692A      5.429731   693A      5.445070  
     694A      5.450328   695A      5.460791   696A      5.479216  
     697A      5.483772   698A      5.489880   699A      5.501435  
     700A      5.512971   701A      5.524895   702A      5.530463  
     703A      5.539320   704A      5.562647   705A      5.588212  
     706A      5.599532   707A      5.610256   708A      5.625873  
     709A      5.630846   710A      5.637835   711A      5.651922  
     712A      5.665511   713A      5.677979   714A      5.681417  
     715A      5.696764   716A      5.711835   717A      5.719156  
     718A      5.724230   719A      5.737514   720A      5.758486  
     721A      5.769904   722A      5.780499   723A      5.799093  
     724A      5.816991   725A      5.826690   726A      5.829839  
     727A      5.867055   728A      5.879536   729A      5.895987  
     730A      5.917013   731A      5.952126   732A      5.969256  
     733A      5.987801   734A      6.009229   735A      6.021906  
     736A      6.044933   737A      6.064592   738A      6.074421  
     739A      6.094027   740A      6.133463   741A      6.143434  
     742A      6.161296   743A      6.175070   744A      6.180041  
     745A      6.219181   746A      6.262165   747A      6.263791  
     748A      6.285515   749A      6.307455   750A      6.316337  
     751A      6.323277   752A      6.330460   753A      6.362859  
     754A      6.369195   755A      6.374946   756A      6.395278  
     757A      6.417135   758A      6.477353   759A      6.614470  
     760A      6.651680   761A      6.662132   762A      6.696457  
     763A      6.738954   764A      6.792917   765A      6.845098  
     766A      6.857236   767A      6.919166   768A      6.933541  
     769A      6.969402   770A      7.011755   771A      7.018585  
     772A      7.062195   773A      7.072834   774A      7.143097  
     775A     17.930534   776A     18.077586   777A     18.304127  
     778A     18.533658   779A     18.848949   780A     19.217133  
     781A     19.336505   782A     19.909713  

    Final Occupation by Irrep:
              A 
    DOCC [    33 ]

  Energy converged.

  @DF-RHF Final Energy:  -313.53662288474595

   => Energetics <=

    Nuclear Repulsion Energy =            398.8903107351842436
    One-Electron Energy =               -1212.9273063414657372
    Two-Electron Energy =                 500.5003727215357685
    DFT Exchange-Correlation Energy =       0.0000000000000000
    Empirical Dispersion Energy =           0.0000000000000000
    PCM Polarization Energy =               0.0000000000000000
    EFP Energy =                            0.0000000000000000
    Total Energy =                       -313.5366228847457251


  Saving occupied orbitals to File 180.

*** tstop() called on wr39 at Tue Sep 20 23:33:35 2016
Module time:
	user time   =    1037.26 seconds =      17.29 minutes
	system time =      13.97 seconds =       0.23 minutes
	total time  =        101 seconds =       1.68 minutes
Total time:
	user time   =    1037.26 seconds =      17.29 minutes
	system time =      13.97 seconds =       0.23 minutes
	total time  =        101 seconds =       1.68 minutes


Properties will be evaluated at   0.000000,   0.000000,   0.000000 Bohr

Properties computed using the SCF density matrix

  Nuclear Dipole Moment: (a.u.)
     X:     0.0574      Y:     0.7016      Z:    -1.3863

  Electronic Dipole Moment: (a.u.)
     X:    -0.0655      Y:    -0.7278      Z:     1.4253

  Dipole Moment: (a.u.)
     X:    -0.0081      Y:    -0.0262      Z:     0.0390     Total:     0.0476

  Dipole Moment: (Debye)
     X:    -0.0205      Y:    -0.0665      Z:     0.0990     Total:     0.1210


  //>>>>>>>>>>>>>>>>>>>>>>>>>>>>>>>>>>>//
  //               DFMP2               //
  //<<<<<<<<<<<<<<<<<<<<<<<<<<<<<<<<<<<//


*** tstart() called on wr39
*** at Tue Sep 20 23:33:35 2016


*** tstop() called on wr39 at Tue Sep 20 23:33:35 2016
Module time:
	user time   =       4.84 seconds =       0.08 minutes
	system time =       0.13 seconds =       0.00 minutes
	total time  =          0 seconds =       0.00 minutes
Total time:
	user time   =    1042.59 seconds =      17.38 minutes
	system time =      14.11 seconds =       0.24 minutes
	total time  =        101 seconds =       1.68 minutes
	 --------------------------------------------------------
	                          DF-MP2                         
	      2nd-Order Density-Fitted Moller-Plesset Theory     
	              RMP2 Wavefunction,  12 Threads             
	                                                         
	        Rob Parrish, Justin Turney, Andy Simmonett,      
	           Ed Hohenstein, and C. David Sherrill          
	 --------------------------------------------------------

   => Auxiliary Basis Set <=

  Basis Set: 
    Number of shells: 476
    Number of basis function: 1676
    Number of Cartesian functions: 2078
    Spherical Harmonics?: true
    Max angular momentum: 4

	 --------------------------------------------------------
	                 NBF =   782, NAUX =  1676
	 --------------------------------------------------------
	   CLASS    FOCC     OCC    AOCC    AVIR     VIR    FVIR
	   PAIRS       8      33      25     749     749       0
	 --------------------------------------------------------

DGAS Warning! /src/lib/libfock/apps.cc:80 is not currently checking restricted

         ------------------------------------------------------------
                                     CPHF                           
                                  Rob Parrish                       
         ------------------------------------------------------------

  ==> Geometry <==

    Molecular point group: c1
    Full point group: C1

    Geometry (in Angstrom), charge = 0, multiplicity = 1:

       Center              X                  Y                   Z               Mass       
    ------------   -----------------  -----------------  -----------------  -----------------
           C         -2.938442996821    -0.096466800476    -1.179518817172    12.000000000000
           H         -2.059185735200    -0.478798621731    -1.698171183610     1.007825032070
           H         -3.107195224733     0.926085020753    -1.521863347268     1.007825032070
           H         -3.791975092798    -0.698868098237    -1.489458967592     1.007825032070
           C          3.010207523019     0.993059568945    -0.594786928111    12.000000000000
           H          2.118268660387     1.601851821679    -0.733892363882     1.007825032070
           H          3.333739940136     0.653769001636    -1.579729300343     1.007825032070
           H          3.794476257921     1.631708542419    -0.187718765552     1.007825032070
           C         -2.755896829183    -0.136509502495     0.333458463346    12.000000000000
           H         -2.547824471127    -1.160332283202     0.650794523819     1.007825032070
           H         -3.692817191655     0.146241303555     0.818427944133     1.007825032070
           C          2.741030027146    -0.204494930922     0.312680574683    12.000000000000
           H          3.665464978463    -0.777165020741     0.407908578374     1.007825032070
           H          2.492601885959     0.139758069510     1.320880652339     1.007825032070
           C         -1.652197587450     0.797857634687     0.829056379358    12.000000000000
           H         -1.562650712152     0.700484505050     1.914959451186     1.007825032070
           H         -1.954680924461     1.830928691350     0.633793921531     1.007825032070
           C         -0.279941527481     0.558966055572     0.198149874556    12.000000000000
           H          0.420799035674     1.281337232150     0.622846794997     1.007825032070
           H         -0.320126024666     0.765220603127    -0.875447310949     1.007825032070
           C          0.249402160102    -0.852364947974     0.422428214236    12.000000000000
           H          0.303939361203    -1.040931933859     1.500286853841     1.007825032070
           H         -0.462132866479    -1.577219602172     0.018751508356     1.007825032070
           C          1.620694673396    -1.122905756337    -0.197273230179    12.000000000000
           H          1.881283791751    -2.164065003289     0.004810867997     1.007825032070
           H          1.549269693878    -1.031556705875    -1.285942858078     1.007825032070

  Nuclear repulsion =  398.890310735184244
  Reference energy  = -313.536622884745952

  ==> Basis Set <==

  Basis Set: AUG-CC-PVTZ
    Number of shells: 274
    Number of basis function: 782
    Number of Cartesian functions: 890
    Spherical Harmonics?: true
    Max angular momentum: 3

  ==> CGRSolver (by Rob Parrish) <==

   Number of roots    =         1
   Preconditioning    =    JACOBI
   Convergence cutoff =     1E-06
   Maximum iterations =       100

  ==> CPHFRHamiltonian (by Rob Parrish) <== 

  ==> DFJK: Density-Fitted J/K Matrices <==

    J tasked:                  Yes
    K tasked:                  Yes
    wK tasked:                  No
    OpenMP threads:             12
    Integrals threads:          12
    Memory (MB):             42915
    Algorithm:                Core
    Integral Cache:           NONE
    Schwarz Cutoff:          1E-12
    Fitting Condition:       1E-12

   => Auxiliary Basis Set <=

  Basis Set: 
    Number of shells: 492
    Number of basis function: 1660
    Number of Cartesian functions: 2038
    Spherical Harmonics?: true
    Max angular momentum: 4

  ==> CPHF Iterations <==

  => Iterations <=

             Iter  Converged  Remaining    Residual
  CGR           1          0          1   9.258E-02
  CGR           2          0          1   1.316E-02
  CGR           3          0          1   3.581E-03
  CGR           4          0          1   8.349E-04
  CGR           5          0          1   2.045E-04
  CGR           6          0          1   4.557E-05
  CGR           7          0          1   1.261E-05
  CGR           8          0          1   3.105E-06
  CGR           9          1          0   8.036E-07

    CGRSolver converged.

  ==> DFCorrGrad: Density-Fitted Correlated Gradients <==

    OpenMP threads:             12
    Integrals threads:          12
    Memory (MB):             42915
    Schwarz Cutoff:          0E+00
    Fitting Condition:       1E-12

   => Auxiliary Basis Set <=

  Basis Set: 
    Number of shells: 492
    Number of basis function: 1660
    Number of Cartesian functions: 2038
    Spherical Harmonics?: true
    Max angular momentum: 4

	-----------------------------------------------------------
	 ==================> DF-MP2 Energies <==================== 
	-----------------------------------------------------------
	 Reference Energy          =    -313.5366228847459524 [Eh]
	 Singles Energy            =      -0.0000000000000000 [Eh]
	 Same-Spin Energy          =      -0.3169660569463402 [Eh]
	 Opposite-Spin Energy      =      -1.1264922169372387 [Eh]
	 Correlation Energy        =      -1.4434582738835788 [Eh]
	 Total Energy              =    -314.9800811586295595 [Eh]
	-----------------------------------------------------------
	 ================> DF-SCS-MP2 Energies <================== 
	-----------------------------------------------------------
	 SCS Same-Spin Scale       =       0.3333333333333333 [-]
	 SCS Opposite-Spin Scale   =       1.2000000000000000 [-]
	 SCS Same-Spin Energy      =      -0.1056553523154467 [Eh]
	 SCS Opposite-Spin Energy  =      -1.3517906603246863 [Eh]
	 SCS Correlation Energy    =      -1.4574460126401330 [Eh]
	 SCS Total Energy          =    -314.9940688973860574 [Eh]
	-----------------------------------------------------------


  -Total Gradient:
     Atom            X                  Y                   Z
    ------   -----------------  -----------------  -----------------
       1        0.000000366215    -0.000000104244    -0.000000981820
       2       -0.000001237639     0.000000444120     0.000000481280
       3        0.000000168891    -0.000001295408     0.000000461503
       4        0.000000776532     0.000000592224     0.000000138239
       5       -0.000000086887     0.000000569731    -0.000000404488
       6        0.000000559374    -0.000000256156     0.000000081758
       7       -0.000000065747     0.000000154252     0.000000402873
       8       -0.000000295804    -0.000000204149    -0.000000185425
       9       -0.000000295870    -0.000000820603     0.000001273370
      10       -0.000000395312     0.000001781081    -0.000000624563
      11        0.000000917944    -0.000000552892    -0.000000198782
      12       -0.000000478804     0.000000008500     0.000000530844
      13       -0.000000259204    -0.000000082377     0.000000038060
      14        0.000000142335    -0.000000254260    -0.000000511721
      15        0.000000320497     0.000001673692     0.000000776292
      16       -0.000000037610     0.000000404214    -0.000001975744
      17        0.000000968783    -0.000002377053     0.000000213002
      18        0.000000100769     0.000001476923    -0.000001125735
      19       -0.000000954143    -0.000000900547    -0.000000427633
      20       -0.000000182310    -0.000000547726     0.000002535851
      21       -0.000000152776    -0.000001583296     0.000000125823
      22       -0.000000264771     0.000000542834    -0.000001615004
      23        0.000000723367     0.000000967118     0.000000555501
      24       -0.000000070558    -0.000000083850    -0.000000156027
      25       -0.000000182243     0.000000376134     0.000000033953
      26       -0.000000085024     0.000000071739     0.000000558594


			-----------------------------------------
			 OPTKING 2.0: for geometry optimizations 
			  - R.A. King,  Bethel University        
			-----------------------------------------

	Internal coordinates to be generated automatically.
	Detected frag 1 with atoms:  1 2 3 4 5 6 7 8 9 10 11 12 13 14 15 16 17 18 19 20
	 21 22 23 24 25 26
	---Fragment 1 Bond Connectivity---
	 1 : 2 3 4 9
	 2 : 1
	 3 : 1
	 4 : 1
	 5 : 6 7 8 12
	 6 : 5
	 7 : 5
	 8 : 5
	 9 : 1 10 11 15
	 10 : 9
	 11 : 9
	 12 : 5 13 14 24
	 13 : 12
	 14 : 12
	 15 : 9 16 17 18
	 16 : 15
	 17 : 15
	 18 : 15 19 20 21
	 19 : 18
	 20 : 18
	 21 : 18 22 23 24
	 22 : 21
	 23 : 21
	 24 : 12 21 25 26
	 25 : 24
	 26 : 24

	---Fragment 1 Geometry and Gradient---
	 C          -5.5528525211       -0.1822958338       -2.2289675330
	 H          -3.8912970963       -0.9047982679       -3.2090784638
	 H          -5.8717480162        1.7500470650       -2.8759049380
	 H          -7.1657944281       -1.3206693087       -2.8146695349
	 C           5.6884678217        1.8766106189       -1.1239844016
	 H           4.0029476440        3.0270612484       -1.3868555788
	 H           6.2998554851        1.2354443673       -2.9852557417
	 H           7.1705209452        3.0834822739       -0.3547370569
	 C          -5.2078902576       -0.2579655743        0.6301451724
	 H          -4.8146904851       -2.1927102384        1.2298234188
	 H          -6.9784131510        0.2763560130        1.5466046739
	 C           5.1797960733       -0.3864394150        0.5908806532
	 H           6.9267249590       -1.4686290493        0.7708355004
	 H           4.7103349228        0.2641044762        2.4961026871
	 C          -3.1222009577        1.5077324226        1.5666895057
	 H          -2.9529818873        1.3237238749        3.6187489183
	 H          -3.6938116244        3.4599537955        1.1976969364
	 C          -0.5290128202        1.0562927626        0.3744489962
	 H           0.7951949344        2.4213764526        1.1770098653
	 H          -0.6049505146        1.4460573712       -1.6543556615
	 C           0.4713017795       -1.6107363169        0.7982736357
	 H           0.5743621537       -1.9670762780        2.8351312745
	 H          -0.8733045547       -2.9805130995        0.0354352154
	 C           3.0626690777       -2.1219843525       -0.3727923784
	 H           3.5551111446       -4.0894901900        0.0090912230
	 H           2.9276954274       -1.9493596646       -2.4300798243
	             0.0000003662       -0.0000001042       -0.0000009818
	            -0.0000012376        0.0000004441        0.0000004813
	             0.0000001689       -0.0000012954        0.0000004615
	             0.0000007765        0.0000005922        0.0000001382
	            -0.0000000869        0.0000005697       -0.0000004045
	             0.0000005594       -0.0000002562        0.0000000818
	            -0.0000000657        0.0000001543        0.0000004029
	            -0.0000002958       -0.0000002041       -0.0000001854
	            -0.0000002959       -0.0000008206        0.0000012734
	            -0.0000003953        0.0000017811       -0.0000006246
	             0.0000009179       -0.0000005529       -0.0000001988
	            -0.0000004788        0.0000000085        0.0000005308
	            -0.0000002592       -0.0000000824        0.0000000381
	             0.0000001423       -0.0000002543       -0.0000005117
	             0.0000003205        0.0000016737        0.0000007763
	            -0.0000000376        0.0000004042       -0.0000019757
	             0.0000009688       -0.0000023771        0.0000002130
	             0.0000001008        0.0000014769       -0.0000011257
	            -0.0000009541       -0.0000009005       -0.0000004276
	            -0.0000001823       -0.0000005477        0.0000025359
	            -0.0000001528       -0.0000015833        0.0000001258
	            -0.0000002648        0.0000005428       -0.0000016150
	             0.0000007234        0.0000009671        0.0000005555
	            -0.0000000706       -0.0000000839       -0.0000001560
	            -0.0000001822        0.0000003761        0.0000000340
	            -0.0000000850        0.0000000717        0.0000005586

	Previous optimization step data not found.  Starting new optimization.

	---Fragment 1 Intrafragment Coordinates---
	 - Coordinate -           - BOHR/RAD -       - ANG/DEG -
	 R(1,2)           =         2.059950	       1.090079
	 R(1,3)           =         2.062564	       1.091462
	 R(1,4)           =         2.059253	       1.089710
	 R(1,9)           =         2.880842	       1.524476
	 R(5,6)           =         2.057575	       1.088822
	 R(5,7)           =         2.061364	       1.090827
	 R(5,8)           =         2.060282	       1.090254
	 R(5,12)          =         2.884598	       1.526463
	 R(9,10)          =         2.063361	       1.091883
	 R(9,11)          =         2.064013	       1.092229
	 R(9,15)          =         2.888755	       1.528663
	 R(12,13)         =         2.062833	       1.091604
	 R(12,14)         =         2.067238	       1.093935
	 R(12,24)         =         2.902242	       1.535800
	 R(15,16)         =         2.067231	       1.093931
	 R(15,17)         =         2.067381	       1.094011
	 R(15,18)         =         2.889612	       1.529117
	 R(18,19)         =         2.064239	       1.092348
	 R(18,20)         =         2.067300	       1.093968
	 R(18,21)         =         2.879809	       1.523929
	 R(21,22)         =         2.070360	       1.095587
	 R(21,23)         =         2.065473	       1.093001
	 R(21,24)         =         2.889283	       1.528943
	 R(24,25)         =         2.063835	       1.092134
	 R(24,26)         =         2.068925	       1.094828
	 B(1,9,10)        =         1.913344	     109.626522
	 B(1,9,11)        =         1.908321	     109.338756
	 B(1,9,15)        =         1.973773	     113.088866
	 B(2,1,3)         =         1.879755	     107.702056
	 B(2,1,4)         =         1.878177	     107.611641
	 B(2,1,9)         =         1.945941	     111.494198
	 B(3,1,4)         =         1.883459	     107.914275
	 B(3,1,9)         =         1.933082	     110.757467
	 B(4,1,9)         =         1.940726	     111.195406
	 B(5,12,13)       =         1.890305	     108.306492
	 B(5,12,14)       =         1.918840	     109.941418
	 B(5,12,24)       =         1.982738	     113.602510
	 B(6,5,7)         =         1.877081	     107.548801
	 B(6,5,8)         =         1.885406	     108.025821
	 B(6,5,12)        =         1.949966	     111.724833
	 B(7,5,8)         =         1.881759	     107.816853
	 B(7,5,12)        =         1.923105	     110.185828
	 B(8,5,12)        =         1.943834	     111.373498
	 B(9,15,16)       =         1.903414	     109.057616
	 B(9,15,17)       =         1.896201	     108.644328
	 B(9,15,18)       =         2.002789	     114.751359
	 B(10,9,11)       =         1.851632	     106.090700
	 B(10,9,15)       =         1.919118	     109.957361
	 B(11,9,15)       =         1.893523	     108.490873
	 B(12,24,21)      =         1.997494	     114.447953
	 B(12,24,25)      =         1.911969	     109.547728
	 B(12,24,26)      =         1.904846	     109.139635
	 B(13,12,14)      =         1.851478	     106.081850
	 B(13,12,24)      =         1.910294	     109.451793
	 B(14,12,24)      =         1.905560	     109.180525
	 B(15,18,19)      =         1.888056	     108.177655
	 B(15,18,20)      =         1.920365	     110.028811
	 B(15,18,21)      =         1.977610	     113.308705
	 B(16,15,17)      =         1.858614	     106.490720
	 B(16,15,18)      =         1.898849	     108.796050
	 B(17,15,18)      =         1.898650	     108.784641
	 B(18,21,22)      =         1.898087	     108.752364
	 B(18,21,23)      =         1.911021	     109.493425
	 B(18,21,24)      =         1.999575	     114.567215
	 B(19,18,20)      =         1.855045	     106.286254
	 B(19,18,21)      =         1.909636	     109.414086
	 B(20,18,21)      =         1.909005	     109.377903
	 B(21,24,25)      =         1.883563	     107.920224
	 B(21,24,26)      =         1.906844	     109.254109
	 B(22,21,23)      =         1.856273	     106.356626
	 B(22,21,24)      =         1.900385	     108.884031
	 B(23,21,24)      =         1.893179	     108.471140
	 B(25,24,26)      =         1.853657	     106.206734
	 D(1,9,15,16)     =        -3.119507	    -178.734598
	 D(1,9,15,17)     =         1.144499	      65.574943
	 D(1,9,15,18)     =        -0.984637	     -56.415522
	 D(2,1,9,10)      =        -1.008311	     -57.771972
	 D(2,1,9,11)      =        -3.031370	    -173.684730
	 D(2,1,9,15)      =         1.140010	      65.317758
	 D(3,1,9,10)      =        -3.101244	    -177.688183
	 D(3,1,9,11)      =         1.158882	      66.399059
	 D(3,1,9,15)      =        -0.952923	     -54.598453
	 D(4,1,9,10)      =         1.087791	      62.325841
	 D(4,1,9,11)      =        -0.935268	     -53.586917
	 D(4,1,9,15)      =        -3.047073	    -174.584429
	 D(5,12,24,21)    =        -1.684428	     -96.510623
	 D(5,12,24,25)    =         2.481004	     142.151086
	 D(5,12,24,26)    =         0.458249	      26.255738
	 D(6,5,12,13)     =         3.134763	     179.608684
	 D(6,5,12,14)     =        -1.132666	     -64.896979
	 D(6,5,12,24)     =         1.008491	      57.782275
	 D(7,5,12,13)     =         1.049235	      60.116735
	 D(7,5,12,14)     =         3.064991	     175.611071
	 D(7,5,12,24)     =        -1.077037	     -61.709674
	 D(8,5,12,13)     =        -1.038198	     -59.484374
	 D(8,5,12,14)     =         0.977558	      56.009963
	 D(8,5,12,24)     =         3.118715	     178.689218
	 D(9,15,18,19)    =         3.138123	     179.801225
	 D(9,15,18,20)    =         1.118549	      64.088139
	 D(9,15,18,21)    =        -1.024588	     -58.704557
	 D(10,9,15,16)    =        -0.974386	     -55.828214
	 D(10,9,15,17)    =        -2.993566	    -171.518673
	 D(10,9,15,18)    =         1.160484	      66.490862
	 D(11,9,15,16)    =         1.043512	      59.788844
	 D(11,9,15,17)    =        -0.975667	     -55.901614
	 D(11,9,15,18)    =        -3.104803	    -177.892080
	 D(12,24,21,18)   =         1.033662	      59.224488
	 D(12,24,21,22)   =        -1.095685	     -62.778153
	 D(12,24,21,23)   =        -3.108830	    -178.122850
	 D(13,12,24,21)   =         2.483637	     142.301938
	 D(13,12,24,25)   =         0.365885	      20.963647
	 D(13,12,24,26)   =        -1.656871	     -94.931701
	 D(14,12,24,21)   =         0.464026	      26.586733
	 D(14,12,24,25)   =        -1.653727	     -94.751558
	 D(14,12,24,26)   =         2.606703	     149.353094
	 D(15,18,21,22)   =        -1.011308	     -57.943680
	 D(15,18,21,23)   =         1.010266	      57.883963
	 D(15,18,21,24)   =         3.141278	     179.981979
	 D(16,15,18,19)   =        -1.007724	     -57.738313
	 D(16,15,18,20)   =        -3.027298	    -173.451399
	 D(16,15,18,21)   =         1.112750	      63.755905
	 D(17,15,18,19)   =         1.010318	      57.886969
	 D(17,15,18,20)   =        -1.009256	     -57.826117
	 D(17,15,18,21)   =         3.130792	     179.381187
	 D(18,21,24,25)   =        -3.116223	    -178.546400
	 D(18,21,24,26)   =        -1.107933	     -63.479874
	 D(19,18,21,22)   =         1.097013	      62.854190
	 D(19,18,21,23)   =         3.118586	     178.681833
	 D(19,18,21,24)   =        -1.033587	     -59.220150
	 D(20,18,21,22)   =         3.122469	     178.904296
	 D(20,18,21,23)   =        -1.139143	     -65.268061
	 D(20,18,21,24)   =         0.991870	      56.829956
	 D(22,21,24,25)   =         1.037615	      59.450959
	 D(22,21,24,26)   =         3.045905	     174.517486
	 D(23,21,24,25)   =        -0.975530	     -55.893738
	 D(23,21,24,26)   =         1.032760	      59.172788
	 R(1,21)          =         6.891666	       3.646913
	 R(5,18)          =         6.447890	       3.412077

	Current energy   :      -314.9800811586

	Generating empirical Hessian (Schlegel '84) for each fragment.
	Taking RFO optimization step.
	Going to follow RFO solution 1.
	Using RFO vector 1.
	Norm of target step-size    0.00065
	Projected energy change by RFO approximation:         0.0000000001

	Back-transformation to cartesian coordinates...
	Successfully converged to displaced geometry.

	--- Internal Coordinate Step in ANG or DEG, aJ/ANG or AJ/DEG ---
	 ---------------------------------------------------------------------------
	   Coordinate                Previous        Force       Change         New 
	   ----------                --------       ------       ------       ------
	    1 R(1,2)          =      1.090079     0.000011     0.000002     1.090081
	    2 R(1,3)          =      1.091462     0.000011     0.000002     1.091464
	    3 R(1,4)          =      1.089710     0.000008     0.000001     1.089711
	    4 R(1,9)          =      1.524476    -0.000000    -0.000000     1.524476
	    5 R(5,6)          =      1.088822     0.000005     0.000001     1.088823
	    6 R(5,7)          =      1.090827     0.000004     0.000001     1.090827
	    7 R(5,8)          =      1.090254     0.000003     0.000001     1.090255
	    8 R(5,12)         =      1.526463    -0.000003    -0.000000     1.526463
	    9 R(9,10)         =      1.091883     0.000016     0.000003     1.091886
	   10 R(9,11)         =      1.092229     0.000008     0.000002     1.092230
	   11 R(9,15)         =      1.528663     0.000002     0.000000     1.528663
	   12 R(12,13)        =      1.091604     0.000001     0.000000     1.091604
	   13 R(12,14)        =      1.093935     0.000005     0.000001     1.093936
	   14 R(12,24)        =      1.535800     0.000002     0.000001     1.535801
	   15 R(15,16)        =      1.093931     0.000017     0.000003     1.093934
	   16 R(15,17)        =      1.094011     0.000021     0.000004     1.094015
	   17 R(15,18)        =      1.529117     0.000013     0.000003     1.529120
	   18 R(18,19)        =      1.092348     0.000011     0.000002     1.092350
	   19 R(18,20)        =      1.093968     0.000021     0.000004     1.093972
	   20 R(18,21)        =      1.523929     0.000003     0.000001     1.523930
	   21 R(21,22)        =      1.095587     0.000014     0.000003     1.095590
	   22 R(21,23)        =      1.093001     0.000011     0.000002     1.093003
	   23 R(21,24)        =      1.528943     0.000007     0.000002     1.528944
	   24 R(24,25)        =      1.092134     0.000003     0.000001     1.092135
	   25 R(24,26)        =      1.094828     0.000005     0.000001     1.094829
	   26 B(1,9,10)       =    109.626522     0.000000     0.000056   109.626578
	   27 B(1,9,11)       =    109.338756    -0.000000    -0.000026   109.338730
	   28 B(1,9,15)       =    113.088866    -0.000000    -0.000180   113.088686
	   29 B(2,1,3)        =    107.702056     0.000000     0.000015   107.702071
	   30 B(2,1,4)        =    107.611641     0.000000     0.000064   107.611705
	   31 B(2,1,9)        =    111.494198    -0.000000    -0.000115   111.494083
	   32 B(3,1,4)        =    107.914275     0.000000     0.000060   107.914335
	   33 B(3,1,9)        =    110.757467     0.000000     0.000048   110.757515
	   34 B(4,1,9)        =    111.195406    -0.000000    -0.000064   111.195342
	   35 B(5,12,13)      =    108.306492     0.000000    -0.000066   108.306425
	   36 B(5,12,14)      =    109.941418     0.000000     0.000012   109.941430
	   37 B(5,12,24)      =    113.602510    -0.000000    -0.000169   113.602341
	   38 B(6,5,7)        =    107.548801     0.000000    -0.000032   107.548769
	   39 B(6,5,8)        =    108.025821     0.000000     0.000048   108.025869
	   40 B(6,5,12)       =    111.724833    -0.000000    -0.000045   111.724788
	   41 B(7,5,8)        =    107.816853     0.000000     0.000030   107.816883
	   42 B(7,5,12)       =    110.185828    -0.000000    -0.000021   110.185807
	   43 B(8,5,12)       =    111.373498     0.000000     0.000022   111.373520
	   44 B(9,15,16)      =    109.057616     0.000000     0.000091   109.057706
	   45 B(9,15,17)      =    108.644328    -0.000000    -0.000152   108.644175
	   46 B(9,15,18)      =    114.751359    -0.000000    -0.000243   114.751117
	   47 B(10,9,11)      =    106.090700     0.000000     0.000138   106.090838
	   48 B(10,9,15)      =    109.957361     0.000000     0.000032   109.957394
	   49 B(11,9,15)      =    108.490873     0.000000    -0.000002   108.490871
	   50 B(12,24,21)     =    114.447953     0.000000     0.000213   114.448166
	   51 B(12,24,25)     =    109.547728    -0.000000     0.000065   109.547793
	   52 B(12,24,26)     =    109.139635    -0.000000    -0.000191   109.139444
	   53 B(13,12,14)     =    106.081850    -0.000000     0.000061   106.081910
	   54 B(13,12,24)     =    109.451793     0.000000     0.000112   109.451905
	   55 B(14,12,24)     =    109.180525     0.000000     0.000066   109.180591
	   56 B(15,18,19)     =    108.177655     0.000000     0.000193   108.177848
	   57 B(15,18,20)     =    110.028811    -0.000000    -0.000033   110.028778
	   58 B(15,18,21)     =    113.308705     0.000000    -0.000015   113.308689
	   59 B(16,15,17)     =    106.490720    -0.000000     0.000028   106.490748
	   60 B(16,15,18)     =    108.796050     0.000000     0.000213   108.796263
	   61 B(17,15,18)     =    108.784641     0.000000     0.000081   108.784722
	   62 B(18,21,22)     =    108.752364     0.000000     0.000157   108.752521
	   63 B(18,21,23)     =    109.493425     0.000000     0.000016   109.493441
	   64 B(18,21,24)     =    114.567215    -0.000000     0.000054   114.567269
	   65 B(19,18,20)     =    106.286254    -0.000000    -0.000098   106.286156
	   66 B(19,18,21)     =    109.414086    -0.000000    -0.000075   109.414011
	   67 B(20,18,21)     =    109.377903     0.000000     0.000024   109.377927
	   68 B(21,24,25)     =    107.920224    -0.000000     0.000068   107.920292
	   69 B(21,24,26)     =    109.254109    -0.000000    -0.000057   109.254052
	   70 B(22,21,23)     =    106.356626    -0.000000    -0.000016   106.356609
	   71 B(22,21,24)     =    108.884031     0.000000     0.000086   108.884118
	   72 B(23,21,24)     =    108.471140    -0.000000    -0.000302   108.470838
	   73 B(25,24,26)     =    106.206734    -0.000000    -0.000119   106.206615
	   74 D(1,9,15,16)    =   -178.734598    -0.000000     0.005163  -178.729435
	   75 D(1,9,15,17)    =     65.574943     0.000000     0.005164    65.580107
	   76 D(1,9,15,18)    =    -56.415522     0.000000     0.005340   -56.410182
	   77 D(2,1,9,10)     =    -57.771972     0.000000    -0.000252   -57.772223
	   78 D(2,1,9,11)     =   -173.684730    -0.000000    -0.000435  -173.685165
	   79 D(2,1,9,15)     =     65.317758     0.000000    -0.000294    65.317464
	   80 D(3,1,9,10)     =   -177.688183     0.000000    -0.000226  -177.688409
	   81 D(3,1,9,11)     =     66.399059    -0.000000    -0.000409    66.398649
	   82 D(3,1,9,15)     =    -54.598453     0.000000    -0.000269   -54.598722
	   83 D(4,1,9,10)     =     62.325841     0.000000    -0.000291    62.325550
	   84 D(4,1,9,11)     =    -53.586917    -0.000000    -0.000475   -53.587392
	   85 D(4,1,9,15)     =   -174.584429    -0.000000    -0.000334  -174.584763
	   86 D(5,12,24,21)   =    -96.510623     0.000000    -0.001784   -96.512407
	   87 D(5,12,24,25)   =    142.151086    -0.000000    -0.002068   142.149018
	   88 D(5,12,24,26)   =     26.255738     0.000000    -0.001854    26.253884
	   89 D(6,5,12,13)    =    179.608684    -0.000000     0.000103   179.608788
	   90 D(6,5,12,14)    =    -64.896979     0.000000     0.000145   -64.896834
	   91 D(6,5,12,24)    =     57.782275    -0.000000     0.000120    57.782395
	   92 D(7,5,12,13)    =     60.116735     0.000000     0.000187    60.116921
	   93 D(7,5,12,14)    =    175.611071     0.000000     0.000228   175.611299
	   94 D(7,5,12,24)    =    -61.709674     0.000000     0.000203   -61.709471
	   95 D(8,5,12,13)    =    -59.484374     0.000000     0.000149   -59.484225
	   96 D(8,5,12,14)    =     56.009963     0.000000     0.000190    56.010153
	   97 D(8,5,12,24)    =    178.689218    -0.000000     0.000166   178.689383
	   98 D(9,15,18,19)   =    179.801225    -0.000000    -0.007019   179.794206
	   99 D(9,15,18,20)   =     64.088139    -0.000000    -0.006992    64.081146
	  100 D(9,15,18,21)   =    -58.704557    -0.000000    -0.006987   -58.711544
	  101 D(10,9,15,16)   =    -55.828214    -0.000000     0.005133   -55.823082
	  102 D(10,9,15,17)   =   -171.518673     0.000000     0.005133  -171.513539
	  103 D(10,9,15,18)   =     66.490862     0.000000     0.005309    66.496171
	  104 D(11,9,15,16)   =     59.788844     0.000000     0.005314    59.794158
	  105 D(11,9,15,17)   =    -55.901614     0.000000     0.005315   -55.896299
	  106 D(11,9,15,18)   =   -177.892080     0.000000     0.005491  -177.886588
	  107 D(12,24,21,18)  =     59.224488    -0.000000    -0.005714    59.218774
	  108 D(12,24,21,22)  =    -62.778153    -0.000000    -0.006020   -62.784173
	  109 D(12,24,21,23)  =   -178.122850    -0.000000    -0.005884  -178.128734
	  110 D(13,12,24,21)  =    142.301938     0.000000    -0.001666   142.300272
	  111 D(13,12,24,25)  =     20.963647     0.000000    -0.001950    20.961697
	  112 D(13,12,24,26)  =    -94.931701     0.000000    -0.001736   -94.933436
	  113 D(14,12,24,21)  =     26.586733    -0.000000    -0.001838    26.584895
	  114 D(14,12,24,25)  =    -94.751558    -0.000000    -0.002122   -94.753680
	  115 D(14,12,24,26)  =    149.353094    -0.000000    -0.001908   149.351186
	  116 D(15,18,21,22)  =    -57.943680    -0.000000    -0.006494   -57.950175
	  117 D(15,18,21,23)  =     57.883963    -0.000000    -0.006417    57.877545
	  118 D(15,18,21,24)  =    179.981979    -0.000000    -0.006761   179.975218
	  119 D(16,15,18,19)  =    -57.738313    -0.000000    -0.006907   -57.745220
	  120 D(16,15,18,20)  =   -173.451399    -0.000000    -0.006881  -173.458280
	  121 D(16,15,18,21)  =     63.755905    -0.000000    -0.006876    63.749029
	  122 D(17,15,18,19)  =     57.886969     0.000000    -0.006715    57.880254
	  123 D(17,15,18,20)  =    -57.826117     0.000000    -0.006689   -57.832806
	  124 D(17,15,18,21)  =    179.381187    -0.000000    -0.006684   179.374503
	  125 D(18,21,24,25)  =   -178.546400     0.000000    -0.005438  -178.551838
	  126 D(18,21,24,26)  =    -63.479874    -0.000000    -0.005572   -63.485445
	  127 D(19,18,21,22)  =     62.854190    -0.000000    -0.006312    62.847878
	  128 D(19,18,21,23)  =    178.681833     0.000000    -0.006235   178.675598
	  129 D(19,18,21,24)  =    -59.220150    -0.000000    -0.006579   -59.226729
	  130 D(20,18,21,22)  =    178.904296    -0.000000    -0.006458   178.897839
	  131 D(20,18,21,23)  =    -65.268061    -0.000000    -0.006381   -65.274442
	  132 D(20,18,21,24)  =     56.829956    -0.000000    -0.006725    56.823231
	  133 D(22,21,24,25)  =     59.450959    -0.000000    -0.005744    59.445215
	  134 D(22,21,24,26)  =    174.517486    -0.000000    -0.005878   174.511608
	  135 D(23,21,24,25)  =    -55.893738     0.000000    -0.005608   -55.899347
	  136 D(23,21,24,26)  =     59.172788    -0.000000    -0.005742    59.167046
	  137 R(1,21)         =      3.646913     0.000001     0.000022     3.646935
	  138 R(5,18)         =      3.412077     0.000001    -0.000000     3.412076
	 ---------------------------------------------------------------------------

  ==> Convergence Check <==

  Measures of convergence in internal coordinates in au.
  Criteria marked as inactive (o), active & met (*), and active & unmet ( ).
  --------------------------------------------------------------------------------------------- ~
   Step     Total Energy     Delta E     MAX Force     RMS Force      MAX Disp      RMS Disp    ~
  --------------------------------------------------------------------------------------------- ~
    Convergence Criteria             o    2.00e-06 *    1.00e-06 *    6.00e-06 *    4.00e-06 *  ~
  --------------------------------------------------------------------------------------------- ~
      1    -314.98008116   -3.15e+02 o    2.59e-06      5.54e-07 *    1.22e-04      5.54e-05    ~
  ---------------------------------------------------------------------------------------------

	Writing optimization data to binary file.
	Structure for next step:
	Cartesian Geometry (in Angstrom)
	    C    -2.9382649504  -0.0963531830  -1.1796288650
	    H    -2.0589521466  -0.4786930841  -1.6981854760
	    H    -3.1069221932   0.9262310191  -1.5219301972
	    H    -3.7917839796  -0.6986954148  -1.4897249631
	    C     3.0100985567   0.9930215949  -0.5950267247
	    H     2.1181292162   1.6017639251  -0.7341624488
	    H     3.3335843080   0.6536081808  -1.5799428679
	    H     3.7943696444   1.6317532067  -0.1880912034
	    C    -2.7559275062  -0.1365048276   0.3333704205
	    H    -2.5479505127  -1.1603616220   0.6506693860
	    H    -3.6929001712   0.1462658788   0.8182307819
	    C     2.7410155794  -0.2044189217   0.3126184361
	    H     3.6654773006  -0.7770422069   0.4078710833
	    H     2.4926312998   0.1399622011   1.3207865128
	    C    -1.6522461684   0.7977736991   0.8291760255
	    H    -1.5627859357   0.7002597062   1.9150767107
	    H    -1.9546942501   1.8308794904   0.6340207047
	    C    -0.2799466556   0.5589297879   0.1983396785
	    H     0.4207557743   1.2813105400   0.6230886493
	    H    -0.3200776479   0.7652061622  -0.8752593744
	    C     0.2494205505  -0.8523928438   0.4226186975
	    H     0.3040138252  -1.0409421364   1.5004802669
	    H    -0.4621286059  -1.5772628533   0.0189890108
	    C     1.6206835362  -1.1229371177  -0.1971510903
	    H     1.8813356600  -2.1640634358   0.0050246760
	    H     1.5491762772  -1.0317089021  -1.2858262999
			--------------------------
			 OPTKING Finished Execution 
			--------------------------

    Structure for next step:
    Molecular point group: c1
    Full point group: C1

    Geometry (in Angstrom), charge = 0, multiplicity = 1:

    C           -2.938262783477    -0.096350955237    -1.179640618637
    H           -2.058949979674    -0.478690856353    -1.698197229635
    H           -3.106920026290     0.926233246928    -1.521941950750
    H           -3.791781812652    -0.698693187066    -1.489736716681
    C            3.010100723563     0.993023822632    -0.595038478293
    H            2.118131383123     1.601766152869    -0.734174202359
    H            3.333586474883     0.653610408593    -1.579954621463
    H            3.794371811295     1.631755434498    -0.188102957015
    C           -2.755925339328    -0.136502599827     0.333358666923
    H           -2.547948345790    -1.160359394204     0.650657632433
    H           -3.692898004272     0.146268106603     0.818219028280
    C            2.741017746275    -0.204416693895     0.312606682457
    H            3.665479467483    -0.777039979125     0.407859329719
    H            2.492633466721     0.139964428855     1.320774759166
    C           -1.652244001546     0.797775926895     0.829164271899
    H           -1.562783768839     0.700261933964     1.915064957118
    H           -1.954692083242     1.830881718160     0.634008951146
    C           -0.279944488739     0.558932015698     0.198327924924
    H            0.420757941196     1.281312767818     0.623076895741
    H           -0.320075480978     0.765208389961    -0.875271127982
    C            0.249422717357    -0.852390616029     0.422606943940
    H            0.304015992118    -1.040939908624     1.500468513352
    H           -0.462126439034    -1.577260625488     0.018977257233
    C            1.620685703104    -1.122934889877    -0.197162843945
    H            1.881337826902    -2.164061208057     0.005012922372
    H            1.549178444095    -1.031706674304    -1.285838053474

gradient() will perform analytic gradient computation.

*** tstart() called on wr39
*** at Tue Sep 20 23:38:24 2016


         ---------------------------------------------------------
                                   SCF
            by Justin Turney, Rob Parrish, and Andy Simmonett
                              RHF Reference
                       12 Threads,  60000 MiB Core
         ---------------------------------------------------------

  ==> Geometry <==

    Molecular point group: c1
    Full point group: C1

    Geometry (in Angstrom), charge = 0, multiplicity = 1:

       Center              X                  Y                   Z               Mass       
    ------------   -----------------  -----------------  -----------------  -----------------
           C         -2.938262783477    -0.096350955237    -1.179640618637    12.000000000000
           H         -2.058949979674    -0.478690856353    -1.698197229635     1.007825032070
           H         -3.106920026290     0.926233246928    -1.521941950750     1.007825032070
           H         -3.791781812652    -0.698693187066    -1.489736716681     1.007825032070
           C          3.010100723563     0.993023822632    -0.595038478293    12.000000000000
           H          2.118131383123     1.601766152869    -0.734174202359     1.007825032070
           H          3.333586474883     0.653610408593    -1.579954621463     1.007825032070
           H          3.794371811295     1.631755434498    -0.188102957015     1.007825032070
           C         -2.755925339328    -0.136502599827     0.333358666923    12.000000000000
           H         -2.547948345790    -1.160359394204     0.650657632433     1.007825032070
           H         -3.692898004272     0.146268106603     0.818219028280     1.007825032070
           C          2.741017746275    -0.204416693895     0.312606682457    12.000000000000
           H          3.665479467483    -0.777039979125     0.407859329719     1.007825032070
           H          2.492633466721     0.139964428855     1.320774759166     1.007825032070
           C         -1.652244001546     0.797775926895     0.829164271899    12.000000000000
           H         -1.562783768839     0.700261933964     1.915064957118     1.007825032070
           H         -1.954692083242     1.830881718160     0.634008951146     1.007825032070
           C         -0.279944488739     0.558932015698     0.198327924924    12.000000000000
           H          0.420757941196     1.281312767818     0.623076895741     1.007825032070
           H         -0.320075480978     0.765208389961    -0.875271127982     1.007825032070
           C          0.249422717357    -0.852390616029     0.422606943940    12.000000000000
           H          0.304015992118    -1.040939908624     1.500468513352     1.007825032070
           H         -0.462126439034    -1.577260625488     0.018977257233     1.007825032070
           C          1.620685703104    -1.122934889877    -0.197162843945    12.000000000000
           H          1.881337826902    -2.164061208057     0.005012922372     1.007825032070
           H          1.549178444095    -1.031706674304    -1.285838053474     1.007825032070

  Running in c1 symmetry.

  Rotational constants: A =      0.12939  B =      0.02681  C =      0.02618 [cm^-1]
  Rotational constants: A =   3879.07202  B =    803.60628  C =    784.74284 [MHz]
  Nuclear repulsion =  398.890743690354725

  Charge       = 0
  Multiplicity = 1
  Electrons    = 66
  Nalpha       = 33
  Nbeta        = 33

  ==> Algorithm <==

  SCF Algorithm Type is DF.
  DIIS enabled.
  MOM disabled.
  Fractional occupation disabled.
  Guess Type is READ.
  Energy threshold   = 1.00e-10
  Density threshold  = 1.00e-10
  Integral threshold = 0.00e+00

  ==> Primary Basis <==

  Basis Set: AUG-CC-PVTZ
    Number of shells: 274
    Number of basis function: 782
    Number of Cartesian functions: 890
    Spherical Harmonics?: true
    Max angular momentum: 3

  ==> Pre-Iterations <==

   -------------------------------------------------------
    Irrep   Nso     Nmo     Nalpha   Nbeta   Ndocc  Nsocc
   -------------------------------------------------------
     A        782     782       0       0       0       0
   -------------------------------------------------------
    Total     782     782      33      33      33       0
   -------------------------------------------------------

  ==> Integral Setup <==

  ==> DFJK: Density-Fitted J/K Matrices <==

    J tasked:                  Yes
    K tasked:                  Yes
    wK tasked:                  No
    OpenMP threads:             12
    Integrals threads:          12
    Memory (MB):             42915
    Algorithm:                Core
    Integral Cache:           NONE
    Schwarz Cutoff:          1E-12
    Fitting Condition:       1E-12

   => Auxiliary Basis Set <=

  Basis Set: 
    Number of shells: 492
    Number of basis function: 1660
    Number of Cartesian functions: 2038
    Spherical Harmonics?: true
    Max angular momentum: 4

  Minimum eigenvalue in the overlap matrix is 1.6654676480E-06.
  Using Symmetric Orthogonalization.
  SCF Guess: Reading in previously saved MOs, projecting if necessary.

  Using orbitals from previous SCF, no projection.
  Recomputing DOCC and SOCC from number of alpha and beta electrons from previous calculation.
              A 
    DOCC [    33 ]

  ==> Iterations <==

                           Total Energy        Delta E     RMS |[F,P]|

   @DF-RHF iter   0:  -313.53651345065202   -3.13537e+02   5.34781e-07 
   @DF-RHF iter   1:  -313.53662250861498   -1.09058e-04   1.09760e-07 
   @DF-RHF iter   2:  -313.53662251454682   -5.93184e-09   4.54859e-08 DIIS
   @DF-RHF iter   3:  -313.53662251539276   -8.45944e-10   1.69394e-08 DIIS
   @DF-RHF iter   4:  -313.53662251556057   -1.67802e-10   1.97232e-09 DIIS
   @DF-RHF iter   5:  -313.53662251556284   -2.27374e-12   7.34597e-10 DIIS
   @DF-RHF iter   6:  -313.53662251556341   -5.68434e-13   1.74656e-10 DIIS
   @DF-RHF iter   7:  -313.53662251556318    2.27374e-13   4.52441e-11 DIIS

  ==> Post-Iterations <==

    Orbital Energies (a.u.)
    -----------------------

    Doubly Occupied:                                                      

       1A    -11.212639     2A    -11.212031     3A    -11.210860  
       4A    -11.210802     5A    -11.210178     6A    -11.209017  
       7A    -11.207001     8A    -11.205882     9A     -1.094705  
      10A     -1.058899    11A     -1.003651    12A     -0.950580  
      13A     -0.886355    14A     -0.835409    15A     -0.783664  
      16A     -0.752528    17A     -0.649211    18A     -0.625710  
      19A     -0.608450    20A     -0.600253    21A     -0.580203  
      22A     -0.555000    23A     -0.541158    24A     -0.534537  
      25A     -0.522291    26A     -0.495223    27A     -0.491672  
      28A     -0.470084    29A     -0.468876    30A     -0.460860  
      31A     -0.449423    32A     -0.433445    33A     -0.432681  

    Virtual:                                                              

      34A      0.029786    35A      0.033303    36A      0.033917  
      37A      0.035381    38A      0.046307    39A      0.048488  
      40A      0.048800    41A      0.053785    42A      0.055497  
      43A      0.068006    44A      0.069404    45A      0.069835  
      46A      0.072135    47A      0.077588    48A      0.084657  
      49A      0.092568    50A      0.096202    51A      0.101103  
      52A      0.114042    53A      0.114557    54A      0.119305  
      55A      0.122031    56A      0.129164    57A      0.130901  
      58A      0.132755    59A      0.135613    60A      0.139300  
      61A      0.147365    62A      0.148649    63A      0.149521  
      64A      0.153846    65A      0.157558    66A      0.163142  
      67A      0.166036    68A      0.169585    69A      0.173798  
      70A      0.175004    71A      0.177306    72A      0.180434  
      73A      0.185492    74A      0.188772    75A      0.194587  
      76A      0.199913    77A      0.210237    78A      0.222394  
      79A      0.227491    80A      0.231671    81A      0.238521  
      82A      0.246193    83A      0.252577    84A      0.257020  
      85A      0.268033    86A      0.278144    87A      0.281817  
      88A      0.289639    89A      0.296413    90A      0.298809  
      91A      0.300077    92A      0.302683    93A      0.308772  
      94A      0.313052    95A      0.318527    96A      0.321395  
      97A      0.324057    98A      0.326486    99A      0.330980  
     100A      0.333388   101A      0.340058   102A      0.342785  
     103A      0.345775   104A      0.349184   105A      0.353075  
     106A      0.358056   107A      0.359992   108A      0.365040  
     109A      0.365797   110A      0.371972   111A      0.372965  
     112A      0.378756   113A      0.382397   114A      0.388146  
     115A      0.395422   116A      0.398156   117A      0.399834  
     118A      0.403565   119A      0.409566   120A      0.413373  
     121A      0.416866   122A      0.422576   123A      0.425298  
     124A      0.428589   125A      0.433933   126A      0.441810  
     127A      0.443145   128A      0.448311   129A      0.450263  
     130A      0.450496   131A      0.456776   132A      0.461169  
     133A      0.466264   134A      0.470731   135A      0.473278  
     136A      0.474117   137A      0.478301   138A      0.485897  
     139A      0.488050   140A      0.491376   141A      0.494148  
     142A      0.496478   143A      0.498643   144A      0.500258  
     145A      0.504020   146A      0.511683   147A      0.518311  
     148A      0.526336   149A      0.529374   150A      0.538021  
     151A      0.539807   152A      0.540959   153A      0.545481  
     154A      0.547783   155A      0.551910   156A      0.555974  
     157A      0.558958   158A      0.562652   159A      0.566494  
     160A      0.577958   161A      0.578236   162A      0.584493  
     163A      0.591124   164A      0.593794   165A      0.596064  
     166A      0.598984   167A      0.606219   168A      0.612275  
     169A      0.614632   170A      0.616392   171A      0.620681  
     172A      0.625150   173A      0.627577   174A      0.634986  
     175A      0.637701   176A      0.650963   177A      0.653743  
     178A      0.656374   179A      0.660834   180A      0.666627  
     181A      0.670922   182A      0.675946   183A      0.679142  
     184A      0.680889   185A      0.690313   186A      0.696469  
     187A      0.700834   188A      0.706139   189A      0.713445  
     190A      0.716262   191A      0.725195   192A      0.730009  
     193A      0.733180   194A      0.741353   195A      0.751024  
     196A      0.756627   197A      0.766130   198A      0.770323  
     199A      0.779059   200A      0.785104   201A      0.792213  
     202A      0.803258   203A      0.819504   204A      0.828815  
     205A      0.834485   206A      0.837921   207A      0.842629  
     208A      0.848813   209A      0.857783   210A      0.860515  
     211A      0.866578   212A      0.874736   213A      0.882949  
     214A      0.887455   215A      0.891770   216A      0.894924  
     217A      0.901090   218A      0.904609   219A      0.910327  
     220A      0.913543   221A      0.914980   222A      0.926275  
     223A      0.929723   224A      0.932491   225A      0.936359  
     226A      0.942454   227A      0.948140   228A      0.951717  
     229A      0.958295   230A      0.964015   231A      0.964237  
     232A      0.971657   233A      0.979408   234A      0.980621  
     235A      0.988488   236A      0.991371   237A      1.001068  
     238A      1.005746   239A      1.012941   240A      1.017443  
     241A      1.020752   242A      1.022149   243A      1.027493  
     244A      1.034844   245A      1.039692   246A      1.043862  
     247A      1.050167   248A      1.057264   249A      1.062563  
     250A      1.070399   251A      1.074800   252A      1.077940  
     253A      1.083760   254A      1.091014   255A      1.096197  
     256A      1.104681   257A      1.105155   258A      1.110987  
     259A      1.114547   260A      1.117926   261A      1.122304  
     262A      1.130234   263A      1.133957   264A      1.146124  
     265A      1.153347   266A      1.160721   267A      1.163129  
     268A      1.168349   269A      1.173413   270A      1.177848  
     271A      1.181408   272A      1.186486   273A      1.192707  
     274A      1.194023   275A      1.200809   276A      1.204510  
     277A      1.211206   278A      1.216419   279A      1.225387  
     280A      1.229907   281A      1.235953   282A      1.236436  
     283A      1.244380   284A      1.247644   285A      1.252059  
[...]
	 Skipping Hessian update for step 10.
	Denominators (dg)(dq) or (dq)(dq) are very small.
	 Skipping Hessian update for step 9.
	Denominators (dg)(dq) or (dq)(dq) are very small.
	 Skipping Hessian update for step 8.
	Denominators (dg)(dq) or (dq)(dq) are very small.
	 Skipping Hessian update for step 7.
	Denominators (dg)(dq) or (dq)(dq) are very small.
	 Skipping Hessian update for step 6.
	Denominators (dg)(dq) or (dq)(dq) are very small.
	 Skipping Hessian update for step 5.
	Denominators (dg)(dq) or (dq)(dq) are very small.
	 Skipping Hessian update for step 4.
	Denominators (dg)(dq) or (dq)(dq) are very small.
	 Skipping Hessian update for step 3.
	Denominators (dg)(dq) or (dq)(dq) are very small.
	 Skipping Hessian update for step 2.
	Steps to be used in Hessian update: 1
	Taking RFO optimization step.
	Going to follow RFO solution 1.
	Using RFO vector 1.
	Norm of target step-size    0.00002
	Projected energy change by RFO approximation:        -0.0000000000

	Back-transformation to cartesian coordinates...
	Successfully converged to displaced geometry.

	--- Internal Coordinate Step in ANG or DEG, aJ/ANG or AJ/DEG ---
	 ---------------------------------------------------------------------------
	   Coordinate                Previous        Force       Change         New 
	   ----------                --------       ------       ------       ------
	    1 R(1,2)          =      1.090080    -0.000001    -0.000000     1.090079
	    2 R(1,3)          =      1.091463    -0.000000    -0.000000     1.091463
	    3 R(1,4)          =      1.089710    -0.000001    -0.000000     1.089710
	    4 R(1,9)          =      1.524476    -0.000001    -0.000000     1.524476
	    5 R(5,6)          =      1.088823    -0.000002    -0.000000     1.088823
	    6 R(5,7)          =      1.090827    -0.000002    -0.000000     1.090827
	    7 R(5,8)          =      1.090255    -0.000002    -0.000000     1.090255
	    8 R(5,12)         =      1.526463    -0.000000    -0.000000     1.526463
	    9 R(9,10)         =      1.091885    -0.000000     0.000000     1.091885
	   10 R(9,11)         =      1.092229    -0.000000     0.000000     1.092229
	   11 R(9,15)         =      1.528664    -0.000001    -0.000000     1.528664
	   12 R(12,13)        =      1.091604    -0.000003    -0.000000     1.091604
	   13 R(12,14)        =      1.093936    -0.000004    -0.000000     1.093936
	   14 R(12,24)        =      1.535800    -0.000000    -0.000000     1.535800
	   15 R(15,16)        =      1.093933     0.000000     0.000000     1.093933
	   16 R(15,17)        =      1.094013     0.000000    -0.000000     1.094013
	   17 R(15,18)        =      1.529118     0.000001    -0.000000     1.529118
	   18 R(18,19)        =      1.092350    -0.000000     0.000000     1.092350
	   19 R(18,20)        =      1.093970    -0.000000     0.000000     1.093970
	   20 R(18,21)        =      1.523930     0.000000     0.000000     1.523930
	   21 R(21,22)        =      1.095589    -0.000001     0.000000     1.095589
	   22 R(21,23)        =      1.093002    -0.000002     0.000000     1.093003
	   23 R(21,24)        =      1.528944     0.000002     0.000000     1.528944
	   24 R(24,25)        =      1.092135    -0.000003    -0.000000     1.092135
	   25 R(24,26)        =      1.094829    -0.000004    -0.000000     1.094828
	   26 B(1,9,10)       =    109.626554     0.000000     0.000003   109.626557
	   27 B(1,9,11)       =    109.338677     0.000000     0.000001   109.338678
	   28 B(1,9,15)       =    113.088889    -0.000000    -0.000013   113.088877
	   29 B(2,1,3)        =    107.702082     0.000000    -0.000002   107.702080
	   30 B(2,1,4)        =    107.611657     0.000000     0.000007   107.611664
	   31 B(2,1,9)        =    111.494126    -0.000000     0.000008   111.494134
	   32 B(3,1,4)        =    107.914323     0.000000    -0.000003   107.914321
	   33 B(3,1,9)        =    110.757492    -0.000000    -0.000005   110.757487
	   34 B(4,1,9)        =    111.195369     0.000000    -0.000006   111.195363
	   35 B(5,12,13)      =    108.306404     0.000000     0.000053   108.306457
	   36 B(5,12,14)      =    109.941433    -0.000000    -0.000007   109.941426
	   37 B(5,12,24)      =    113.602483    -0.000000    -0.000033   113.602450
	   38 B(6,5,7)        =    107.548803     0.000000    -0.000006   107.548798
	   39 B(6,5,8)        =    108.025848     0.000000    -0.000008   108.025840
	   40 B(6,5,12)       =    111.724842    -0.000000    -0.000011   111.724831
	   41 B(7,5,8)        =    107.816859    -0.000000     0.000002   107.816861
	   42 B(7,5,12)       =    110.185805     0.000000     0.000008   110.185813
	   43 B(8,5,12)       =    111.373478     0.000000     0.000014   111.373491
	   44 B(9,15,16)      =    109.057628    -0.000000    -0.000005   109.057623
	   45 B(9,15,17)      =    108.644234    -0.000000    -0.000000   108.644234
	   46 B(9,15,18)      =    114.751395     0.000000    -0.000013   114.751382
	   47 B(10,9,11)      =    106.090747    -0.000000    -0.000000   106.090746
	   48 B(10,9,15)      =    109.957436     0.000000     0.000006   109.957441
	   49 B(11,9,15)      =    108.490774     0.000000     0.000004   108.490778
	   50 B(12,24,21)     =    114.448162    -0.000000    -0.000023   114.448138
	   51 B(12,24,25)     =    109.547691    -0.000000    -0.000010   109.547682
	   52 B(12,24,26)     =    109.139558     0.000000     0.000005   109.139563
	   53 B(13,12,14)     =    106.081887    -0.000000     0.000003   106.081890
	   54 B(13,12,24)     =    109.451809     0.000000     0.000001   109.451810
	   55 B(14,12,24)     =    109.180575     0.000000    -0.000014   109.180561
	   56 B(15,18,19)     =    108.177739    -0.000000    -0.000013   108.177725
	   57 B(15,18,20)     =    110.028771     0.000000     0.000006   110.028777
	   58 B(15,18,21)     =    113.308687     0.000000     0.000011   113.308697
	   59 B(16,15,17)     =    106.490700     0.000000     0.000013   106.490713
	   60 B(16,15,18)     =    108.796070    -0.000000    -0.000002   108.796068
	   61 B(17,15,18)     =    108.784684    -0.000000     0.000009   108.784693
	   62 B(18,21,22)     =    108.752402     0.000000     0.000045   108.752447
	   63 B(18,21,23)     =    109.493370    -0.000000    -0.000002   109.493368
	   64 B(18,21,24)     =    114.567374     0.000000     0.000000   114.567375
	   65 B(19,18,20)     =    106.286177     0.000000     0.000001   106.286178
	   66 B(19,18,21)     =    109.414046     0.000000    -0.000006   109.414039
	   67 B(20,18,21)     =    109.377990    -0.000000     0.000001   109.377991
	   68 B(21,24,25)     =    107.920168     0.000000     0.000030   107.920198
	   69 B(21,24,26)     =    109.254111    -0.000000     0.000005   109.254116
	   70 B(22,21,23)     =    106.356598     0.000000     0.000008   106.356606
	   71 B(22,21,24)     =    108.884055    -0.000000    -0.000000   108.884055
	   72 B(23,21,24)     =    108.470990    -0.000000    -0.000051   108.470939
	   73 B(25,24,26)     =    106.206673    -0.000000    -0.000005   106.206668
	   74 D(1,9,15,16)    =   -178.734120     0.000000    -0.000076  -178.734196
	   75 D(1,9,15,17)    =     65.575490     0.000000    -0.000088    65.575402
	   76 D(1,9,15,18)    =    -56.414984    -0.000000    -0.000091   -56.415075
	   77 D(2,1,9,10)     =    -57.771650    -0.000000    -0.000049   -57.771699
	   78 D(2,1,9,11)     =   -173.684438    -0.000000    -0.000051  -173.684489
	   79 D(2,1,9,15)     =     65.318217     0.000000    -0.000049    65.318168
	   80 D(3,1,9,10)     =   -177.687862     0.000000    -0.000049  -177.687911
	   81 D(3,1,9,11)     =     66.399349    -0.000000    -0.000051    66.399299
	   82 D(3,1,9,15)     =    -54.597996     0.000000    -0.000048   -54.598044
	   83 D(4,1,9,10)     =     62.326109     0.000000    -0.000039    62.326071
	   84 D(4,1,9,11)     =    -53.586679    -0.000000    -0.000041   -53.586720
	   85 D(4,1,9,15)     =   -174.584024     0.000000    -0.000038  -174.584062
	   86 D(5,12,24,21)   =    -96.509596     0.000000     0.000001   -96.509595
	   87 D(5,12,24,25)   =    142.152068     0.000000    -0.000015   142.152054
	   88 D(5,12,24,26)   =     26.256857     0.000000    -0.000006    26.256851
	   89 D(6,5,12,13)    =    179.608920     0.000000     0.000024   179.608944
	   90 D(6,5,12,14)    =    -64.896741    -0.000000     0.000053   -64.896688
	   91 D(6,5,12,24)    =     57.782571    -0.000000     0.000006    57.782577
	   92 D(7,5,12,13)    =     60.116976     0.000000     0.000033    60.117009
	   93 D(7,5,12,14)    =    175.611316     0.000000     0.000062   175.611378
	   94 D(7,5,12,24)    =    -61.709372     0.000000     0.000015   -61.709357
	   95 D(8,5,12,13)    =    -59.484111    -0.000000     0.000016   -59.484095
	   96 D(8,5,12,14)    =     56.010229    -0.000000     0.000045    56.010274
	   97 D(8,5,12,24)    =    178.689541    -0.000000    -0.000002   178.689539
	   98 D(9,15,18,19)   =    179.799217     0.000000     0.000088   179.799304
	   99 D(9,15,18,20)   =     64.086197     0.000000     0.000090    64.086288
	  100 D(9,15,18,21)   =    -58.706569     0.000000     0.000077   -58.706492
	  101 D(10,9,15,16)   =    -55.827622    -0.000000    -0.000077   -55.827699
	  102 D(10,9,15,17)   =   -171.518012     0.000000    -0.000089  -171.518101
	  103 D(10,9,15,18)   =     66.491514    -0.000000    -0.000092    66.491422
	  104 D(11,9,15,16)   =     59.789477     0.000000    -0.000072    59.789405
	  105 D(11,9,15,17)   =    -55.900912     0.000000    -0.000084   -55.900997
	  106 D(11,9,15,18)   =   -177.891386    -0.000000    -0.000087  -177.891474
	  107 D(12,24,21,18)  =     59.223801     0.000000     0.000232    59.224033
	  108 D(12,24,21,22)  =    -62.779017     0.000000     0.000174   -62.778843
	  109 D(12,24,21,23)  =   -178.123613     0.000000     0.000192  -178.123421
	  110 D(13,12,24,21)  =    142.303084    -0.000000    -0.000046   142.303038
	  111 D(13,12,24,25)  =     20.964749    -0.000000    -0.000061    20.964687
	  112 D(13,12,24,26)  =    -94.930463    -0.000000    -0.000052   -94.930515
	  113 D(14,12,24,21)  =     26.587798    -0.000000    -0.000042    26.587756
	  114 D(14,12,24,25)  =    -94.750538    -0.000000    -0.000057   -94.750595
	  115 D(14,12,24,26)  =    149.354251    -0.000000    -0.000048   149.354202
	  116 D(15,18,21,22)  =    -57.945643     0.000000     0.000309   -57.945334
	  117 D(15,18,21,23)  =     57.881958     0.000000     0.000343    57.882301
	  118 D(15,18,21,24)  =    179.979848     0.000000     0.000276   179.980124
	  119 D(16,15,18,19)  =    -57.740266     0.000000     0.000071   -57.740195
	  120 D(16,15,18,20)  =   -173.453285    -0.000000     0.000074  -173.453211
	  121 D(16,15,18,21)  =     63.753948     0.000000     0.000060    63.754009
	  122 D(17,15,18,19)  =     57.885027     0.000000     0.000090    57.885117
	  123 D(17,15,18,20)  =    -57.827993    -0.000000     0.000092   -57.827900
	  124 D(17,15,18,21)  =    179.379241     0.000000     0.000079   179.379320
	  125 D(18,21,24,25)  =   -178.547036     0.000000     0.000226  -178.546810
	  126 D(18,21,24,26)  =    -63.480610     0.000000     0.000238   -63.480372
	  127 D(19,18,21,22)  =     62.852294     0.000000     0.000294    62.852588
	  128 D(19,18,21,23)  =    178.679895     0.000000     0.000328   178.680223
	  129 D(19,18,21,24)  =    -59.222215     0.000000     0.000261   -59.221954
	  130 D(20,18,21,22)  =    178.902334    -0.000000     0.000293   178.902626
	  131 D(20,18,21,23)  =    -65.270065     0.000000     0.000327   -65.269739
	  132 D(20,18,21,24)  =     56.827825    -0.000000     0.000259    56.828084
	  133 D(22,21,24,25)  =     59.450146    -0.000000     0.000168    59.450314
	  134 D(22,21,24,26)  =    174.516572    -0.000000     0.000180   174.516752
	  135 D(23,21,24,25)  =    -55.894450     0.000000     0.000186   -55.894264
	  136 D(23,21,24,26)  =     59.171976     0.000000     0.000198    59.172174
	  137 R(1,21)         =      3.646940     0.000000    -0.000000     3.646940
	  138 R(5,18)         =      3.412064    -0.000001     0.000001     3.412065
	 ---------------------------------------------------------------------------

  ==> Convergence Check <==

  Measures of convergence in internal coordinates in au.
  Criteria marked as inactive (o), active & met (*), and active & unmet ( ).
  ---------------------------------------------------------------------------------------------
   Step     Total Energy     Delta E     MAX Force     RMS Force      MAX Disp      RMS Disp   
  ---------------------------------------------------------------------------------------------
    Convergence Criteria             o    2.00e-06 *    1.00e-06 *    6.00e-06 *    4.00e-06 *
  ---------------------------------------------------------------------------------------------
     22    -314.98008116   -3.61e-09 o    4.71e-07 *    9.42e-08 *    5.98e-06 *    1.74e-06 *  ~
  ---------------------------------------------------------------------------------------------


  **** Optimization is complete! (in 22 steps) ****

  ==> Optimization Summary <==

  Measures of convergence in internal coordinates in au.
  --------------------------------------------------------------------------------------------------------------- ~
   Step         Total Energy             Delta E       MAX Force       RMS Force        MAX Disp        RMS Disp  ~
  --------------------------------------------------------------------------------------------------------------- ~
      1    -314.980081158630   -314.980081158630      0.00000259      0.00000055      0.00012250      0.00005536  ~
      2    -314.980081154898      0.000000003732      0.00000238      0.00000062      0.00014234      0.00004800  ~
      3    -314.980081152289      0.000000002609      0.00000124      0.00000029      0.00010705      0.00003293  ~
      4    -314.980081147273      0.000000005015      0.00000195      0.00000051      0.00007130      0.00002975  ~
      5    -314.980081157205     -0.000000009931      0.00000148      0.00000036      0.00005900      0.00002231  ~
      6    -314.980081155064      0.000000002141      0.00000154      0.00000033      0.00005502      0.00001526  ~
      7    -314.980081154568      0.000000000496      0.00000137      0.00000036      0.00001820      0.00000838  ~
      8    -314.980081156331     -0.000000001763      0.00000072      0.00000016      0.00001549      0.00000442  ~
      9    -314.980081154798      0.000000001533      0.00000028      0.00000008      0.00000648      0.00000275  ~
     10    -314.980081158419     -0.000000003621      0.00000138      0.00000034      0.00001117      0.00000441  ~
     11    -314.980081150811      0.000000007608      0.00000150      0.00000034      0.00001401      0.00000515  ~
     12    -314.980081156750     -0.000000005939      0.00000071      0.00000018      0.00002200      0.00000653  ~
     13    -314.980081150378      0.000000006372      0.00000037      0.00000009      0.00000881      0.00000284  ~
     14    -314.980081156318     -0.000000005941      0.00000040      0.00000009      0.00000608      0.00000176  ~
     15    -314.980081160411     -0.000000004093      0.00000222      0.00000053      0.00140565      0.00035673  ~
     16    -314.980081120266      0.000000040145      0.00003378      0.00000781      0.00135570      0.00033931  ~
     17    -314.980081158507     -0.000000038241      0.00000041      0.00000008      0.00001206      0.00000394  ~
     18    -314.980081156240      0.000000002267      0.00000144      0.00000036      0.00003530      0.00001086  ~
     19    -314.980081156044      0.000000000196      0.00000139      0.00000032      0.00002164      0.00000838  ~
     20    -314.980081157774     -0.000000001730      0.00000131      0.00000032      0.00003952      0.00001107  ~
     21    -314.980081151938      0.000000005835      0.00000165      0.00000039      0.00003387      0.00000962  ~
     22    -314.980081155547     -0.000000003608      0.00000047      0.00000009      0.00000598      0.00000174  ~
  --------------------------------------------------------------------------------------------------------------- ~

	Writing optimization data to binary file.
	Final energy is   -314.9800811555468
	Final (previous) structure:
	Cartesian Geometry (in Angstrom)
	    C    -2.9384110594  -0.0964484652  -1.1795525323
	    H    -2.0591452885  -0.4787916862  -1.6981841827
	    H    -3.1071381145   0.9261091702  -1.5218953109
	    H    -3.7919451060  -0.6988351552  -1.4895181959
	    C     3.0101740709   0.9930470694  -0.5948489847
	    H     2.1182252375   1.6018297029  -0.7339385036
	    H     3.3336717436   0.6537297485  -1.5797943187
	    H     3.7944545576   1.6317130245  -0.1878285018
	    C    -2.7559043129  -0.1365042346   0.3334292424
	    H    -2.5478507321  -1.1603327881   0.6507641710
	    H    -3.6928352711   0.1462538800   0.8183756085
	    C     2.7410390901  -0.2044830006   0.3126630273
	    H     3.6654837948  -0.7771407750   0.4078750877
	    H     2.4926422539   0.1397974165   1.3208622878
	    C    -1.6522097602   0.7978501935   0.8290636179
	    H    -1.5626859811   0.7004614372   1.9149688004
	    H    -1.9546858111   1.8309270370   0.6338092220
	    C    -0.2799407530   0.5589611576   0.1981816678
	    H     0.4207883680   1.2813464050   0.6228769376
	    H    -0.3201112990   0.7651991691  -0.8754212580
	    C     0.2494129686  -0.8523617612   0.4224920117
	    H     0.3039689031  -1.0408984975   1.5003565887
	    H    -0.4621274270  -1.5772313142   0.0188475577
	    C     1.6206955062  -1.1229197933  -0.1972264125
	    H     1.8812942594  -2.1640699708   0.0048956833
	    H     1.5492476117  -1.0316174311  -1.2858992949
	Saving final (previous) structure.
			--------------------------
			 OPTKING Finished Execution 
			--------------------------

    Final optimized geometry and variables:
    Molecular point group: c1
    Full point group: C1

    Geometry (in Angstrom), charge = 0, multiplicity = 1:

    C           -2.938411059412    -0.096448465208    -1.179552532264
    H           -2.059145288543    -0.478791686217    -1.698184182732
    H           -3.107138114535     0.926109170197    -1.521895310884
    H           -3.791945105954    -0.698835155202    -1.489518195892
    C            3.010174070858     0.993047069416    -0.594848984684
    H            2.118225237531     1.601829702927    -0.733938503593
    H            3.333671743644     0.653729748463    -1.579794318693
    H            3.794454557634     1.631713024496    -0.187828501751
    C           -2.755904312884    -0.136504234618     0.333429242370
    H           -2.547850732074    -1.160332788068     0.650764171045
    H           -3.692835271054     0.146253880041     0.818375608452
    C            2.741039090103    -0.204483000556     0.312663027301
    H            3.665483794822    -0.777140775012     0.407875087650
    H            2.492642253869     0.139797416482     1.320862287798
    C           -1.652209760155     0.797850193470     0.829063617948
    H           -1.562685981074     0.700461437247     1.914968800412
    H           -1.954685811095     1.830927037015     0.633809221967
    C           -0.279940752992     0.558961157595     0.198181667762
    H            0.420788367959     1.281346404986     0.622876937574
    H           -0.320111299020     0.765199169116    -0.875421258024
    C            0.249412968649    -0.852361761208     0.422492011742
    H            0.303968903078    -1.040898497547     1.500356588668
    H           -0.462127427015    -1.577231314154     0.018847557722
    C            1.620695506190    -1.122919793320    -0.197226412508
    H            1.881294259352    -2.164069970835     0.004895683255
    H            1.549247611675    -1.031617431142    -1.285899294918

	Cleaning optimization helper files.

*** Psi4 exiting successfully. Buy a developer a beer!
