    -----------------------------------------------------------------------
          Psi4: An Open-Source Ab Initio Electronic Structure Package
                              Psi4 1.0.0 Driver

                          Git: Rev {master} 6a9a71b dirty

    J. M. Turney, A. C. Simmonett, R. M. Parrish, E. G. Hohenstein,
    F. A. Evangelista, J. T. Fermann, B. J. Mintz, L. A. Burns, J. J. Wilke,
    M. L. Abrams, N. J. Russ, M. L. Leininger, C. L. Janssen, E. T. Seidl,
    W. D. Allen, H. F. Schaefer, R. A. King, E. F. Valeev, C. D. Sherrill,
    and T. D. Crawford, WIREs Comput. Mol. Sci. 2, 556-565 (2012)
    (doi: 10.1002/wcms.93)

                         Additional Contributions by
    A. E. DePrince, U. Bozkaya, A. Yu. Sokolov, D. G. A. Smith, R. Di Remigio,
    R. M. Richard, J. F. Gonthier, H. R. McAlexander, M. Saitow, and
    B. P. Pritchard
    -----------------------------------------------------------------------


    Psi4 started on: Tue Sep 20 23:46:39 2016

    Process ID:   9523
    PSI4DATADIR: /usr/local/hpc5/psi4conda/share/psi4
    Memory level set to 256.000 MB

  ==> Input File <==

--------------------------------------------------------------------------
memory 60 Gb

molecule molecule_62_psi {
0 1
C           -1.874942931668     1.756741477203    -0.096399182316
H           -2.314745144227     2.533322265938    -0.722763341342
H           -0.804332498132     1.737188747852    -0.293132800557
H           -2.013495863108     2.051457686269     0.944997571230
C            3.389639353895     0.052159251374    -0.421979503772
H            3.053232987452    -0.334304186868    -1.383153325620
H            3.746652606498    -0.791562097271     0.171181829233
H            4.236931352591     0.711150568025    -0.610044671015
C           -2.533817305712     0.403714971348    -0.355457783330
H           -2.424348393503     0.132224606251    -1.409662712831
H           -3.606230737390     0.510928275789    -0.180408392617
C            2.272085214962     0.787966524582     0.309707269429
H            2.677868456002     1.252705188930     1.211073908312
H            1.898854503639     1.603165549528    -0.317328727029
C           -1.994052264355    -0.737332625444     0.517526560687
H           -2.803307843107    -1.439555642342     0.730138111260
H           -1.684251384103    -0.335862843986     1.486190094020
C           -0.854082522215    -1.536483419910    -0.118324946218
H           -1.244081920971    -2.025600355127    -1.015793852636
H           -0.559385634839    -2.338218302669     0.565839084989
C            0.390052416695    -0.735393377850    -0.498130582280
H            1.078410814373    -1.401047281926    -1.023715424881
H            0.123656396945     0.048551040457    -1.213664958632
C            1.102914809579    -0.114465370602     0.698348256286
H            0.391113868585     0.466899871502     1.288209809683
H            1.464374769749    -0.915800955478     1.351844760601
}

set globals {
  reference rhf
  g_convergence gau_verytight
  basis aug-cc-pvtz
  freeze_core true
  scf_type df
  mp_type df
}
optimize('mp2')
--------------------------------------------------------------------------
/usr/local/hpc5/psi4conda/lib/python2.7/site-packages/v2rdm_casscf/v2rdm_casscf.so loaded.

  Memory set to  60.000 GiB by Python script.
gradient() will perform analytic gradient computation.

*** tstart() called on wr31
*** at Tue Sep 20 23:46:40 2016


         ---------------------------------------------------------
                                   SCF
            by Justin Turney, Rob Parrish, and Andy Simmonett
                              RHF Reference
                       12 Threads,  60000 MiB Core
         ---------------------------------------------------------

  ==> Geometry <==

    Molecular point group: c1
    Full point group: C1

    Geometry (in Angstrom), charge = 0, multiplicity = 1:

       Center              X                  Y                   Z               Mass       
    ------------   -----------------  -----------------  -----------------  -----------------
           C         -1.874942931668     1.756741477203    -0.096399182316    12.000000000000
           H         -2.314745144227     2.533322265938    -0.722763341342     1.007825032070
           H         -0.804332498132     1.737188747852    -0.293132800557     1.007825032070
           H         -2.013495863108     2.051457686269     0.944997571230     1.007825032070
           C          3.389639353895     0.052159251374    -0.421979503772    12.000000000000
           H          3.053232987452    -0.334304186868    -1.383153325620     1.007825032070
           H          3.746652606498    -0.791562097271     0.171181829233     1.007825032070
           H          4.236931352591     0.711150568025    -0.610044671015     1.007825032070
           C         -2.533817305712     0.403714971348    -0.355457783330    12.000000000000
           H         -2.424348393503     0.132224606251    -1.409662712831     1.007825032070
           H         -3.606230737390     0.510928275789    -0.180408392617     1.007825032070
           C          2.272085214962     0.787966524582     0.309707269429    12.000000000000
           H          2.677868456002     1.252705188930     1.211073908312     1.007825032070
           H          1.898854503639     1.603165549528    -0.317328727029     1.007825032070
           C         -1.994052264355    -0.737332625444     0.517526560687    12.000000000000
           H         -2.803307843107    -1.439555642342     0.730138111260     1.007825032070
           H         -1.684251384103    -0.335862843986     1.486190094020     1.007825032070
           C         -0.854082522215    -1.536483419910    -0.118324946218    12.000000000000
           H         -1.244081920971    -2.025600355127    -1.015793852636     1.007825032070
           H         -0.559385634839    -2.338218302669     0.565839084989     1.007825032070
           C          0.390052416695    -0.735393377850    -0.498130582280    12.000000000000
           H          1.078410814373    -1.401047281926    -1.023715424881     1.007825032070
           H          0.123656396945     0.048551040457    -1.213664958632     1.007825032070
           C          1.102914809579    -0.114465370602     0.698348256286    12.000000000000
           H          0.391113868585     0.466899871502     1.288209809683     1.007825032070
           H          1.464374769749    -0.915800955478     1.351844760601     1.007825032070

  Running in c1 symmetry.

  Rotational constants: A =      0.10732  B =      0.03214  C =      0.02754 [cm^-1]
  Rotational constants: A =   3217.48995  B =    963.46125  C =    825.65548 [MHz]
  Nuclear repulsion =  403.196616055025800

  Charge       = 0
  Multiplicity = 1
  Electrons    = 66
  Nalpha       = 33
  Nbeta        = 33

  ==> Algorithm <==

  SCF Algorithm Type is DF.
  DIIS enabled.
  MOM disabled.
  Fractional occupation disabled.
  Guess Type is SAD.
  Energy threshold   = 1.00e-10
  Density threshold  = 1.00e-10
  Integral threshold = 0.00e+00

  ==> Primary Basis <==

  Basis Set: AUG-CC-PVTZ
    Number of shells: 274
    Number of basis function: 782
    Number of Cartesian functions: 890
    Spherical Harmonics?: true
    Max angular momentum: 3

  ==> Pre-Iterations <==

   -------------------------------------------------------
    Irrep   Nso     Nmo     Nalpha   Nbeta   Ndocc  Nsocc
   -------------------------------------------------------
     A        782     782       0       0       0       0
   -------------------------------------------------------
    Total     782     782      33      33      33       0
   -------------------------------------------------------

  ==> Integral Setup <==

  ==> DFJK: Density-Fitted J/K Matrices <==

    J tasked:                  Yes
    K tasked:                  Yes
    wK tasked:                  No
    OpenMP threads:             12
    Integrals threads:          12
    Memory (MB):             42915
    Algorithm:                Core
    Integral Cache:           NONE
    Schwarz Cutoff:          1E-12
    Fitting Condition:       1E-12

   => Auxiliary Basis Set <=

  Basis Set: 
    Number of shells: 492
    Number of basis function: 1660
    Number of Cartesian functions: 2038
    Spherical Harmonics?: true
    Max angular momentum: 4

  Minimum eigenvalue in the overlap matrix is 1.7893966581E-06.
  Using Symmetric Orthogonalization.
  SCF Guess: Superposition of Atomic Densities via on-the-fly atomic UHF.

  ==> Iterations <==

                           Total Energy        Delta E     RMS |[F,P]|

   @DF-RHF iter   0:  -317.01438934421361   -3.17014e+02   7.05137e-03 
   @DF-RHF iter   1:  -313.30226339640279    3.71213e+00   6.73294e-04 
   @DF-RHF iter   2:  -313.50448042532895   -2.02217e-01   2.47608e-04 DIIS
   @DF-RHF iter   3:  -313.53059172334082   -2.61113e-02   1.07991e-04 DIIS
   @DF-RHF iter   4:  -313.53603095946147   -5.43924e-03   1.44536e-05 DIIS
   @DF-RHF iter   5:  -313.53618266497818   -1.51706e-04   3.62131e-06 DIIS
   @DF-RHF iter   6:  -313.53619085687177   -8.19189e-06   1.10440e-06 DIIS
   @DF-RHF iter   7:  -313.53619144586395   -5.88992e-07   2.43702e-07 DIIS
   @DF-RHF iter   8:  -313.53619148438821   -3.85243e-08   6.07399e-08 DIIS
   @DF-RHF iter   9:  -313.53619148687579   -2.48758e-09   1.96068e-08 DIIS
   @DF-RHF iter  10:  -313.53619148711113   -2.35332e-10   5.64150e-09 DIIS
   @DF-RHF iter  11:  -313.53619148713307   -2.19416e-11   1.15594e-09 DIIS
   @DF-RHF iter  12:  -313.53619148713364   -5.68434e-13   3.20687e-10 DIIS
   @DF-RHF iter  13:  -313.53619148713443   -7.95808e-13   1.02111e-10 DIIS
   @DF-RHF iter  14:  -313.53619148713454   -1.13687e-13   2.61626e-11 DIIS

  ==> Post-Iterations <==

    Orbital Energies (a.u.)
    -----------------------

    Doubly Occupied:                                                      

       1A    -11.213168     2A    -11.213155     3A    -11.211111  
       4A    -11.209897     5A    -11.209472     6A    -11.208804  
       7A    -11.206675     8A    -11.206542     9A     -1.094588  
      10A     -1.057762    11A     -1.006448    12A     -0.948356  
      13A     -0.889960    14A     -0.829310    15A     -0.789416  
      16A     -0.751550    17A     -0.648696    18A     -0.624010  
      19A     -0.613213    20A     -0.589878    21A     -0.583951  
      22A     -0.560598    23A     -0.544983    24A     -0.534201  
      25A     -0.512897    26A     -0.500696    27A     -0.492859  
      28A     -0.474211    29A     -0.465853    30A     -0.460952  
      31A     -0.440387    32A     -0.438338    33A     -0.433977  

    Virtual:                                                              

      34A      0.029741    35A      0.032970    36A      0.034417  
      37A      0.034638    38A      0.046435    39A      0.049251  
      40A      0.051354    41A      0.052645    42A      0.055247  
      43A      0.068157    44A      0.068712    45A      0.071370  
      46A      0.076406    47A      0.076448    48A      0.078721  
      49A      0.091934    50A      0.098352    51A      0.104514  
      52A      0.113220    53A      0.116567    54A      0.118085  
      55A      0.125115    56A      0.129181    57A      0.130320  
      58A      0.134477    59A      0.137731    60A      0.142805  
      61A      0.144255    62A      0.148544    63A      0.153336  
      64A      0.155246    65A      0.155589    66A      0.163609  
      67A      0.166863    68A      0.168606    69A      0.170626  
      70A      0.173605    71A      0.177216    72A      0.178789  
      73A      0.182236    74A      0.187028    75A      0.192429  
      76A      0.201268    77A      0.213791    78A      0.216304  
      79A      0.229135    80A      0.232908    81A      0.239484  
      82A      0.243652    83A      0.249354    84A      0.257997  
      85A      0.272461    86A      0.278858    87A      0.283432  
      88A      0.288100    89A      0.295480    90A      0.299569  
      91A      0.303026    92A      0.306107    93A      0.310704  
      94A      0.312954    95A      0.319078    96A      0.322851  
      97A      0.327265    98A      0.331521    99A      0.336642  
     100A      0.338458   101A      0.344009   102A      0.349382  
     103A      0.350368   104A      0.353907   105A      0.355793  
     106A      0.359120   107A      0.363152   108A      0.366191  
     109A      0.367834   110A      0.368891   111A      0.375335  
     112A      0.378403   113A      0.380063   114A      0.385073  
     115A      0.388165   116A      0.391868   117A      0.396540  
     118A      0.401822   119A      0.407301   120A      0.417184  
     121A      0.420445   122A      0.425495   123A      0.427911  
     124A      0.430187   125A      0.436240   126A      0.439461  
     127A      0.446124   128A      0.448426   129A      0.451012  
     130A      0.457205   131A      0.461436   132A      0.462278  
     133A      0.467312   134A      0.473335   135A      0.476607  
     136A      0.480436   137A      0.481788   138A      0.486371  
     139A      0.489696   140A      0.492340   141A      0.492887  
     142A      0.500677   143A      0.504956   144A      0.510277  
     145A      0.510833   146A      0.516281   147A      0.519334  
     148A      0.523936   149A      0.528044   150A      0.530614  
     151A      0.537718   152A      0.538523   153A      0.543537  
     154A      0.550741   155A      0.558162   156A      0.561582  
     157A      0.563683   158A      0.568685   159A      0.573530  
     160A      0.578613   161A      0.581249   162A      0.583800  
     163A      0.588461   164A      0.597074   165A      0.601111  
     166A      0.604464   167A      0.607340   168A      0.613021  
     169A      0.616479   170A      0.625650   171A      0.634649  
     172A      0.636909   173A      0.641739   174A      0.643025  
     175A      0.648768   176A      0.652777   177A      0.656883  
     178A      0.659165   179A      0.660895   180A      0.667401  
     181A      0.673593   182A      0.682730   183A      0.686612  
     184A      0.692386   185A      0.695186   186A      0.704294  
     187A      0.707706   188A      0.712515   189A      0.718710  
     190A      0.722920   191A      0.729079   192A      0.736759  
     193A      0.740516   194A      0.753477   195A      0.756695  
     196A      0.763469   197A      0.769266   198A      0.777056  
     199A      0.793819   200A      0.795279   201A      0.803928  
     202A      0.813223   203A      0.814922   204A      0.822198  
     205A      0.834187   206A      0.838363   207A      0.839704  
     208A      0.850288   209A      0.857785   210A      0.866084  
     211A      0.870444   212A      0.873447   213A      0.876681  
     214A      0.882800   215A      0.895786   216A      0.896933  
     217A      0.904142   218A      0.912557   219A      0.914647  
     220A      0.918676   221A      0.923177   222A      0.928947  
     223A      0.932090   224A      0.937000   225A      0.940249  
     226A      0.950471   227A      0.952178   228A      0.955655  
     229A      0.963945   230A      0.968292   231A      0.975514  
     232A      0.981076   233A      0.982640   234A      0.985733  
     235A      0.993443   236A      0.996474   237A      0.999715  
     238A      1.007697   239A      1.013058   240A      1.017897  
     241A      1.023012   242A      1.028802   243A      1.032104  
     244A      1.036627   245A      1.039365   246A      1.044959  
     247A      1.047750   248A      1.056839   249A      1.067423  
     250A      1.069187   251A      1.072304   252A      1.077890  
     253A      1.082406   254A      1.096549   255A      1.100386  
     256A      1.101368   257A      1.110149   258A      1.117385  
     259A      1.119200   260A      1.121222   261A      1.133402  
     262A      1.137222   263A      1.142146   264A      1.142785  
     265A      1.148624   266A      1.159895   267A      1.162765  
     268A      1.169893   269A      1.177112   270A      1.179373  
     271A      1.187798   272A      1.188814   273A      1.198461  
     274A      1.203369   275A      1.211478   276A      1.213428  
     277A      1.219113   278A      1.222893   279A      1.223949  
     280A      1.226821   281A      1.236374   282A      1.245696  
     283A      1.246941   284A      1.253144   285A      1.257162  
     286A      1.263993   287A      1.268844   288A      1.275097  
     289A      1.282326   290A      1.286635   291A      1.291473  
     292A      1.298370   293A      1.301961   294A      1.313699  
     295A      1.317501   296A      1.329763   297A      1.330762  
     298A      1.334978   299A      1.338647   300A      1.349888  
     301A      1.354453   302A      1.362830   303A      1.371156  
     304A      1.375145   305A      1.383584   306A      1.389005  
     307A      1.392354   308A      1.403263   309A      1.408304  
     310A      1.412651   311A      1.421057   312A      1.430378  
     313A      1.433826   314A      1.438588   315A      1.448724  
     316A      1.453552   317A      1.468592   318A      1.474792  
     319A      1.480951   320A      1.492299   321A      1.497979  
     322A      1.505474   323A      1.506581   324A      1.516420  
     325A      1.520721   326A      1.529811   327A      1.532675  
     328A      1.548250   329A      1.551159   330A      1.553605  
     331A      1.560484   332A      1.571874   333A      1.579933  
     334A      1.584559   335A      1.600041   336A      1.604180  
     337A      1.605660   338A      1.609703   339A      1.620439  
     340A      1.627047   341A      1.636137   342A      1.640992  
     343A      1.648448   344A      1.651850   345A      1.665274  
     346A      1.670838   347A      1.677253   348A      1.682849  
     349A      1.686782   350A      1.699655   351A      1.705495  
     352A      1.709175   353A      1.710042   354A      1.719217  
     355A      1.722811   356A      1.726179   357A      1.728570  
     358A      1.743163   359A      1.753062   360A      1.759961  
     361A      1.761410   362A      1.764225   363A      1.769028  
     364A      1.777908   365A      1.785541   366A      1.799090  
     367A      1.799480   368A      1.803722   369A      1.814501  
     370A      1.822091   371A      1.829883   372A      1.836390  
     373A      1.845763   374A      1.847699   375A      1.855411  
     376A      1.857845   377A      1.861093   378A      1.869389  
     379A      1.878432   380A      1.880591   381A      1.888370  
     382A      1.893331   383A      1.900042   384A      1.906734  
     385A      1.910277   386A      1.910657   387A      1.916718  
     388A      1.930154   389A      1.935187   390A      1.940604  
     391A      1.949497   392A      1.962955   393A      1.968701  
     394A      1.974522   395A      1.979781   396A      1.989606  
     397A      1.993015   398A      2.004993   399A      2.009823  
     400A      2.014808   401A      2.019024   402A      2.025961  
     403A      2.031416   404A      2.036810   405A      2.046886  
     406A      2.053609   407A      2.062766   408A      2.063535  
     409A      2.075508   410A      2.077481   411A      2.098344  
     412A      2.103498   413A      2.111063   414A      2.119782  
     415A      2.125337   416A      2.127649   417A      2.134179  
     418A      2.139579   419A      2.152307   420A      2.163978  
     421A      2.166610   422A      2.175881   423A      2.186117  
     424A      2.186537   425A      2.202714   426A      2.205994  
     427A      2.221584   428A      2.227189   429A      2.231569  
     430A      2.243958   431A      2.247584   432A      2.261627  
     433A      2.271048   434A      2.280072   435A      2.287940  
     436A      2.294140   437A      2.300205   438A      2.308004  
     439A      2.323478   440A      2.327724   441A      2.334645  
     442A      2.344591   443A      2.351156   444A      2.355660  
     445A      2.362993   446A      2.377861   447A      2.389014  
     448A      2.399684   449A      2.411595   450A      2.416692  
     451A      2.425352   452A      2.430996   453A      2.439354  
     454A      2.446173   455A      2.460619   456A      2.476564  
     457A      2.490223   458A      2.492912   459A      2.496230  
     460A      2.502331   461A      2.520202   462A      2.525650  
     463A      2.533686   464A      2.553298   465A      2.568199  
     466A      2.592026   467A      2.595365   468A      2.598685  
     469A      2.604314   470A      2.624004   471A      2.638237  
     472A      2.660655   473A      2.673062   474A      2.680363  
     475A      2.701093   476A      2.707402   477A      2.714359  
     478A      2.728507   479A      2.752673   480A      2.776875  
     481A      2.781040   482A      2.799091   483A      2.809984  
     484A      2.839268   485A      2.927417   486A      2.994164  
     487A      3.004304   488A      3.058883   489A      3.061686  
     490A      3.126110   491A      3.188138   492A      3.254660  
     493A      3.285862   494A      3.329410   495A      3.377099  
     496A      3.401593   497A      3.428536   498A      3.438648  
     499A      3.464951   500A      3.476113   501A      3.494443  
     502A      3.498443   503A      3.522217   504A      3.545138  
     505A      3.555711   506A      3.559282   507A      3.573802  
     508A      3.587918   509A      3.590696   510A      3.601850  
     511A      3.617098   512A      3.621505   513A      3.639660  
     514A      3.648397   515A      3.658032   516A      3.665619  
     517A      3.677829   518A      3.688890   519A      3.705853  
     520A      3.709213   521A      3.715159   522A      3.731626  
     523A      3.740219   524A      3.751352   525A      3.763525  
     526A      3.770963   527A      3.774120   528A      3.790710  
     529A      3.792827   530A      3.803901   531A      3.810000  
     532A      3.819815   533A      3.826083   534A      3.841540  
     535A      3.848516   536A      3.850911   537A      3.857000  
     538A      3.868109   539A      3.871289   540A      3.885914  
     541A      3.894620   542A      3.902254   543A      3.910344  
     544A      3.917697   545A      3.921680   546A      3.940947  
     547A      3.945873   548A      3.950816   549A      3.964147  
     550A      3.969658   551A      3.976619   552A      3.980772  
     553A      3.987528   554A      4.002986   555A      4.005910  
     556A      4.012314   557A      4.017264   558A      4.029671  
     559A      4.037728   560A      4.038378   561A      4.044436  
     562A      4.054740   563A      4.058076   564A      4.070841  
     565A      4.075065   566A      4.085423   567A      4.089499  
     568A      4.102121   569A      4.108079   570A      4.114776  
     571A      4.120310   572A      4.125046   573A      4.135697  
     574A      4.147069   575A      4.153107   576A      4.159385  
     577A      4.166328   578A      4.179553   579A      4.185695  
     580A      4.193060   581A      4.205738   582A      4.216732  
     583A      4.222738   584A      4.233221   585A      4.240996  
     586A      4.251033   587A      4.265695   588A      4.275579  
     589A      4.280703   590A      4.288053   591A      4.296959  
     592A      4.307731   593A      4.318004   594A      4.325153  
     595A      4.333813   596A      4.336499   597A      4.353825  
     598A      4.359613   599A      4.367345   600A      4.384447  
     601A      4.395156   602A      4.407498   603A      4.416710  
     604A      4.423525   605A      4.441684   606A      4.455674  
     607A      4.474758   608A      4.476772   609A      4.484775  
     610A      4.501389   611A      4.523649   612A      4.530350  
     613A      4.535617   614A      4.551714   615A      4.561051  
     616A      4.563042   617A      4.580014   618A      4.607801  
     619A      4.613731   620A      4.630882   621A      4.640887  
     622A      4.656238   623A      4.659980   624A      4.667647  
     625A      4.675819   626A      4.704404   627A      4.711617  
     628A      4.720523   629A      4.740818   630A      4.744260  
     631A      4.757839   632A      4.765678   633A      4.778525  
     634A      4.780451   635A      4.793402   636A      4.806731  
     637A      4.823051   638A      4.823653   639A      4.840736  
     640A      4.842032   641A      4.879318   642A      4.882903  
     643A      4.883915   644A      4.899506   645A      4.905682  
     646A      4.910219   647A      4.919321   648A      4.931176  
     649A      4.950157   650A      4.953080   651A      4.966501  
     652A      4.976952   653A      4.994848   654A      5.003829  
     655A      5.009401   656A      5.016871   657A      5.032165  
     658A      5.053832   659A      5.062794   660A      5.072091  
     661A      5.086359   662A      5.108549   663A      5.114375  
     664A      5.116506   665A      5.139255   666A      5.149473  
     667A      5.155303   668A      5.160944   669A      5.171264  
     670A      5.186864   671A      5.200387   672A      5.218077  
     673A      5.235532   674A      5.242907   675A      5.251746  
     676A      5.266801   677A      5.277172   678A      5.287772  
     679A      5.293102   680A      5.310763   681A      5.317882  
     682A      5.333763   683A      5.335534   684A      5.354954  
     685A      5.370216   686A      5.381352   687A      5.382000  
     688A      5.395131   689A      5.402186   690A      5.418241  
     691A      5.429192   692A      5.430760   693A      5.438564  
     694A      5.457916   695A      5.463121   696A      5.473763  
     697A      5.488635   698A      5.497895   699A      5.509318  
     700A      5.527356   701A      5.536209   702A      5.553077  
     703A      5.560842   704A      5.570529   705A      5.584564  
     706A      5.595606   707A      5.604439   708A      5.614936  
     709A      5.634768   710A      5.644979   711A      5.657191  
     712A      5.671338   713A      5.678357   714A      5.704604  
     715A      5.709755   716A      5.715387   717A      5.722654  
     718A      5.732407   719A      5.738196   720A      5.749667  
     721A      5.766018   722A      5.771793   723A      5.785547  
     724A      5.799229   725A      5.812019   726A      5.846665  
     727A      5.856826   728A      5.861089   729A      5.890086  
     730A      5.899717   731A      5.926775   732A      5.965033  
     733A      5.979615   734A      5.996360   735A      6.035963  
     736A      6.045126   737A      6.057538   738A      6.097951  
     739A      6.111246   740A      6.128122   741A      6.151336  
     742A      6.173347   743A      6.187966   744A      6.201121  
     745A      6.224850   746A      6.233690   747A      6.262663  
     748A      6.295672   749A      6.307786   750A      6.316033  
     751A      6.329996   752A      6.344035   753A      6.356933  
     754A      6.373420   755A      6.382836   756A      6.409855  
     757A      6.468314   758A      6.481557   759A      6.601385  
     760A      6.655519   761A      6.663540   762A      6.701962  
     763A      6.748904   764A      6.777372   765A      6.809246  
     766A      6.860875   767A      6.918799   768A      6.953734  
     769A      6.983110   770A      7.012524   771A      7.057752  
     772A      7.097447   773A      7.100662   774A      7.181073  
     775A     18.032340   776A     18.198587   777A     18.337899  
     778A     18.554865   779A     18.711250   780A     19.191347  
     781A     19.446279   782A     19.942075  

    Final Occupation by Irrep:
              A 
    DOCC [    33 ]

  Energy converged.

  @DF-RHF Final Energy:  -313.53619148713454

   => Energetics <=

    Nuclear Repulsion Energy =            403.1966160550257996
    One-Electron Energy =               -1221.5337921801253742
    Two-Electron Energy =                 504.8009846379646888
    DFT Exchange-Correlation Energy =       0.0000000000000000
    Empirical Dispersion Energy =           0.0000000000000000
    PCM Polarization Energy =               0.0000000000000000
    EFP Energy =                            0.0000000000000000
    Total Energy =                       -313.5361914871349427


  Saving occupied orbitals to File 180.

*** tstop() called on wr31 at Tue Sep 20 23:48:03 2016
Module time:
	user time   =     839.32 seconds =      13.99 minutes
	system time =      11.26 seconds =       0.19 minutes
	total time  =         83 seconds =       1.38 minutes
Total time:
	user time   =     839.32 seconds =      13.99 minutes
	system time =      11.26 seconds =       0.19 minutes
	total time  =         83 seconds =       1.38 minutes


Properties will be evaluated at   0.000000,   0.000000,   0.000000 Bohr

Properties computed using the SCF density matrix

  Nuclear Dipole Moment: (a.u.)
     X:     1.1408      Y:     1.3740      Z:    -0.3939

  Electronic Dipole Moment: (a.u.)
     X:    -1.1693      Y:    -1.3902      Z:     0.4025

  Dipole Moment: (a.u.)
     X:    -0.0285      Y:    -0.0162      Z:     0.0086     Total:     0.0339

  Dipole Moment: (Debye)
     X:    -0.0725      Y:    -0.0411      Z:     0.0219     Total:     0.0862


  //>>>>>>>>>>>>>>>>>>>>>>>>>>>>>>>>>>>//
  //               DFMP2               //
  //<<<<<<<<<<<<<<<<<<<<<<<<<<<<<<<<<<<//


*** tstart() called on wr31
*** at Tue Sep 20 23:48:03 2016


*** tstop() called on wr31 at Tue Sep 20 23:48:03 2016
Module time:
	user time   =       3.49 seconds =       0.06 minutes
	system time =       0.02 seconds =       0.00 minutes
	total time  =          0 seconds =       0.00 minutes
Total time:
	user time   =     844.49 seconds =      14.07 minutes
	system time =      11.35 seconds =       0.19 minutes
	total time  =         83 seconds =       1.38 minutes
	 --------------------------------------------------------
	                          DF-MP2                         
	      2nd-Order Density-Fitted Moller-Plesset Theory     
	              RMP2 Wavefunction,  12 Threads             
	                                                         
	        Rob Parrish, Justin Turney, Andy Simmonett,      
	           Ed Hohenstein, and C. David Sherrill          
	 --------------------------------------------------------

   => Auxiliary Basis Set <=

  Basis Set: 
    Number of shells: 476
    Number of basis function: 1676
    Number of Cartesian functions: 2078
    Spherical Harmonics?: true
    Max angular momentum: 4

	 --------------------------------------------------------
	                 NBF =   782, NAUX =  1676
	 --------------------------------------------------------
	   CLASS    FOCC     OCC    AOCC    AVIR     VIR    FVIR
	   PAIRS       8      33      25     749     749       0
	 --------------------------------------------------------

DGAS Warning! /src/lib/libfock/apps.cc:80 is not currently checking restricted

         ------------------------------------------------------------
                                     CPHF                           
                                  Rob Parrish                       
         ------------------------------------------------------------

  ==> Geometry <==

    Molecular point group: c1
    Full point group: C1

    Geometry (in Angstrom), charge = 0, multiplicity = 1:

       Center              X                  Y                   Z               Mass       
    ------------   -----------------  -----------------  -----------------  -----------------
           C         -1.874942931668     1.756741477203    -0.096399182316    12.000000000000
           H         -2.314745144227     2.533322265938    -0.722763341342     1.007825032070
           H         -0.804332498132     1.737188747852    -0.293132800557     1.007825032070
           H         -2.013495863108     2.051457686269     0.944997571230     1.007825032070
           C          3.389639353895     0.052159251374    -0.421979503772    12.000000000000
           H          3.053232987452    -0.334304186868    -1.383153325620     1.007825032070
           H          3.746652606498    -0.791562097271     0.171181829233     1.007825032070
           H          4.236931352591     0.711150568025    -0.610044671015     1.007825032070
           C         -2.533817305712     0.403714971348    -0.355457783330    12.000000000000
           H         -2.424348393503     0.132224606251    -1.409662712831     1.007825032070
           H         -3.606230737390     0.510928275789    -0.180408392617     1.007825032070
           C          2.272085214962     0.787966524582     0.309707269429    12.000000000000
           H          2.677868456002     1.252705188930     1.211073908312     1.007825032070
           H          1.898854503639     1.603165549528    -0.317328727029     1.007825032070
           C         -1.994052264355    -0.737332625444     0.517526560687    12.000000000000
           H         -2.803307843107    -1.439555642342     0.730138111260     1.007825032070
           H         -1.684251384103    -0.335862843986     1.486190094020     1.007825032070
           C         -0.854082522215    -1.536483419910    -0.118324946218    12.000000000000
           H         -1.244081920971    -2.025600355127    -1.015793852636     1.007825032070
           H         -0.559385634839    -2.338218302669     0.565839084989     1.007825032070
           C          0.390052416695    -0.735393377850    -0.498130582280    12.000000000000
           H          1.078410814373    -1.401047281926    -1.023715424881     1.007825032070
           H          0.123656396945     0.048551040457    -1.213664958632     1.007825032070
           C          1.102914809579    -0.114465370602     0.698348256286    12.000000000000
           H          0.391113868585     0.466899871502     1.288209809683     1.007825032070
           H          1.464374769749    -0.915800955478     1.351844760601     1.007825032070

  Nuclear repulsion =  403.196616055025800
  Reference energy  = -313.536191487134545

  ==> Basis Set <==

  Basis Set: AUG-CC-PVTZ
    Number of shells: 274
    Number of basis function: 782
    Number of Cartesian functions: 890
    Spherical Harmonics?: true
    Max angular momentum: 3

  ==> CGRSolver (by Rob Parrish) <==

   Number of roots    =         1
   Preconditioning    =    JACOBI
   Convergence cutoff =     1E-06
   Maximum iterations =       100

  ==> CPHFRHamiltonian (by Rob Parrish) <== 

  ==> DFJK: Density-Fitted J/K Matrices <==

    J tasked:                  Yes
    K tasked:                  Yes
    wK tasked:                  No
    OpenMP threads:             12
    Integrals threads:          12
    Memory (MB):             42915
    Algorithm:                Core
    Integral Cache:           NONE
    Schwarz Cutoff:          1E-12
    Fitting Condition:       1E-12

   => Auxiliary Basis Set <=

  Basis Set: 
    Number of shells: 492
    Number of basis function: 1660
    Number of Cartesian functions: 2038
    Spherical Harmonics?: true
    Max angular momentum: 4

  ==> CPHF Iterations <==

  => Iterations <=

             Iter  Converged  Remaining    Residual
  CGR           1          0          1   9.306E-02
  CGR           2          0          1   1.342E-02
  CGR           3          0          1   3.943E-03
  CGR           4          0          1   9.037E-04
  CGR           5          0          1   2.191E-04
  CGR           6          0          1   4.672E-05
  CGR           7          0          1   1.403E-05
  CGR           8          0          1   3.221E-06
  CGR           9          1          0   8.759E-07

    CGRSolver converged.

  ==> DFCorrGrad: Density-Fitted Correlated Gradients <==

    OpenMP threads:             12
    Integrals threads:          12
    Memory (MB):             42915
    Schwarz Cutoff:          0E+00
    Fitting Condition:       1E-12

   => Auxiliary Basis Set <=

  Basis Set: 
    Number of shells: 492
    Number of basis function: 1660
    Number of Cartesian functions: 2038
    Spherical Harmonics?: true
    Max angular momentum: 4

	-----------------------------------------------------------
	 ==================> DF-MP2 Energies <==================== 
	-----------------------------------------------------------
	 Reference Energy          =    -313.5361914871345448 [Eh]
	 Singles Energy            =      -0.0000000000000000 [Eh]
	 Same-Spin Energy          =      -0.3173532178177550 [Eh]
	 Opposite-Spin Energy      =      -1.1269606043824771 [Eh]
	 Correlation Energy        =      -1.4443138222002321 [Eh]
	 Total Energy              =    -314.9805053093347738 [Eh]
	-----------------------------------------------------------
	 ================> DF-SCS-MP2 Energies <================== 
	-----------------------------------------------------------
	 SCS Same-Spin Scale       =       0.3333333333333333 [-]
	 SCS Opposite-Spin Scale   =       1.2000000000000000 [-]
	 SCS Same-Spin Energy      =      -0.1057844059392517 [Eh]
	 SCS Opposite-Spin Energy  =      -1.3523527252589724 [Eh]
	 SCS Correlation Energy    =      -1.4581371311982241 [Eh]
	 SCS Total Energy          =    -314.9943286183327587 [Eh]
	-----------------------------------------------------------


  -Total Gradient:
     Atom            X                  Y                   Z
    ------   -----------------  -----------------  -----------------
       1        0.000000175992     0.000000830304     0.000000177575
       2        0.000000261402    -0.000000231654     0.000000290573
       3       -0.000000738990    -0.000000319657    -0.000000050827
       4        0.000000028088    -0.000000092155    -0.000000474800
       5        0.000000529145    -0.000000545225    -0.000000566401
       6        0.000000058943     0.000000328061     0.000000737635
       7       -0.000000363663     0.000000764792    -0.000000329561
       8       -0.000000696172    -0.000000497384     0.000000081630
       9        0.000000310315    -0.000000541581    -0.000000523366
      10       -0.000000115822     0.000000104459     0.000000586495
      11        0.000000358837    -0.000000197756    -0.000000097331
      12       -0.000000228669     0.000001377927     0.000000618972
      13       -0.000000630070    -0.000000471639    -0.000000887582
      14        0.000000322282    -0.000000938291     0.000000647075
      15       -0.000000251351     0.000000178235     0.000000894241
      16        0.000000264761     0.000000323215     0.000000014235
      17       -0.000000166240    -0.000000332424    -0.000000811598
      18        0.000000562868    -0.000000055358     0.000000175760
      19        0.000000256631     0.000000216198     0.000000539047
      20       -0.000000246149     0.000000480667    -0.000000368338
      21        0.000000656896     0.000000789896    -0.000001656880
      22       -0.000000509825     0.000000386532     0.000000094174
      23        0.000000551463    -0.000000845212     0.000001050893
      24       -0.000001276356    -0.000000834344     0.000001450331
      25        0.000001394454    -0.000000668390    -0.000001029383
      26       -0.000000508770     0.000000790785    -0.000000562569


			-----------------------------------------
			 OPTKING 2.0: for geometry optimizations 
			  - R.A. King,  Bethel University        
			-----------------------------------------

	Internal coordinates to be generated automatically.
	Detected frag 1 with atoms:  1 2 3 4 5 6 7 8 9 10 11 12 13 14 15 16 17 18 19 20
	 21 22 23 24 25 26
	---Fragment 1 Bond Connectivity---
	 1 : 2 3 4 9
	 2 : 1
	 3 : 1
	 4 : 1
	 5 : 6 7 8 12
	 6 : 5
	 7 : 5
	 8 : 5
	 9 : 1 10 11 15
	 10 : 9
	 11 : 9
	 12 : 5 13 14 24
	 13 : 12
	 14 : 12
	 15 : 9 16 17 18
	 16 : 15
	 17 : 15
	 18 : 15 19 20 21
	 19 : 18
	 20 : 18
	 21 : 18 22 23 24
	 22 : 21
	 23 : 21
	 24 : 12 21 25 26
	 25 : 24
	 26 : 24

	---Fragment 1 Geometry and Gradient---
	 C          -3.5431286556        3.3197602782       -0.1821680540
	 H          -4.3742343900        4.7872852890       -1.3658247740
	 H          -1.5199681412        3.2828109746       -0.5539407136
	 H          -3.8049557510        3.8766932003        1.7857866059
	 C           6.4054900681        0.0985667004       -0.7974256958
	 H           5.7697741662       -0.6317433583       -2.6137809852
	 H           7.0801473413       -1.4958355810        0.3234867762
	 H           8.0066399002        1.3438798128       -1.1528173570
	 C          -4.7882207786        0.7629107316       -0.6717178623
	 H          -4.5813545144        0.2498682938       -2.6638764670
	 H          -6.8147884657        0.9655145148       -0.3409224541
	 C           4.2936188069        1.4890409333        0.5852619206
	 H           5.0604380017        2.3672697323        2.2885980134
	 H           3.5883149781        3.0295438343       -0.5996643882
	 C          -3.7682126743       -1.3933567309        0.9779834662
	 H          -5.2974840896       -2.7203659171        1.3797610695
	 H          -3.1827738549       -0.6346887933        2.8084922591
	 C          -1.6139820619       -2.9035328713       -0.2236017430
	 H          -2.3509741175       -3.8278299259       -1.9195721890
	 H          -1.0570856525       -4.4185922309        1.0692809059
	 C           0.7370922450       -1.3896920841       -0.9413303789
	 H           2.0379010979       -2.6475956621       -1.9345417910
	 H           0.2336767248        0.0917481699       -2.2934943889
	 C           2.0842069380       -0.2163082021        1.3196869498
	 H           0.7390980984        0.8823128886        2.4343637420
	 H           2.7672672707       -1.7306129981        2.5546163717
	             0.0000001760        0.0000008303        0.0000001776
	             0.0000002614       -0.0000002317        0.0000002906
	            -0.0000007390       -0.0000003197       -0.0000000508
	             0.0000000281       -0.0000000922       -0.0000004748
	             0.0000005291       -0.0000005452       -0.0000005664
	             0.0000000589        0.0000003281        0.0000007376
	            -0.0000003637        0.0000007648       -0.0000003296
	            -0.0000006962       -0.0000004974        0.0000000816
	             0.0000003103       -0.0000005416       -0.0000005234
	            -0.0000001158        0.0000001045        0.0000005865
	             0.0000003588       -0.0000001978       -0.0000000973
	            -0.0000002287        0.0000013779        0.0000006190
	            -0.0000006301       -0.0000004716       -0.0000008876
	             0.0000003223       -0.0000009383        0.0000006471
	            -0.0000002514        0.0000001782        0.0000008942
	             0.0000002648        0.0000003232        0.0000000142
	            -0.0000001662       -0.0000003324       -0.0000008116
	             0.0000005629       -0.0000000554        0.0000001758
	             0.0000002566        0.0000002162        0.0000005390
	            -0.0000002461        0.0000004807       -0.0000003683
	             0.0000006569        0.0000007899       -0.0000016569
	            -0.0000005098        0.0000003865        0.0000000942
	             0.0000005515       -0.0000008452        0.0000010509
	            -0.0000012764       -0.0000008343        0.0000014503
	             0.0000013945       -0.0000006684       -0.0000010294
	            -0.0000005088        0.0000007908       -0.0000005626

	Previous optimization step data not found.  Starting new optimization.

	---Fragment 1 Intrafragment Coordinates---
	 - Coordinate -           - BOHR/RAD -       - ANG/DEG -
	 R(1,2)           =         2.060439	       1.090337
	 R(1,3)           =         2.057367	       1.088712
	 R(1,4)           =         2.061934	       1.091129
	 R(1,9)           =         2.885722	       1.527058
	 R(5,6)           =         2.058309	       1.089210
	 R(5,7)           =         2.062456	       1.091405
	 R(5,8)           =         2.059318	       1.089744
	 R(5,12)          =         2.881882	       1.525026
	 R(9,10)          =         2.067535	       1.094093
	 R(9,11)          =         2.063359	       1.091883
	 R(9,15)          =         2.900245	       1.534743
	 R(12,13)         =         2.064135	       1.092293
	 R(12,14)         =         2.067523	       1.094086
	 R(12,24)         =         2.886017	       1.527215
	 R(15,16)         =         2.064231	       1.092344
	 R(15,17)         =         2.066175	       1.093373
	 R(15,18)         =         2.892257	       1.530516
	 R(18,19)         =         2.067317	       1.093977
	 R(18,20)         =         2.068111	       1.094397
	 R(18,21)         =         2.886936	       1.527701
	 R(21,22)         =         2.064193	       1.092324
	 R(21,23)         =         2.067955	       1.094315
	 R(21,24)         =         2.881622	       1.524889
	 R(24,25)         =         2.063684	       1.092054
	 R(24,26)         =         2.069962	       1.095377
	 B(1,9,10)        =         1.917876	     109.886193
	 B(1,9,11)        =         1.885542	     108.033606
	 B(1,9,15)        =         1.993804	     114.236535
	 B(2,1,3)         =         1.881407	     107.796685
	 B(2,1,4)         =         1.880407	     107.739391
	 B(2,1,9)         =         1.938608	     111.074073
	 B(3,1,4)         =         1.877783	     107.589064
	 B(3,1,9)         =         1.958134	     112.192802
	 B(4,1,9)         =         1.924575	     110.270030
	 B(5,12,13)       =         1.906010	     109.206316
	 B(5,12,14)       =         1.911886	     109.543020
	 B(5,12,24)       =         1.980132	     113.453204
	 B(6,5,7)         =         1.882140	     107.838684
	 B(6,5,8)         =         1.878015	     107.602340
	 B(6,5,12)        =         1.947921	     111.607657
	 B(7,5,8)         =         1.882776	     107.875115
	 B(7,5,12)        =         1.930448	     110.606509
	 B(8,5,12)        =         1.939922	     111.149322
	 B(9,15,16)       =         1.905100	     109.154198
	 B(9,15,17)       =         1.907729	     109.304817
	 B(9,15,18)       =         1.997468	     114.446476
	 B(10,9,11)       =         1.851581	     106.087793
	 B(10,9,15)       =         1.905406	     109.171696
	 B(11,9,15)       =         1.904175	     109.101188
	 B(12,24,21)      =         1.981034	     113.504891
	 B(12,24,25)      =         1.898502	     108.776168
	 B(12,24,26)      =         1.908664	     109.358391
	 B(13,12,14)      =         1.857353	     106.418485
	 B(13,12,24)      =         1.902672	     109.015078
	 B(14,12,24)      =         1.901770	     108.963371
	 B(15,18,19)      =         1.884670	     107.983637
	 B(15,18,20)      =         1.900075	     108.866251
	 B(15,18,21)      =         2.022013	     115.852808
	 B(16,15,17)      =         1.847851	     105.874072
	 B(16,15,18)      =         1.872342	     107.277312
	 B(17,15,18)      =         1.927027	     110.410536
	 B(18,21,22)      =         1.889440	     108.256935
	 B(18,21,23)      =         1.917671	     109.874482
	 B(18,21,24)      =         1.981403	     113.526058
	 B(19,18,20)      =         1.855963	     106.338822
	 B(19,18,21)      =         1.897390	     108.712459
	 B(20,18,21)      =         1.896814	     108.679449
	 B(21,24,25)      =         1.913335	     109.626010
	 B(21,24,26)      =         1.901262	     108.934306
	 B(22,21,23)      =         1.849749	     105.982819
	 B(22,21,24)      =         1.908243	     109.334287
	 B(23,21,24)      =         1.912551	     109.581102
	 B(25,24,26)      =         1.856981	     106.397197
	 D(1,9,15,16)     =         2.563764	     146.892883
	 D(1,9,15,17)     =         0.550164	      31.522100
	 D(1,9,15,18)     =        -1.621251	     -92.890830
	 D(2,1,9,10)      =         1.020669	      58.480014
	 D(2,1,9,11)      =        -0.992042	     -56.839846
	 D(2,1,9,15)      =        -3.114350	    -178.439090
	 D(3,1,9,10)      =        -1.086424	     -62.247503
	 D(3,1,9,11)      =        -3.099135	    -177.567363
	 D(3,1,9,15)      =         1.061743	      60.833393
	 D(4,1,9,10)      =         3.104013	     177.846858
	 D(4,1,9,11)      =         1.091302	      62.526997
	 D(4,1,9,15)      =        -1.031005	     -59.072247
	 D(5,12,24,21)    =        -1.089992	     -62.451942
	 D(5,12,24,25)    =         3.058230	     175.223656
	 D(5,12,24,26)    =         1.036871	      59.408354
	 D(6,5,12,13)     =        -3.032505	    -173.749758
	 D(6,5,12,14)     =        -1.004703	     -57.565261
	 D(6,5,12,24)     =         1.124553	      64.432114
	 D(7,5,12,13)     =         1.155195	      66.187803
	 D(7,5,12,14)     =        -3.100188	    -177.627700
	 D(7,5,12,24)     =        -0.970932	     -55.630325
	 D(8,5,12,13)     =        -0.935817	     -53.618363
	 D(8,5,12,14)     =         1.091985	      62.566135
	 D(8,5,12,24)     =        -3.061944	    -175.436490
	 D(9,15,18,19)    =        -1.106952	     -63.423696
	 D(9,15,18,20)    =        -3.115034	    -178.478304
	 D(9,15,18,21)    =         1.024921	      58.723669
	 D(10,9,15,16)    =        -1.564514	     -89.640037
	 D(10,9,15,17)    =         2.705071	     154.989180
	 D(10,9,15,18)    =         0.533656	      30.576250
	 D(11,9,15,16)    =         0.451750	      25.883350
	 D(11,9,15,17)    =        -1.561850	     -89.487433
	 D(11,9,15,18)    =         2.549920	     146.099637
	 D(12,24,21,18)   =        -3.051342	    -174.829046
	 D(12,24,21,22)   =         1.120211	      64.183382
	 D(12,24,21,23)   =        -0.900096	     -51.571715
	 D(13,12,24,21)   =         3.065206	     175.623358
	 D(13,12,24,25)   =         0.930242	      53.298956
	 D(13,12,24,26)   =        -1.091116	     -62.516346
	 D(14,12,24,21)   =         1.044884	      59.867453
	 D(14,12,24,25)   =        -1.090079	     -62.456949
	 D(14,12,24,26)   =        -3.111438	    -178.272251
	 D(15,18,21,22)   =        -3.047723	    -174.621674
	 D(15,18,21,23)   =        -1.035137	     -59.308995
	 D(15,18,21,24)   =         1.113301	      63.787423
	 D(16,15,18,19)   =         1.009349	      57.831439
	 D(16,15,18,20)   =        -0.998733	     -57.223169
	 D(16,15,18,21)   =         3.141223	     179.978804
	 D(17,15,18,19)   =         3.015105	     172.752808
	 D(17,15,18,20)   =         1.007024	      57.698199
	 D(17,15,18,21)   =        -1.136206	     -65.099828
	 D(18,21,24,25)   =        -0.924617	     -52.976670
	 D(18,21,24,26)   =         1.100863	      63.074830
	 D(19,18,21,22)   =        -0.922613	     -52.861833
	 D(19,18,21,23)   =         1.089973	      62.450846
	 D(19,18,21,24)   =        -3.044775	    -174.452736
	 D(20,18,21,22)   =         1.090516	      62.481953
	 D(20,18,21,23)   =         3.103102	     177.794632
	 D(20,18,21,24)   =        -1.031646	     -59.108950
	 D(22,21,24,25)   =        -3.036249	    -173.964242
	 D(22,21,24,26)   =        -1.010768	     -57.912742
	 D(23,21,24,25)   =         1.226629	      70.280661
	 D(23,21,24,26)   =        -3.031076	    -173.667839
	 R(1,21)          =         6.409022	       3.391508
	 R(1,24)          =         6.813681	       3.605645

	Current energy   :      -314.9805053093

	Generating empirical Hessian (Schlegel '84) for each fragment.
	Taking RFO optimization step.
	Going to follow RFO solution 1.
	Using RFO vector 1.
	Norm of target step-size    0.00020
	Projected energy change by RFO approximation:        -0.0000000007

	Back-transformation to cartesian coordinates...
	Successfully converged to displaced geometry.

	--- Internal Coordinate Step in ANG or DEG, aJ/ANG or AJ/DEG ---
	 ---------------------------------------------------------------------------
	   Coordinate                Previous        Force       Change         New 
	   ----------                --------       ------       ------       ------
	    1 R(1,2)          =      1.090337     0.000004     0.000001     1.090338
	    2 R(1,3)          =      1.088712     0.000006     0.000001     1.088713
	    3 R(1,4)          =      1.091129     0.000004     0.000001     1.091129
	    4 R(1,9)          =      1.527058    -0.000001    -0.000000     1.527058
	    5 R(5,6)          =      1.089210     0.000006     0.000001     1.089211
	    6 R(5,7)          =      1.091405     0.000007     0.000001     1.091406
	    7 R(5,8)          =      1.089744     0.000007     0.000001     1.089745
	    8 R(5,12)         =      1.525026     0.000002     0.000001     1.525027
	    9 R(9,10)         =      1.094093     0.000005     0.000001     1.094093
	   10 R(9,11)         =      1.091883     0.000003     0.000001     1.091883
	   11 R(9,15)         =      1.534743     0.000002     0.000001     1.534744
	   12 R(12,13)        =      1.092293     0.000010     0.000002     1.092295
	   13 R(12,14)        =      1.094086     0.000010     0.000002     1.094088
	   14 R(12,24)        =      1.527215     0.000007     0.000002     1.527216
	   15 R(15,16)        =      1.092344     0.000003     0.000001     1.092345
	   16 R(15,17)        =      1.093373     0.000007     0.000001     1.093374
	   17 R(15,18)        =      1.530516     0.000000     0.000000     1.530517
	   18 R(18,19)        =      1.093977     0.000005     0.000001     1.093978
	   19 R(18,20)        =      1.094397     0.000005     0.000001     1.094398
	   20 R(18,21)        =      1.527701     0.000005     0.000001     1.527702
	   21 R(21,22)        =      1.092324     0.000005     0.000001     1.092325
	   22 R(21,23)        =      1.094315     0.000012     0.000002     1.094317
	   23 R(21,24)        =      1.524889     0.000007     0.000002     1.524891
	   24 R(24,25)        =      1.092054     0.000015     0.000003     1.092057
	   25 R(24,26)        =      1.095377     0.000009     0.000002     1.095378
	   26 B(1,9,10)       =    109.886193     0.000000    -0.000019   109.886174
	   27 B(1,9,11)       =    108.033606     0.000000    -0.000062   108.033544
	   28 B(1,9,15)       =    114.236535    -0.000000    -0.000023   114.236513
	   29 B(2,1,3)        =    107.796685    -0.000000     0.000003   107.796688
	   30 B(2,1,4)        =    107.739391     0.000000    -0.000015   107.739376
	   31 B(2,1,9)        =    111.074073    -0.000000    -0.000106   111.073967
	   32 B(3,1,4)        =    107.589064    -0.000000    -0.000063   107.589001
	   33 B(3,1,9)        =    112.192802     0.000000     0.000238   112.193040
	   34 B(4,1,9)        =    110.270030    -0.000000    -0.000064   110.269965
	   35 B(5,12,13)      =    109.206316    -0.000000    -0.000269   109.206047
	   36 B(5,12,14)      =    109.543020    -0.000000     0.000089   109.543109
	   37 B(5,12,24)      =    113.453204     0.000000     0.000193   113.453397
	   38 B(6,5,7)        =    107.838684    -0.000000    -0.000045   107.838639
	   39 B(6,5,8)        =    107.602340    -0.000000    -0.000027   107.602313
	   40 B(6,5,12)       =    111.607657     0.000000     0.000104   111.607761
	   41 B(7,5,8)        =    107.875115    -0.000000    -0.000052   107.875064
	   42 B(7,5,12)       =    110.606509     0.000000     0.000070   110.606579
	   43 B(8,5,12)       =    111.149322    -0.000000    -0.000057   111.149265
	   44 B(9,15,16)      =    109.154198     0.000000    -0.000039   109.154159
	   45 B(9,15,17)      =    109.304817    -0.000000    -0.000022   109.304795
	   46 B(9,15,18)      =    114.446476     0.000000     0.000138   114.446614
	   47 B(10,9,11)      =    106.087793    -0.000000     0.000039   106.087832
	   48 B(10,9,15)      =    109.171696     0.000000     0.000010   109.171706
	   49 B(11,9,15)      =    109.101188     0.000000     0.000059   109.101247
	   50 B(12,24,21)     =    113.504891     0.000000     0.000214   113.505106
	   51 B(12,24,25)     =    108.776168     0.000000     0.000228   108.776396
	   52 B(12,24,26)     =    109.358391    -0.000000    -0.000221   109.358170
	   53 B(13,12,14)     =    106.418485     0.000000    -0.000054   106.418430
	   54 B(13,12,24)     =    109.015078    -0.000000    -0.000097   109.014982
	   55 B(14,12,24)     =    108.963371    -0.000000     0.000123   108.963493
	   56 B(15,18,19)     =    107.983637     0.000000    -0.000097   107.983541
	   57 B(15,18,20)     =    108.866251    -0.000000     0.000059   108.866310
	   58 B(15,18,21)     =    115.852808    -0.000000     0.000141   115.852949
	   59 B(16,15,17)     =    105.874072     0.000000    -0.000015   105.874057
	   60 B(16,15,18)     =    107.277312    -0.000000    -0.000121   107.277191
	   61 B(17,15,18)     =    110.410536    -0.000000     0.000046   110.410581
	   62 B(18,21,22)     =    108.256935    -0.000000    -0.000199   108.256736
	   63 B(18,21,23)     =    109.874482    -0.000000    -0.000116   109.874365
	   64 B(18,21,24)     =    113.526058     0.000000     0.000546   113.526604
	   65 B(19,18,20)     =    106.338822     0.000000    -0.000010   106.338812
	   66 B(19,18,21)     =    108.712459    -0.000000    -0.000109   108.712350
	   67 B(20,18,21)     =    108.679449     0.000000     0.000004   108.679453
	   68 B(21,24,25)     =    109.626010    -0.000000    -0.000095   109.625915
	   69 B(21,24,26)     =    108.934306    -0.000000    -0.000090   108.934216
	   70 B(22,21,23)     =    105.982819     0.000000    -0.000065   105.982754
	   71 B(22,21,24)     =    109.334287    -0.000000    -0.000312   109.333975
	   72 B(23,21,24)     =    109.581102    -0.000000     0.000099   109.581202
	   73 B(25,24,26)     =    106.397197     0.000000    -0.000054   106.397143
	   74 D(1,9,15,16)    =    146.892883    -0.000000    -0.000946   146.891937
	   75 D(1,9,15,17)    =     31.522100     0.000000    -0.000894    31.521206
	   76 D(1,9,15,18)    =    -92.890830     0.000000    -0.001038   -92.891868
	   77 D(2,1,9,10)     =     58.480014     0.000000    -0.000206    58.479808
	   78 D(2,1,9,11)     =    -56.839846     0.000000    -0.000209   -56.840055
	   79 D(2,1,9,15)     =   -178.439090     0.000000    -0.000224  -178.439315
	   80 D(3,1,9,10)     =    -62.247503     0.000000    -0.000300   -62.247803
	   81 D(3,1,9,11)     =   -177.567363    -0.000000    -0.000303  -177.567666
	   82 D(3,1,9,15)     =     60.833393    -0.000000    -0.000318    60.833075
	   83 D(4,1,9,10)     =    177.846858    -0.000000    -0.000334   177.846524
	   84 D(4,1,9,11)     =     62.526997    -0.000000    -0.000337    62.526660
	   85 D(4,1,9,15)     =    -59.072247    -0.000000    -0.000352   -59.072599
	   86 D(5,12,24,21)   =    -62.451942    -0.000000    -0.002439   -62.454381
	   87 D(5,12,24,25)   =    175.223656    -0.000000    -0.002629   175.221027
	   88 D(5,12,24,26)   =     59.408354    -0.000000    -0.002570    59.405784
	   89 D(6,5,12,13)    =   -173.749758     0.000000     0.001283  -173.748475
	   90 D(6,5,12,14)    =    -57.565261    -0.000000     0.001115   -57.564146
	   91 D(6,5,12,24)    =     64.432114     0.000000     0.001472    64.433586
	   92 D(7,5,12,13)    =     66.187803     0.000000     0.001224    66.189027
	   93 D(7,5,12,14)    =   -177.627700    -0.000000     0.001056  -177.626643
	   94 D(7,5,12,24)    =    -55.630325     0.000000     0.001413   -55.628912
	   95 D(8,5,12,13)    =    -53.618363     0.000000     0.001280   -53.617083
	   96 D(8,5,12,14)    =     62.566135    -0.000000     0.001112    62.567247
	   97 D(8,5,12,24)    =   -175.436490     0.000000     0.001469  -175.435022
	   98 D(9,15,18,19)   =    -63.423696    -0.000000    -0.001909   -63.425605
	   99 D(9,15,18,20)   =   -178.478304    -0.000000    -0.001877  -178.480181
	  100 D(9,15,18,21)   =     58.723669    -0.000000    -0.002030    58.721639
	  101 D(10,9,15,16)   =    -89.640037    -0.000000    -0.000979   -89.641016
	  102 D(10,9,15,17)   =    154.989180    -0.000000    -0.000927   154.988253
	  103 D(10,9,15,18)   =     30.576250    -0.000000    -0.001071    30.575179
	  104 D(11,9,15,16)   =     25.883350     0.000000    -0.000894    25.882456
	  105 D(11,9,15,17)   =    -89.487433     0.000000    -0.000842   -89.488275
	  106 D(11,9,15,18)   =    146.099637     0.000000    -0.000986   146.098650
	  107 D(12,24,21,18)  =   -174.829046    -0.000000    -0.001715  -174.830761
	  108 D(12,24,21,22)  =     64.183382    -0.000000    -0.001602    64.181780
	  109 D(12,24,21,23)  =    -51.571715    -0.000000    -0.001404   -51.573119
	  110 D(13,12,24,21)  =    175.623358    -0.000000    -0.002154   175.621204
	  111 D(13,12,24,25)  =     53.298956    -0.000000    -0.002344    53.296612
	  112 D(13,12,24,26)  =    -62.516346     0.000000    -0.002285   -62.518631
	  113 D(14,12,24,21)  =     59.867453     0.000000    -0.002104    59.865349
	  114 D(14,12,24,25)  =    -62.456949     0.000000    -0.002293   -62.459243
	  115 D(14,12,24,26)  =   -178.272251     0.000000    -0.002235  -178.274485
	  116 D(15,18,21,22)  =   -174.621674    -0.000000     0.000116  -174.621558
	  117 D(15,18,21,23)  =    -59.308995    -0.000000    -0.000135   -59.309130
	  118 D(15,18,21,24)  =     63.787423    -0.000000     0.000297    63.787720
	  119 D(16,15,18,19)  =     57.831439     0.000000    -0.001958    57.829482
	  120 D(16,15,18,20)  =    -57.223169    -0.000000    -0.001926   -57.225095
	  121 D(16,15,18,21)  =    179.978804    -0.000000    -0.002079   179.976725
	  122 D(17,15,18,19)  =    172.752808    -0.000000    -0.002019   172.750788
	  123 D(17,15,18,20)  =     57.698199    -0.000000    -0.001987    57.696212
	  124 D(17,15,18,21)  =    -65.099828    -0.000000    -0.002140   -65.101968
	  125 D(18,21,24,25)  =    -52.976670     0.000000    -0.001342   -52.978012
	  126 D(18,21,24,26)  =     63.074830    -0.000000    -0.001511    63.073319
	  127 D(19,18,21,22)  =    -52.861833    -0.000000     0.000002   -52.861831
	  128 D(19,18,21,23)  =     62.450846    -0.000000    -0.000248    62.450597
	  129 D(19,18,21,24)  =   -174.452736    -0.000000     0.000184  -174.452552
	  130 D(20,18,21,22)  =     62.481953    -0.000000    -0.000066    62.481887
	  131 D(20,18,21,23)  =    177.794632    -0.000000    -0.000317   177.794316
	  132 D(20,18,21,24)  =    -59.108950    -0.000000     0.000116   -59.108834
	  133 D(22,21,24,25)  =   -173.964242     0.000000    -0.001229  -173.965471
	  134 D(22,21,24,26)  =    -57.912742    -0.000000    -0.001398   -57.914140
	  135 D(23,21,24,25)  =     70.280661     0.000000    -0.001031    70.279630
	  136 D(23,21,24,26)  =   -173.667839     0.000000    -0.001200  -173.669039
	  137 R(1,21)         =      3.391508     0.000000     0.000012     3.391520
	  138 R(1,24)         =      3.605645     0.000001    -0.000016     3.605629
	 ---------------------------------------------------------------------------

  ==> Convergence Check <==

  Measures of convergence in internal coordinates in au.
  Criteria marked as inactive (o), active & met (*), and active & unmet ( ).
  --------------------------------------------------------------------------------------------- ~
   Step     Total Energy     Delta E     MAX Force     RMS Force      MAX Disp      RMS Disp    ~
  --------------------------------------------------------------------------------------------- ~
    Convergence Criteria             o    2.00e-06 *    1.00e-06 *    6.00e-06 *    4.00e-06 *  ~
  --------------------------------------------------------------------------------------------- ~
      1    -314.98050531   -3.15e+02 o    1.83e-06 *    4.28e-07 *    4.59e-05      1.71e-05    ~
  ---------------------------------------------------------------------------------------------

	Writing optimization data to binary file.
	Structure for next step:
	Cartesian Geometry (in Angstrom)
	    C    -1.8749668860   1.7567442587  -0.0963452024
	    H    -2.3147588787   2.5333332222  -0.7227075619
	    H    -0.8043483069   1.7372112958  -0.2930423709
	    H    -2.0135590566   2.0514362571   0.9450539401
	    C     3.3896728514   0.0521293484  -0.4219575413
	    H     3.0533024526  -0.3343669906  -1.3831320416
	    H     3.7466547467  -0.7915748025   0.1712496150
	    H     4.2369802791   0.7111058838  -0.6100125892
	    C    -2.5338182579   0.4037166169  -0.3554546912
	    H    -2.4243155290   0.1322524188  -1.4096638302
	    H    -3.6062383800   0.5109147780  -0.1804333440
	    C     2.2720969858   0.7879763526   0.3096571391
	    H     2.6778590542   1.2527618295   1.2110113571
	    H     1.8988854767   1.6031457348  -0.3174320003
	    C    -1.9940645009  -0.7373456889   0.5175187351
	    H    -2.8033228385  -1.4395743064   0.7301044676
	    H    -1.6842808906  -0.3358915366   1.4861957910
	    C    -0.8540836739  -1.5364863168  -0.1183263698
	    H    -1.2440788478  -2.0256168948  -1.0157908669
	    H    -0.5593741149  -2.3382120285   0.5658445532
	    C     0.3900411189  -0.7353840161  -0.4981447775
	    H     1.0784040946  -1.4010381790  -1.0237252193
	    H     0.1236310596   0.0485478533  -1.2136910396
	    C     1.1029131622  -0.1144321105   0.6983181954
	    H     0.3911155291   0.4669537471   1.2881685961
	    H     1.4643664584  -0.9157571609   1.3518341070
			--------------------------
			 OPTKING Finished Execution 
			--------------------------

    Structure for next step:
    Molecular point group: c1
    Full point group: C1

    Geometry (in Angstrom), charge = 0, multiplicity = 1:

    C           -1.874966310888     1.756743198018    -0.096342833194
    H           -2.314758303584     2.533332161506    -0.722705192761
    H           -0.804347731850     1.737210235118    -0.293040001736
    H           -2.013558481541     2.051435196491     0.945056309309
    C            3.389673426436     0.052128287776    -0.421955172126
    H            3.053303027677    -0.334368051205    -1.383129672420
    H            3.746655321824    -0.791575863149     0.171251984145
    H            4.236980854157     0.711104823106    -0.610010220067
    C           -2.533817682782     0.403715556296    -0.355452322064
    H           -2.424314953909     0.132251358189    -1.409661461043
    H           -3.606237804894     0.510913717370    -0.180430974855
    C            2.272097560838     0.787975291938     0.309659508312
    H            2.677859629299     1.252760768886     1.211013726281
    H            1.898886051777     1.603144674145    -0.317429631163
    C           -1.994063925824    -0.737346749601     0.517521104297
    H           -2.803322263447    -1.439575367006     0.730106836729
    H           -1.684280315496    -0.335892597255     1.486198160204
    C           -0.854083098810    -1.536487377455    -0.118324000646
    H           -1.244078272672    -2.025617955467    -1.015788497681
    H           -0.559373539853    -2.338213089192     0.565846922384
    C            0.390041693984    -0.735385076744    -0.498142408356
    H            1.078404669633    -1.401039239608    -1.023722850117
    H            0.123631634679     0.048546792642    -1.213688670407
    C            1.102913737329    -0.114433171116     0.698320564567
    H            0.391116104210     0.466952686486     1.288170965291
    H            1.464367033494    -0.915758221532     1.351836476217

gradient() will perform analytic gradient computation.

*** tstart() called on wr31
*** at Tue Sep 20 23:53:08 2016


         ---------------------------------------------------------
                                   SCF
            by Justin Turney, Rob Parrish, and Andy Simmonett
                              RHF Reference
                       12 Threads,  60000 MiB Core
         ---------------------------------------------------------

  ==> Geometry <==

    Molecular point group: c1
    Full point group: C1

    Geometry (in Angstrom), charge = 0, multiplicity = 1:

       Center              X                  Y                   Z               Mass       
    ------------   -----------------  -----------------  -----------------  -----------------
           C         -1.874966310888     1.756743198018    -0.096342833194    12.000000000000
           H         -2.314758303584     2.533332161506    -0.722705192761     1.007825032070
           H         -0.804347731850     1.737210235118    -0.293040001736     1.007825032070
           H         -2.013558481541     2.051435196491     0.945056309309     1.007825032070
           C          3.389673426436     0.052128287776    -0.421955172126    12.000000000000
           H          3.053303027677    -0.334368051205    -1.383129672420     1.007825032070
           H          3.746655321824    -0.791575863149     0.171251984145     1.007825032070
           H          4.236980854157     0.711104823106    -0.610010220067     1.007825032070
           C         -2.533817682782     0.403715556296    -0.355452322064    12.000000000000
           H         -2.424314953909     0.132251358189    -1.409661461043     1.007825032070
           H         -3.606237804894     0.510913717370    -0.180430974855     1.007825032070
           C          2.272097560838     0.787975291938     0.309659508312    12.000000000000
           H          2.677859629299     1.252760768886     1.211013726281     1.007825032070
           H          1.898886051777     1.603144674145    -0.317429631163     1.007825032070
           C         -1.994063925824    -0.737346749601     0.517521104297    12.000000000000
           H         -2.803322263447    -1.439575367006     0.730106836729     1.007825032070
           H         -1.684280315496    -0.335892597255     1.486198160204     1.007825032070
           C         -0.854083098810    -1.536487377455    -0.118324000646    12.000000000000
           H         -1.244078272672    -2.025617955467    -1.015788497681     1.007825032070
           H         -0.559373539853    -2.338213089192     0.565846922384     1.007825032070
           C          0.390041693984    -0.735385076744    -0.498142408356    12.000000000000
           H          1.078404669633    -1.401039239608    -1.023722850117     1.007825032070
           H          0.123631634679     0.048546792642    -1.213688670407     1.007825032070
           C          1.102913737329    -0.114433171116     0.698320564567    12.000000000000
           H          0.391116104210     0.466952686486     1.288170965291     1.007825032070
           H          1.464367033494    -0.915758221532     1.351836476217     1.007825032070

  Running in c1 symmetry.

  Rotational constants: A =      0.10732  B =      0.03214  C =      0.02754 [cm^-1]
  Rotational constants: A =   3217.50893  B =    963.45239  C =    825.64630 [MHz]
  Nuclear repulsion =  403.195832900267476

  Charge       = 0
  Multiplicity = 1
  Electrons    = 66
  Nalpha       = 33
  Nbeta        = 33

  ==> Algorithm <==

  SCF Algorithm Type is DF.
  DIIS enabled.
  MOM disabled.
  Fractional occupation disabled.
  Guess Type is READ.
  Energy threshold   = 1.00e-10
  Density threshold  = 1.00e-10
  Integral threshold = 0.00e+00

  ==> Primary Basis <==

  Basis Set: AUG-CC-PVTZ
    Number of shells: 274
    Number of basis function: 782
    Number of Cartesian functions: 890
    Spherical Harmonics?: true
    Max angular momentum: 3

  ==> Pre-Iterations <==

   -------------------------------------------------------
    Irrep   Nso     Nmo     Nalpha   Nbeta   Ndocc  Nsocc
   -------------------------------------------------------
     A        782     782       0       0       0       0
   -------------------------------------------------------
    Total     782     782      33      33      33       0
   -------------------------------------------------------

  ==> Integral Setup <==

  ==> DFJK: Density-Fitted J/K Matrices <==

    J tasked:                  Yes
    K tasked:                  Yes
    wK tasked:                  No
    OpenMP threads:             12
    Integrals threads:          12
    Memory (MB):             42915
    Algorithm:                Core
    Integral Cache:           NONE
    Schwarz Cutoff:          1E-12
    Fitting Condition:       1E-12

   => Auxiliary Basis Set <=

  Basis Set: 
    Number of shells: 492
    Number of basis function: 1660
    Number of Cartesian functions: 2038
    Spherical Harmonics?: true
    Max angular momentum: 4

  Minimum eigenvalue in the overlap matrix is 1.7893483069E-06.
  Using Symmetric Orthogonalization.
  SCF Guess: Reading in previously saved MOs, projecting if necessary.

  Using orbitals from previous SCF, no projection.
  Recomputing DOCC and SOCC from number of alpha and beta electrons from previous calculation.
              A 
    DOCC [    33 ]

  ==> Iterations <==

                           Total Energy        Delta E     RMS |[F,P]|

   @DF-RHF iter   0:  -313.53616557853985   -3.13536e+02   1.44962e-07 
   @DF-RHF iter   1:  -313.53619156183237   -2.59833e-05   2.97163e-08 
   @DF-RHF iter   2:  -313.53619156232509   -4.92719e-10   1.16395e-08 DIIS
   @DF-RHF iter   3:  -313.53619156239296   -6.78710e-11   5.05929e-09 DIIS
   @DF-RHF iter   4:  -313.53619156240683   -1.38698e-11   5.02397e-10 DIIS
   @DF-RHF iter   5:  -313.53619156240705   -2.27374e-13   1.61225e-10 DIIS
   @DF-RHF iter   6:  -313.53619156240694    1.13687e-13   4.00580e-11 DIIS

  ==> Post-Iterations <==

    Orbital Energies (a.u.)
    -----------------------

    Doubly Occupied:                                                      

       1A    -11.213169     2A    -11.213156     3A    -11.211111  
       4A    -11.209898     5A    -11.209473     6A    -11.208805  
       7A    -11.206675     8A    -11.206543     9A     -1.094587  
      10A     -1.057761    11A     -1.006448    12A     -0.948356  
      13A     -0.889959    14A     -0.829310    15A     -0.789416  
      16A     -0.751549    17A     -0.648696    18A     -0.624009  
      19A     -0.613212    20A     -0.589879    21A     -0.583951  
      22A     -0.560597    23A     -0.544983    24A     -0.534199  
      25A     -0.512898    26A     -0.500696    27A     -0.492858  
      28A     -0.474210    29A     -0.465853    30A     -0.460952  
      31A     -0.440387    32A     -0.438337    33A     -0.433977  

    Virtual:                                                              

      34A      0.029741    35A      0.032970    36A      0.034417  
      37A      0.034638    38A      0.046435    39A      0.049251  
      40A      0.051354    41A      0.052645    42A      0.055247  
      43A      0.068157    44A      0.068712    45A      0.071370  
      46A      0.076406    47A      0.076447    48A      0.078720  
      49A      0.091935    50A      0.098352    51A      0.104513  
      52A      0.113221    53A      0.116567    54A      0.118085  
      55A      0.125115    56A      0.129181    57A      0.130320  
      58A      0.134477    59A      0.137731    60A      0.142805  
      61A      0.144255    62A      0.148543    63A      0.153336  
      64A      0.155246    65A      0.155588    66A      0.163609  
      67A      0.166864    68A      0.168606    69A      0.170626  
      70A      0.173605    71A      0.177216    72A      0.178790  
      73A      0.182235    74A      0.187028    75A      0.192429  
      76A      0.201269    77A      0.213791    78A      0.216303  
      79A      0.229135    80A      0.232908    81A      0.239484  
      82A      0.243653    83A      0.249354    84A      0.257995  
      85A      0.272461    86A      0.278857    87A      0.283432  
      88A      0.288098    89A      0.295479    90A      0.299567  
      91A      0.303026    92A      0.306108    93A      0.310704  
      94A      0.312953    95A      0.319078    96A      0.322851  
      97A      0.327264    98A      0.331521    99A      0.336642  
     100A      0.338457   101A      0.344009   102A      0.349381  
     103A      0.350368   104A      0.353907   105A      0.355793  
     106A      0.359120   107A      0.363151   108A      0.366192  
     109A      0.367834   110A      0.368890   111A      0.375334  
     112A      0.378403   113A      0.380064   114A      0.385073  
     115A      0.388165   116A      0.391868   117A      0.396539  
     118A      0.401821   119A      0.407300   120A      0.417184  
     121A      0.420444   122A      0.425495   123A      0.427911  
     124A      0.430186   125A      0.436239   126A      0.439461  
     127A      0.446123   128A      0.448426   129A      0.451012  
     130A      0.457206   131A      0.461437   132A      0.462276  
     133A      0.467312   134A      0.473335   135A      0.476607  
     136A      0.480435   137A      0.481790   138A      0.486370  
     139A      0.489695   140A      0.492338   141A      0.492885  
     142A      0.500677   143A      0.504955   144A      0.510277  
     145A      0.510832   146A      0.516280   147A      0.519335  
     148A      0.523936   149A      0.528042   150A      0.530613  
     151A      0.537719   152A      0.538520   153A      0.543538  
     154A      0.550740   155A      0.558160   156A      0.561581  
     157A      0.563682   158A      0.568685   159A      0.573530  
     160A      0.578616   161A      0.581247   162A      0.583799  
     163A      0.588462   164A      0.597073   165A      0.601111  
     166A      0.604464   167A      0.607339   168A      0.613022  
     169A      0.616479   170A      0.625649   171A      0.634649  
     172A      0.636907   173A      0.641738   174A      0.643021  
     175A      0.648766   176A      0.652775   177A      0.656881  
     178A      0.659161   179A      0.660896   180A      0.667403  
     181A      0.673592   182A      0.682731   183A      0.686609  
     184A      0.692386   185A      0.695186   186A      0.704290  
     187A      0.707707   188A      0.712515   189A      0.718706  
     190A      0.722922   191A      0.729077   192A      0.736759  
     193A      0.740514   194A      0.753476   195A      0.756694  
     196A      0.763469   197A      0.769266   198A      0.777059  
     199A      0.793818   200A      0.795282   201A      0.803926  
     202A      0.813220   203A      0.814922   204A      0.822196  
     205A      0.834185   206A      0.838364   207A      0.839705  
     208A      0.850289   209A      0.857785   210A      0.866083  
     211A      0.870442   212A      0.873448   213A      0.876682  
     214A      0.882802   215A      0.895784   216A      0.896934  
     217A      0.904143   218A      0.912554   219A      0.914648  
     220A      0.918674   221A      0.923179   222A      0.928948  
     223A      0.932090   224A      0.936999   225A      0.940252  
     226A      0.950468   227A      0.952177   228A      0.955656  
     229A      0.963941   230A      0.968290   231A      0.975511  
     232A      0.981073   233A      0.982643   234A      0.985728  
     235A      0.993444   236A      0.996475   237A      0.999717  
     238A      1.007694   239A      1.013059   240A      1.017896  
     241A      1.023007   242A      1.028800   243A      1.032104  
     244A      1.036628   245A      1.039363   246A      1.044959  
     247A      1.047753   248A      1.056836   249A      1.067422  
     250A      1.069188   251A      1.072304   252A      1.077889  
     253A      1.082407   254A      1.096546   255A      1.100388  
     256A      1.101365   257A      1.110149   258A      1.117383  
     259A      1.119200   260A      1.121222   261A      1.133400  
     262A      1.137224   263A      1.142145   264A      1.142788  
     265A      1.148623   266A      1.159897   267A      1.162763  
     268A      1.169887   269A      1.177110   270A      1.179372  
     271A      1.187798   272A      1.188814   273A      1.198460  
     274A      1.203369   275A      1.211477   276A      1.213426  
     277A      1.219109   278A      1.222893   279A      1.223950  
     280A      1.226824   281A      1.236374   282A      1.245700  
     283A      1.246937   284A      1.253145   285A      1.257161  
     286A      1.263992   287A      1.268842   288A      1.275095  
[...]
	   ----------                --------       ------       ------       ------
	    1 R(1,2)          =      1.090338    -0.000004    -0.000000     1.090337
	    2 R(1,3)          =      1.088712    -0.000006    -0.000000     1.088712
	    3 R(1,4)          =      1.091129    -0.000005    -0.000000     1.091129
	    4 R(1,9)          =      1.527058    -0.000001    -0.000000     1.527058
	    5 R(5,6)          =      1.089210    -0.000005    -0.000000     1.089210
	    6 R(5,7)          =      1.091405    -0.000005    -0.000000     1.091405
	    7 R(5,8)          =      1.089744    -0.000004    -0.000000     1.089744
	    8 R(5,12)         =      1.525026    -0.000001    -0.000000     1.525026
	    9 R(9,10)         =      1.094093    -0.000005    -0.000000     1.094093
	   10 R(9,11)         =      1.091883    -0.000003    -0.000000     1.091883
	   11 R(9,15)         =      1.534744    -0.000000     0.000000     1.534744
	   12 R(12,13)        =      1.092294    -0.000006    -0.000000     1.092293
	   13 R(12,14)        =      1.094087    -0.000007    -0.000000     1.094086
	   14 R(12,24)        =      1.527215     0.000001    -0.000000     1.527215
	   15 R(15,16)        =      1.092344    -0.000003    -0.000000     1.092344
	   16 R(15,17)        =      1.093373    -0.000005     0.000000     1.093373
	   17 R(15,18)        =      1.530516     0.000001     0.000000     1.530516
	   18 R(18,19)        =      1.093977    -0.000005    -0.000000     1.093977
	   19 R(18,20)        =      1.094397    -0.000005    -0.000000     1.094397
	   20 R(18,21)        =      1.527701    -0.000002     0.000000     1.527701
	   21 R(21,22)        =      1.092324    -0.000003     0.000000     1.092324
	   22 R(21,23)        =      1.094315    -0.000008     0.000000     1.094316
	   23 R(21,24)        =      1.524889    -0.000004    -0.000000     1.524889
	   24 R(24,25)        =      1.092055    -0.000008    -0.000000     1.092055
	   25 R(24,26)        =      1.095377    -0.000006    -0.000000     1.095377
	   26 B(1,9,10)       =    109.886178    -0.000000    -0.000019   109.886159
	   27 B(1,9,11)       =    108.033563    -0.000000     0.000011   108.033574
	   28 B(1,9,15)       =    114.236558    -0.000000    -0.000012   114.236546
	   29 B(2,1,3)        =    107.796675    -0.000000     0.000001   107.796675
	   30 B(2,1,4)        =    107.739369    -0.000000    -0.000001   107.739368
	   31 B(2,1,9)        =    111.074012     0.000000     0.000012   111.074024
	   32 B(3,1,4)        =    107.589051     0.000000     0.000002   107.589053
	   33 B(3,1,9)        =    112.192949    -0.000000     0.000007   112.192956
	   34 B(4,1,9)        =    110.269984    -0.000000    -0.000020   110.269964
	   35 B(5,12,13)      =    109.206204    -0.000000     0.000005   109.206209
	   36 B(5,12,14)      =    109.543037    -0.000000    -0.000006   109.543031
	   37 B(5,12,24)      =    113.453309     0.000000     0.000010   113.453319
	   38 B(6,5,7)        =    107.838659     0.000000     0.000007   107.838666
	   39 B(6,5,8)        =    107.602333    -0.000000    -0.000009   107.602324
	   40 B(6,5,12)       =    111.607713    -0.000000     0.000001   111.607715
	   41 B(7,5,8)        =    107.875092     0.000000    -0.000002   107.875089
	   42 B(7,5,12)       =    110.606520    -0.000000    -0.000013   110.606507
	   43 B(8,5,12)       =    111.149308     0.000000     0.000016   111.149324
	   44 B(9,15,16)      =    109.154164    -0.000000     0.000002   109.154166
	   45 B(9,15,17)      =    109.304806     0.000000     0.000003   109.304810
	   46 B(9,15,18)      =    114.446566    -0.000000     0.000004   114.446570
	   47 B(10,9,11)      =    106.087808    -0.000000    -0.000000   106.087808
	   48 B(10,9,15)      =    109.171707     0.000000    -0.000006   109.171701
	   49 B(11,9,15)      =    109.101197     0.000000     0.000027   109.101223
	   50 B(12,24,21)     =    113.505022     0.000000    -0.000044   113.504978
	   51 B(12,24,25)     =    108.776267    -0.000000    -0.000017   108.776250
	   52 B(12,24,26)     =    109.358314     0.000000     0.000020   109.358334
	   53 B(13,12,14)     =    106.418453     0.000000    -0.000016   106.418437
	   54 B(13,12,24)     =    109.015036    -0.000000     0.000005   109.015041
	   55 B(14,12,24)     =    108.963426    -0.000000     0.000000   108.963427
	   56 B(15,18,19)     =    107.983650    -0.000000    -0.000012   107.983637
	   57 B(15,18,20)     =    108.866257     0.000000     0.000023   108.866280
	   58 B(15,18,21)     =    115.852841     0.000000     0.000017   115.852858
	   59 B(16,15,17)     =    105.874080    -0.000000    -0.000000   105.874080
	   60 B(16,15,18)     =    107.277278     0.000000    -0.000010   107.277268
	   61 B(17,15,18)     =    110.410509    -0.000000     0.000001   110.410511
	   62 B(18,21,22)     =    108.256886     0.000000    -0.000031   108.256855
	   63 B(18,21,23)     =    109.874416     0.000000     0.000005   109.874421
	   64 B(18,21,24)     =    113.526233    -0.000000     0.000049   113.526282
	   65 B(19,18,20)     =    106.338831     0.000000    -0.000003   106.338828
	   66 B(19,18,21)     =    108.712406     0.000000    -0.000005   108.712401
	   67 B(20,18,21)     =    108.679440    -0.000000    -0.000021   108.679420
	   68 B(21,24,25)     =    109.625950    -0.000000     0.000022   109.625972
	   69 B(21,24,26)     =    108.934255    -0.000000     0.000025   108.934279
	   70 B(22,21,23)     =    105.982796    -0.000000    -0.000002   105.982795
	   71 B(22,21,24)     =    109.334213     0.000000    -0.000009   109.334204
	   72 B(23,21,24)     =    109.581123     0.000000    -0.000016   109.581107
	   73 B(25,24,26)     =    106.397143    -0.000000    -0.000003   106.397140
	   74 D(1,9,15,16)    =    146.893169    -0.000000    -0.000049   146.893120
	   75 D(1,9,15,17)    =     31.522401    -0.000000    -0.000052    31.522350
	   76 D(1,9,15,18)    =    -92.890552    -0.000000    -0.000058   -92.890610
	   77 D(2,1,9,10)     =     58.480004    -0.000000    -0.000197    58.479808
	   78 D(2,1,9,11)     =    -56.839843     0.000000    -0.000193   -56.840035
	   79 D(2,1,9,15)     =   -178.439081    -0.000000    -0.000228  -178.439309
	   80 D(3,1,9,10)     =    -62.247559    -0.000000    -0.000211   -62.247769
	   81 D(3,1,9,11)     =   -177.567406    -0.000000    -0.000206  -177.567612
	   82 D(3,1,9,15)     =     60.833356    -0.000000    -0.000241    60.833115
	   83 D(4,1,9,10)     =    177.846752    -0.000000    -0.000204   177.846548
	   84 D(4,1,9,11)     =     62.526905     0.000000    -0.000200    62.526705
	   85 D(4,1,9,15)     =    -59.072333    -0.000000    -0.000235   -59.072568
	   86 D(5,12,24,21)   =    -62.452626    -0.000000     0.000018   -62.452608
	   87 D(5,12,24,25)   =    175.222888     0.000000     0.000031   175.222919
	   88 D(5,12,24,26)   =     59.407637     0.000000     0.000034    59.407671
	   89 D(6,5,12,13)    =   -173.749405     0.000000     0.000125  -173.749280
	   90 D(6,5,12,14)    =    -57.564999    -0.000000     0.000105   -57.564895
	   91 D(6,5,12,24)    =     64.432532     0.000000     0.000107    64.432640
	   92 D(7,5,12,13)    =     66.188143     0.000000     0.000123    66.188267
	   93 D(7,5,12,14)    =   -177.627451     0.000000     0.000103  -177.627348
	   94 D(7,5,12,24)    =    -55.629919     0.000000     0.000106   -55.629813
	   95 D(8,5,12,13)    =    -53.617990     0.000000     0.000125   -53.617866
	   96 D(8,5,12,14)    =     62.566415    -0.000000     0.000104    62.566520
	   97 D(8,5,12,24)    =   -175.436053     0.000000     0.000107  -175.435946
	   98 D(9,15,18,19)   =    -63.423566     0.000000    -0.000019   -63.423585
	   99 D(9,15,18,20)   =   -178.478195     0.000000    -0.000020  -178.478216
	  100 D(9,15,18,21)   =     58.723761     0.000000    -0.000023    58.723738
	  101 D(10,9,15,16)   =    -89.639746    -0.000000    -0.000087   -89.639833
	  102 D(10,9,15,17)   =    154.989487    -0.000000    -0.000089   154.989397
	  103 D(10,9,15,18)   =     30.576533    -0.000000    -0.000096    30.576437
	  104 D(11,9,15,16)   =     25.883670    -0.000000    -0.000076    25.883595
	  105 D(11,9,15,17)   =    -89.487097    -0.000000    -0.000078   -89.487175
	  106 D(11,9,15,18)   =    146.099949    -0.000000    -0.000085   146.099865
	  107 D(12,24,21,18)  =   -174.829400     0.000000     0.000122  -174.829278
	  108 D(12,24,21,22)  =     64.183026     0.000000     0.000135    64.183162
	  109 D(12,24,21,23)  =    -51.572014     0.000000     0.000152   -51.571862
	  110 D(13,12,24,21)  =    175.622778    -0.000000     0.000001   175.622778
	  111 D(13,12,24,25)  =     53.298291    -0.000000     0.000014    53.298306
	  112 D(13,12,24,26)  =    -62.516959    -0.000000     0.000017   -62.516942
	  113 D(14,12,24,21)  =     59.866903    -0.000000     0.000017    59.866920
	  114 D(14,12,24,25)  =    -62.457584     0.000000     0.000031   -62.457553
	  115 D(14,12,24,26)  =   -178.272834     0.000000     0.000034  -178.272800
	  116 D(15,18,21,22)  =   -174.622417     0.000000    -0.000083  -174.622500
	  117 D(15,18,21,23)  =    -59.309827     0.000000    -0.000099   -59.309926
	  118 D(15,18,21,24)  =     63.786694    -0.000000    -0.000081    63.786613
	  119 D(16,15,18,19)  =     57.831559    -0.000000    -0.000022    57.831538
	  120 D(16,15,18,20)  =    -57.223070    -0.000000    -0.000023   -57.223093
	  121 D(16,15,18,21)  =    179.978886     0.000000    -0.000026   179.978860
	  122 D(17,15,18,19)  =    172.752904    -0.000000    -0.000027   172.752877
	  123 D(17,15,18,20)  =     57.698275    -0.000000    -0.000028    57.698247
	  124 D(17,15,18,21)  =    -65.099768     0.000000    -0.000031   -65.099800
	  125 D(18,21,24,25)  =    -52.976849    -0.000000     0.000086   -52.976763
	  126 D(18,21,24,26)  =     63.074523    -0.000000     0.000108    63.074631
	  127 D(19,18,21,22)  =    -52.862578     0.000000    -0.000091   -52.862669
	  128 D(19,18,21,23)  =     62.450012     0.000000    -0.000107    62.449904
	  129 D(19,18,21,24)  =   -174.453467    -0.000000    -0.000089  -174.453556
	  130 D(20,18,21,22)  =     62.481186    -0.000000    -0.000108    62.481078
	  131 D(20,18,21,23)  =    177.793776    -0.000000    -0.000125   177.793652
	  132 D(20,18,21,24)  =    -59.109702    -0.000000    -0.000107   -59.109809
	  133 D(22,21,24,25)  =   -173.964423     0.000000     0.000099  -173.964324
	  134 D(22,21,24,26)  =    -57.913050    -0.000000     0.000122   -57.912929
	  135 D(23,21,24,25)  =     70.280536    -0.000000     0.000116    70.280652
	  136 D(23,21,24,26)  =   -173.668091    -0.000000     0.000138  -173.667953
	  137 R(1,21)         =      3.391508     0.000001     0.000001     3.391509
	  138 R(1,24)         =      3.605632    -0.000001    -0.000001     3.605631
	 ---------------------------------------------------------------------------

  ==> Convergence Check <==

  Measures of convergence in internal coordinates in au.
  Criteria marked as inactive (o), active & met (*), and active & unmet ( ).
  ---------------------------------------------------------------------------------------------
   Step     Total Energy     Delta E     MAX Force     RMS Force      MAX Disp      RMS Disp   
  ---------------------------------------------------------------------------------------------
    Convergence Criteria             o    2.00e-06 *    1.00e-06 *    6.00e-06 *    4.00e-06 *
  ---------------------------------------------------------------------------------------------
     33    -314.98050531    1.51e-10 o    9.88e-07 *    2.53e-07 *    4.21e-06 *    1.38e-06 *  ~
  ---------------------------------------------------------------------------------------------


  **** Optimization is complete! (in 33 steps) ****

  ==> Optimization Summary <==

  Measures of convergence in internal coordinates in au.
  --------------------------------------------------------------------------------------------------------------- ~
   Step         Total Energy             Delta E       MAX Force       RMS Force        MAX Disp        RMS Disp  ~
  --------------------------------------------------------------------------------------------------------------- ~
      1    -314.980505309335   -314.980505309335      0.00000183      0.00000043      0.00004588      0.00001713  ~
      2    -314.980505306060      0.000000003275      0.00000188      0.00000052      0.00006683      0.00002139  ~
      3    -314.980505308788     -0.000000002728      0.00000162      0.00000040      0.00003310      0.00001348  ~
      4    -314.980505310418     -0.000000001630      0.00000184      0.00000041      0.00002416      0.00000794  ~
      5    -314.980505312535     -0.000000002116      0.00000072      0.00000016      0.00002236      0.00000722  ~
      6    -314.980505307679      0.000000004856      0.00000167      0.00000036      0.00002522      0.00000844  ~
      7    -314.980505306893      0.000000000786      0.00000199      0.00000048      0.00002481      0.00000815  ~
      8    -314.980505307290     -0.000000000397      0.00000128      0.00000029      0.00001474      0.00000483  ~
      9    -314.980505310641     -0.000000003350      0.00000309      0.00000073      0.00002157      0.00000779  ~
     10    -314.980505311919     -0.000000001278      0.00000203      0.00000046      0.00001060      0.00000397  ~
     11    -314.980505305931      0.000000005988      0.00000114      0.00000027      0.00002556      0.00000694  ~
     12    -314.980505311568     -0.000000005638      0.00000135      0.00000033      0.00001841      0.00000728  ~
     13    -314.980505304514      0.000000007054      0.00000058      0.00000012      0.00000995      0.00000354  ~
     14    -314.980505310705     -0.000000006191      0.00000044      0.00000011      0.00001142      0.00000384  ~
     15    -314.980505310523      0.000000000182      0.00000141      0.00000031      0.00000757      0.00000295  ~
     16    -314.980505311678     -0.000000001156      0.00000095      0.00000019      0.00000788      0.00000339  ~
     17    -314.980505309237      0.000000002441      0.00000192      0.00000045      0.00001769      0.00000435  ~
     18    -314.980505310260     -0.000000001023      0.00000068      0.00000017      0.00001931      0.00000344  ~
     19    -314.980505311787     -0.000000001528      0.00000039      0.00000008      0.00001233      0.00000404  ~
     20    -314.980505309626      0.000000002161      0.00000188      0.00000042      0.00001618      0.00000476  ~
     21    -314.980505310470     -0.000000000844      0.00000117      0.00000032      0.00001613      0.00000481  ~
     22    -314.980505310393      0.000000000077      0.00000099      0.00000025      0.00000966      0.00000277  ~
     23    -314.980505313907     -0.000000003513      0.00000162      0.00000038      0.00000670      0.00000268  ~
     24    -314.980505310109      0.000000003798      0.00000158      0.00000033      0.00001078      0.00000295  ~
     25    -314.980505308486      0.000000001623      0.00000022      0.00000006      0.00000960      0.00000359  ~
     26    -314.980505310046     -0.000000001560      0.00000108      0.00000028      0.00001107      0.00000341  ~
     27    -314.980505307778      0.000000002268      0.00000073      0.00000011      0.00001303      0.00000346  ~
     28    -314.980505310917     -0.000000003139      0.00000178      0.00000044      0.00006190      0.00001077  ~
     29    -314.980505313012     -0.000000002095      0.00000109      0.00000026      0.00004254      0.00000968  ~
     30    -314.980505310518      0.000000002494      0.00000039      0.00000010      0.00000887      0.00000338  ~
     31    -314.980505310135      0.000000000383      0.00000162      0.00000036      0.00001677      0.00000369  ~
     32    -314.980505311006     -0.000000000871      0.00000076      0.00000019      0.00000749      0.00000230  ~
     33    -314.980505310855      0.000000000151      0.00000099      0.00000025      0.00000421      0.00000138  ~
  --------------------------------------------------------------------------------------------------------------- ~

	Writing optimization data to binary file.
	Final energy is   -314.9805053108552
	Final (previous) structure:
	Cartesian Geometry (in Angstrom)
	    C    -1.8749436383   1.7567395283  -0.0963900945
	    H    -2.3147510726   2.5333225734  -0.7227480448
	    H    -0.8043346396   1.7371884332  -0.2931318495
	    H    -2.0134887608   2.0514522173   0.9450088087
	    C     3.3896506770   0.0521530748  -0.4219652657
	    H     3.0532600125  -0.3343209194  -1.3831405729
	    H     3.7466534611  -0.7915624121   0.1712112060
	    H     4.2369470494   0.7111413259  -0.6100237729
	    C    -2.5338222134   0.4037151529  -0.3554477233
	    H    -2.4243631006   0.1322287478  -1.4096549072
	    H    -3.6062339771   0.5109302271  -0.1803882218
	    C     2.2720859139   0.7879702335   0.3096955041
	    H     2.6778589213   1.2527229787   1.2110602681
	    H     1.8988630056   1.6031604543  -0.3173574313
	    C    -1.9940515625  -0.7373368524   0.5175275943
	    H    -2.8033058322  -1.4395616435   0.7301389169
	    H    -1.6842465183  -0.3358719366   1.4861921087
	    C    -0.8540841975  -1.5364843379  -0.1183321658
	    H    -1.2440863711  -2.0255956805  -1.0158031936
	    H    -0.5593854225  -2.3382235392   0.5658262085
	    C     0.3900503056  -0.7353931435  -0.4981376300
	    H     1.0784116598  -1.4010489320  -1.0237167653
	    H     0.1236538221   0.0485460361  -1.2136784423
	    C     1.1029106494  -0.1144556761   0.6983379459
	    H     0.3911073417   0.4669147926   1.2881930810
	    H     1.4643667242  -0.9157871231   1.3518424675
	Saving final (previous) structure.
			--------------------------
			 OPTKING Finished Execution 
			--------------------------

    Final optimized geometry and variables:
    Molecular point group: c1
    Full point group: C1

    Geometry (in Angstrom), charge = 0, multiplicity = 1:

    C           -1.874943638312     1.756739528258    -0.096390094457
    H           -2.314751072645     2.533322573430    -0.722748044795
    H           -0.804334639566     1.737188433164    -0.293131849468
    H           -2.013488760813     2.051452217293     0.945008808673
    C            3.389650677000     0.052153074822    -0.421965265684
    H            3.053260012484    -0.334320919414    -1.383140572946
    H            3.746653461105    -0.791562412074     0.171211205952
    H            4.236947049372     0.711141325885    -0.610023772906
    C           -2.533822213408     0.403715152887    -0.355447723266
    H           -2.424363100581     0.132228747787    -1.409654907194
    H           -3.606233977100     0.510930227124    -0.180388221799
    C            2.272085913884     0.787970233490     0.309695504137
    H            2.677858921289     1.252722978724     1.211060268132
    H            1.898863005648     1.603160454258    -0.317357431291
    C           -1.994051562517    -0.737336852432     0.517527594257
    H           -2.803305832213    -1.439561643517     0.730138916928
    H           -1.684246518307    -0.335871936604     1.486192108677
    C           -0.854084197489    -1.536484337916    -0.118332165823
    H           -1.244086371052    -2.025595680488    -1.015803193556
    H           -0.559385422500    -2.338223539243     0.565826208498
    C            0.390050305567    -0.735393143476    -0.498137629958
    H            1.078411659785    -1.401048931971    -1.023716765264
    H            0.123653822094     0.048546036063    -1.213678442337
    C            1.102910649417    -0.114455676092     0.698337945880
    H            0.391107341728     0.466914792631     1.288193080968
    H            1.464366724225    -0.915787123138     1.351842467490

	Cleaning optimization helper files.

*** Psi4 exiting successfully. Buy a developer a beer!
