    -----------------------------------------------------------------------
          Psi4: An Open-Source Ab Initio Electronic Structure Package
                              Psi4 1.0.0 Driver

                          Git: Rev {master} 6a9a71b dirty

    J. M. Turney, A. C. Simmonett, R. M. Parrish, E. G. Hohenstein,
    F. A. Evangelista, J. T. Fermann, B. J. Mintz, L. A. Burns, J. J. Wilke,
    M. L. Abrams, N. J. Russ, M. L. Leininger, C. L. Janssen, E. T. Seidl,
    W. D. Allen, H. F. Schaefer, R. A. King, E. F. Valeev, C. D. Sherrill,
    and T. D. Crawford, WIREs Comput. Mol. Sci. 2, 556-565 (2012)
    (doi: 10.1002/wcms.93)

                         Additional Contributions by
    A. E. DePrince, U. Bozkaya, A. Yu. Sokolov, D. G. A. Smith, R. Di Remigio,
    R. M. Richard, J. F. Gonthier, H. R. McAlexander, M. Saitow, and
    B. P. Pritchard
    -----------------------------------------------------------------------


    Psi4 started on: Tue Sep 20 22:40:02 2016

    Process ID:  36295
    PSI4DATADIR: /usr/local/hpc5/psi4conda/share/psi4
    Memory level set to 256.000 MB

  ==> Input File <==

--------------------------------------------------------------------------
memory 60 Gb

molecule molecule_35_psi {
0 1
C            2.665946871439    -1.132590318055     0.337494620976
H            2.177213911061    -1.887378440734    -0.280889569955
H            2.183326316078    -1.137191253651     1.314374742895
H            3.701901353836    -1.439042458003     0.481089005273
C           -1.409789677940    -1.882149309164    -0.181830300237
H           -1.728439049782    -2.816594346301     0.281043535154
H           -0.380126443530    -1.697491694477     0.118208153346
H           -1.418440301615    -2.027272616520    -1.263339127900
C            2.583496516899     0.239316643673    -0.324058927141
H            3.144248167128     0.217507059255    -1.261179573379
H            3.070059075619     0.984200984880     0.311778999587
C           -2.339096754665    -0.734431464246     0.206144993503
H           -3.357316539412    -1.016497187636    -0.069624675608
H           -2.342794233620    -0.610549258953     1.293242899192
C            1.150698730709     0.684649221014    -0.610150954603
H            0.666122197250    -0.065113411992    -1.241624205930
H            1.169509509365     1.612266930524    -1.190582506119
C            0.324846098652     0.923223573156     0.649643565357
H            0.869429103459     1.622883904570     1.291704634672
H            0.226280922708     0.000263477622     1.224742392151
C           -1.060545600747     1.500359621735     0.365376307582
H           -1.551763959370     1.727745839425     1.316132086206
H           -0.939297105816     2.455072016831    -0.155635432896
C           -1.998505552898     0.609508313410    -0.452007363978
H           -2.921964059961     1.170985112260    -0.611086576982
H           -1.580284942629     0.430939003118    -1.446572774985
}

set globals {
  reference rhf
  g_convergence gau_verytight
  basis aug-cc-pvtz
  freeze_core true
  scf_type df
  mp_type df
}
optimize('mp2')
--------------------------------------------------------------------------
/usr/local/hpc5/psi4conda/lib/python2.7/site-packages/v2rdm_casscf/v2rdm_casscf.so loaded.

  Memory set to  60.000 GiB by Python script.
gradient() will perform analytic gradient computation.

*** tstart() called on wr30
*** at Tue Sep 20 22:40:03 2016


         ---------------------------------------------------------
                                   SCF
            by Justin Turney, Rob Parrish, and Andy Simmonett
                              RHF Reference
                       12 Threads,  60000 MiB Core
         ---------------------------------------------------------

  ==> Geometry <==

    Molecular point group: c1
    Full point group: C1

    Geometry (in Angstrom), charge = 0, multiplicity = 1:

       Center              X                  Y                   Z               Mass       
    ------------   -----------------  -----------------  -----------------  -----------------
           C          2.665946871439    -1.132590318055     0.337494620976    12.000000000000
           H          2.177213911061    -1.887378440734    -0.280889569955     1.007825032070
           H          2.183326316078    -1.137191253651     1.314374742895     1.007825032070
           H          3.701901353836    -1.439042458003     0.481089005273     1.007825032070
           C         -1.409789677940    -1.882149309164    -0.181830300237    12.000000000000
           H         -1.728439049782    -2.816594346301     0.281043535154     1.007825032070
           H         -0.380126443530    -1.697491694477     0.118208153346     1.007825032070
           H         -1.418440301615    -2.027272616520    -1.263339127900     1.007825032070
           C          2.583496516899     0.239316643673    -0.324058927141    12.000000000000
           H          3.144248167128     0.217507059255    -1.261179573379     1.007825032070
           H          3.070059075619     0.984200984880     0.311778999587     1.007825032070
           C         -2.339096754665    -0.734431464246     0.206144993503    12.000000000000
           H         -3.357316539412    -1.016497187636    -0.069624675608     1.007825032070
           H         -2.342794233620    -0.610549258953     1.293242899192     1.007825032070
           C          1.150698730709     0.684649221014    -0.610150954603    12.000000000000
           H          0.666122197250    -0.065113411992    -1.241624205930     1.007825032070
           H          1.169509509365     1.612266930524    -1.190582506119     1.007825032070
           C          0.324846098652     0.923223573156     0.649643565357    12.000000000000
           H          0.869429103459     1.622883904570     1.291704634672     1.007825032070
           H          0.226280922708     0.000263477622     1.224742392151     1.007825032070
           C         -1.060545600747     1.500359621735     0.365376307582    12.000000000000
           H         -1.551763959370     1.727745839425     1.316132086206     1.007825032070
           H         -0.939297105816     2.455072016831    -0.155635432896     1.007825032070
           C         -1.998505552898     0.609508313410    -0.452007363978    12.000000000000
           H         -2.921964059961     1.170985112260    -0.611086576982     1.007825032070
           H         -1.580284942629     0.430939003118    -1.446572774985     1.007825032070

  Running in c1 symmetry.

  Rotational constants: A =      0.08993  B =      0.03745  C =      0.02966 [cm^-1]
  Rotational constants: A =   2695.95102  B =   1122.69555  C =    889.27982 [MHz]
  Nuclear repulsion =  406.151970430724987

  Charge       = 0
  Multiplicity = 1
  Electrons    = 66
  Nalpha       = 33
  Nbeta        = 33

  ==> Algorithm <==

  SCF Algorithm Type is DF.
  DIIS enabled.
  MOM disabled.
  Fractional occupation disabled.
  Guess Type is SAD.
  Energy threshold   = 1.00e-10
  Density threshold  = 1.00e-10
  Integral threshold = 0.00e+00

  ==> Primary Basis <==

  Basis Set: AUG-CC-PVTZ
    Number of shells: 274
    Number of basis function: 782
    Number of Cartesian functions: 890
    Spherical Harmonics?: true
    Max angular momentum: 3

  ==> Pre-Iterations <==

   -------------------------------------------------------
    Irrep   Nso     Nmo     Nalpha   Nbeta   Ndocc  Nsocc
   -------------------------------------------------------
     A        782     782       0       0       0       0
   -------------------------------------------------------
    Total     782     782      33      33      33       0
   -------------------------------------------------------

  ==> Integral Setup <==

  ==> DFJK: Density-Fitted J/K Matrices <==

    J tasked:                  Yes
    K tasked:                  Yes
    wK tasked:                  No
    OpenMP threads:             12
    Integrals threads:          12
    Memory (MB):             42915
    Algorithm:                Core
    Integral Cache:           NONE
    Schwarz Cutoff:          1E-12
    Fitting Condition:       1E-12

   => Auxiliary Basis Set <=

  Basis Set: 
    Number of shells: 492
    Number of basis function: 1660
    Number of Cartesian functions: 2038
    Spherical Harmonics?: true
    Max angular momentum: 4

  Minimum eigenvalue in the overlap matrix is 1.6649377354E-06.
  Using Symmetric Orthogonalization.
  SCF Guess: Superposition of Atomic Densities via on-the-fly atomic UHF.

  ==> Iterations <==

                           Total Energy        Delta E     RMS |[F,P]|

   @DF-RHF iter   0:  -317.09059825920178   -3.17091e+02   7.05920e-03 
   @DF-RHF iter   1:  -313.30231498341323    3.78828e+00   6.92234e-04 
   @DF-RHF iter   2:  -313.50828611373800   -2.05971e-01   2.38183e-04 DIIS
   @DF-RHF iter   3:  -313.53146032882773   -2.31742e-02   9.91407e-05 DIIS
   @DF-RHF iter   4:  -313.53603301223984   -4.57268e-03   1.71930e-05 DIIS
   @DF-RHF iter   5:  -313.53623357439096   -2.00562e-04   4.54629e-06 DIIS
   @DF-RHF iter   6:  -313.53624598822091   -1.24138e-05   1.49421e-06 DIIS
   @DF-RHF iter   7:  -313.53624722256041   -1.23434e-06   2.65368e-07 DIIS
   @DF-RHF iter   8:  -313.53624727811427   -5.55539e-08   7.01692e-08 DIIS
   @DF-RHF iter   9:  -313.53624728135685   -3.24258e-09   2.15205e-08 DIIS
   @DF-RHF iter  10:  -313.53624728165528   -2.98428e-10   6.03425e-09 DIIS
   @DF-RHF iter  11:  -313.53624728168086   -2.55795e-11   1.48762e-09 DIIS
   @DF-RHF iter  12:  -313.53624728168234   -1.47793e-12   3.82199e-10 DIIS
   @DF-RHF iter  13:  -313.53624728168177    5.68434e-13   1.24585e-10 DIIS
   @DF-RHF iter  14:  -313.53624728168290   -1.13687e-12   3.16723e-11 DIIS

  ==> Post-Iterations <==

    Orbital Energies (a.u.)
    -----------------------

    Doubly Occupied:                                                      

       1A    -11.213001     2A    -11.212944     3A    -11.210941  
       4A    -11.209854     5A    -11.209658     6A    -11.208968  
       7A    -11.206956     8A    -11.206140     9A     -1.094399  
      10A     -1.057576    11A     -1.007089    12A     -0.947708  
      13A     -0.890474    14A     -0.827402    15A     -0.791955  
      16A     -0.750088    17A     -0.650993    18A     -0.623581  
      19A     -0.608654    20A     -0.593228    21A     -0.581455  
      22A     -0.566945    23A     -0.538558    24A     -0.530340  
      25A     -0.515612    26A     -0.508264    27A     -0.491007  
      28A     -0.474746    29A     -0.465471    30A     -0.456587  
      31A     -0.440065    32A     -0.438655    33A     -0.435358  

    Virtual:                                                              

      34A      0.028881    35A      0.033003    36A      0.034043  
      37A      0.035083    38A      0.046280    39A      0.048400  
      40A      0.051539    41A      0.053285    42A      0.055044  
      43A      0.067716    44A      0.070339    45A      0.071927  
      46A      0.075048    47A      0.078156    48A      0.080510  
      49A      0.089804    50A      0.097825    51A      0.102834  
      52A      0.113738    53A      0.118624    54A      0.121487  
      55A      0.124106    56A      0.128190    57A      0.133995  
      58A      0.134757    59A      0.139337    60A      0.142603  
      61A      0.143846    62A      0.148671    63A      0.151263  
      64A      0.155084    65A      0.156804    66A      0.158854  
      67A      0.162291    68A      0.168321    69A      0.170691  
      70A      0.177166    71A      0.177412    72A      0.179463  
      73A      0.186338    74A      0.188933    75A      0.193969  
      76A      0.199154    77A      0.213682    78A      0.219763  
      79A      0.224256    80A      0.234288    81A      0.237818  
      82A      0.242909    83A      0.246929    84A      0.263653  
      85A      0.272096    86A      0.275031    87A      0.291415  
      88A      0.292200    89A      0.293507    90A      0.299097  
      91A      0.302239    92A      0.308580    93A      0.308814  
      94A      0.313875    95A      0.317719    96A      0.321276  
      97A      0.325489    98A      0.329788    99A      0.333899  
     100A      0.340028   101A      0.342197   102A      0.347166  
     103A      0.347758   104A      0.355085   105A      0.358148  
     106A      0.360960   107A      0.362100   108A      0.367569  
     109A      0.370572   110A      0.374595   111A      0.377192  
     112A      0.380170   113A      0.381989   114A      0.385798  
     115A      0.388100   116A      0.394353   117A      0.401654  
     118A      0.402260   119A      0.410202   120A      0.414590  
     121A      0.417794   122A      0.424770   123A      0.425425  
     124A      0.432749   125A      0.438278   126A      0.443242  
     127A      0.444905   128A      0.446566   129A      0.455334  
     130A      0.457025   131A      0.463818   132A      0.467829  
     133A      0.471541   134A      0.471868   135A      0.479080  
     136A      0.481806   137A      0.485328   138A      0.489076  
     139A      0.490259   140A      0.495784   141A      0.499908  
     142A      0.502493   143A      0.509516   144A      0.511415  
     145A      0.515172   146A      0.518282   147A      0.520937  
     148A      0.525799   149A      0.530362   150A      0.531424  
     151A      0.542189   152A      0.543561   153A      0.546168  
     154A      0.551252   155A      0.555651   156A      0.561305  
     157A      0.567334   158A      0.571029   159A      0.578705  
     160A      0.579169   161A      0.585707   162A      0.590513  
     163A      0.595406   164A      0.597474   165A      0.603681  
     166A      0.605546   167A      0.610805   168A      0.618471  
     169A      0.621727   170A      0.624520   171A      0.626976  
     172A      0.634559   173A      0.640187   174A      0.646415  
     175A      0.648552   176A      0.655942   177A      0.660505  
     178A      0.666329   179A      0.669296   180A      0.672426  
     181A      0.676715   182A      0.683951   183A      0.687621  
     184A      0.698267   185A      0.699198   186A      0.709490  
     187A      0.713089   188A      0.717525   189A      0.724419  
     190A      0.726786   191A      0.729842   192A      0.736390  
     193A      0.744141   194A      0.749514   195A      0.750998  
     196A      0.760424   197A      0.767959   198A      0.775083  
     199A      0.779859   200A      0.790711   201A      0.801145  
     202A      0.808247   203A      0.813174   204A      0.824733  
     205A      0.836398   206A      0.841526   207A      0.844203  
     208A      0.854317   209A      0.860103   210A      0.863361  
     211A      0.870659   212A      0.873334   213A      0.882723  
     214A      0.886023   215A      0.892637   216A      0.897432  
     217A      0.902352   218A      0.902754   219A      0.917078  
     220A      0.920610   221A      0.924907   222A      0.932979  
     223A      0.934910   224A      0.939755   225A      0.949109  
     226A      0.950432   227A      0.961095   228A      0.965717  
     229A      0.968882   230A      0.972862   231A      0.976796  
     232A      0.979555   233A      0.984522   234A      0.994139  
     235A      0.996257   236A      1.003548   237A      1.006929  
     238A      1.012617   239A      1.015129   240A      1.019343  
     241A      1.030207   242A      1.031355   243A      1.033394  
     244A      1.038136   245A      1.047768   246A      1.050128  
     247A      1.054600   248A      1.065757   249A      1.069475  
     250A      1.075412   251A      1.078899   252A      1.081726  
     253A      1.090127   254A      1.098198   255A      1.102746  
     256A      1.108484   257A      1.113340   258A      1.121802  
     259A      1.125551   260A      1.132587   261A      1.136218  
     262A      1.141384   263A      1.151343   264A      1.154914  
     265A      1.163687   266A      1.163859   267A      1.169417  
     268A      1.174077   269A      1.177733   270A      1.179376  
     271A      1.186546   272A      1.193022   273A      1.199665  
     274A      1.206356   275A      1.210742   276A      1.214751  
     277A      1.218237   278A      1.221982   279A      1.226581  
     280A      1.234893   281A      1.237977   282A      1.244622  
     283A      1.247252   284A      1.255347   285A      1.262413  
     286A      1.267068   287A      1.270428   288A      1.281824  
     289A      1.289937   290A      1.295578   291A      1.298725  
     292A      1.301133   293A      1.306672   294A      1.317665  
     295A      1.322398   296A      1.327910   297A      1.332016  
     298A      1.341554   299A      1.347897   300A      1.350850  
     301A      1.363809   302A      1.367900   303A      1.371369  
     304A      1.380383   305A      1.387921   306A      1.397278  
     307A      1.402000   308A      1.409905   309A      1.419765  
     310A      1.421233   311A      1.426158   312A      1.438397  
     313A      1.445352   314A      1.449458   315A      1.458367  
     316A      1.467302   317A      1.470255   318A      1.474164  
     319A      1.481731   320A      1.490277   321A      1.492620  
     322A      1.503465   323A      1.507167   324A      1.523963  
     325A      1.528842   326A      1.539075   327A      1.543555  
     328A      1.551760   329A      1.557332   330A      1.564780  
     331A      1.570738   332A      1.576205   333A      1.583890  
     334A      1.584661   335A      1.595608   336A      1.601670  
     337A      1.614060   338A      1.620851   339A      1.622714  
     340A      1.625973   341A      1.637097   342A      1.647449  
     343A      1.658286   344A      1.663113   345A      1.673428  
     346A      1.675850   347A      1.679331   348A      1.681722  
     349A      1.687441   350A      1.703686   351A      1.708369  
     352A      1.717315   353A      1.721747   354A      1.724244  
     355A      1.730179   356A      1.738637   357A      1.744275  
     358A      1.747335   359A      1.750138   360A      1.757997  
     361A      1.763253   362A      1.770084   363A      1.780769  
     364A      1.788319   365A      1.792471   366A      1.801649  
     367A      1.806846   368A      1.809394   369A      1.818173  
     370A      1.823185   371A      1.834498   372A      1.838305  
     373A      1.842633   374A      1.850180   375A      1.852735  
     376A      1.863914   377A      1.864779   378A      1.870516  
     379A      1.883623   380A      1.891602   381A      1.892271  
     382A      1.899640   383A      1.900793   384A      1.913253  
     385A      1.915994   386A      1.919855   387A      1.927547  
     388A      1.932368   389A      1.943274   390A      1.950797  
     391A      1.961220   392A      1.967431   393A      1.970290  
     394A      1.979912   395A      1.984369   396A      1.994026  
     397A      1.997215   398A      2.013014   399A      2.015169  
     400A      2.023322   401A      2.031094   402A      2.038859  
     403A      2.045335   404A      2.046328   405A      2.056187  
     406A      2.059803   407A      2.068349   408A      2.073593  
     409A      2.078574   410A      2.088094   411A      2.095598  
     412A      2.097845   413A      2.111063   414A      2.115095  
     415A      2.118234   416A      2.124920   417A      2.138304  
     418A      2.147759   419A      2.157430   420A      2.162849  
     421A      2.173735   422A      2.174786   423A      2.179322  
     424A      2.188058   425A      2.195569   426A      2.205778  
     427A      2.212159   428A      2.221240   429A      2.234632  
     430A      2.244594   431A      2.253283   432A      2.268902  
     433A      2.279358   434A      2.292530   435A      2.293914  
     436A      2.313568   437A      2.318736   438A      2.323459  
     439A      2.328259   440A      2.331885   441A      2.348734  
     442A      2.350258   443A      2.363983   444A      2.364502  
     445A      2.382343   446A      2.385488   447A      2.398011  
     448A      2.408594   449A      2.418221   450A      2.423102  
     451A      2.432409   452A      2.437190   453A      2.452609  
     454A      2.460816   455A      2.477236   456A      2.479979  
     457A      2.494985   458A      2.502317   459A      2.510228  
     460A      2.523029   461A      2.527864   462A      2.536664  
     463A      2.548523   464A      2.565698   465A      2.586208  
     466A      2.603508   467A      2.603754   468A      2.611512  
     469A      2.619808   470A      2.636528   471A      2.648114  
     472A      2.663047   473A      2.667092   474A      2.687304  
     475A      2.692635   476A      2.703015   477A      2.722773  
     478A      2.731330   479A      2.737910   480A      2.764849  
     481A      2.782894   482A      2.788044   483A      2.827019  
     484A      2.842239   485A      2.925628   486A      2.960889  
     487A      2.998841   488A      3.057774   489A      3.078877  
     490A      3.121969   491A      3.178518   492A      3.233706  
     493A      3.281923   494A      3.364850   495A      3.400867  
     496A      3.417754   497A      3.431790   498A      3.451715  
     499A      3.470615   500A      3.473783   501A      3.507984  
     502A      3.519852   503A      3.540215   504A      3.547422  
     505A      3.552162   506A      3.564016   507A      3.578334  
     508A      3.590027   509A      3.602562   510A      3.609879  
     511A      3.623288   512A      3.629269   513A      3.645220  
     514A      3.653108   515A      3.663161   516A      3.687573  
     517A      3.695209   518A      3.699993   519A      3.705460  
     520A      3.712198   521A      3.721778   522A      3.736847  
     523A      3.750386   524A      3.756623   525A      3.767915  
     526A      3.779561   527A      3.786664   528A      3.788569  
     529A      3.798790   530A      3.807008   531A      3.813627  
     532A      3.834031   533A      3.838920   534A      3.845174  
     535A      3.855920   536A      3.865176   537A      3.872588  
     538A      3.874197   539A      3.880803   540A      3.889324  
     541A      3.895674   542A      3.901437   543A      3.910532  
     544A      3.919596   545A      3.921481   546A      3.923182  
     547A      3.939775   548A      3.952573   549A      3.957603  
     550A      3.974188   551A      3.976786   552A      3.980609  
     553A      3.986109   554A      4.000660   555A      4.009819  
     556A      4.017713   557A      4.020824   558A      4.028128  
     559A      4.039888   560A      4.046353   561A      4.051684  
     562A      4.054461   563A      4.071720   564A      4.075190  
     565A      4.083148   566A      4.087185   567A      4.099103  
     568A      4.109168   569A      4.110252   570A      4.116193  
     571A      4.120786   572A      4.123123   573A      4.135502  
     574A      4.151240   575A      4.158139   576A      4.177454  
     577A      4.180583   578A      4.191929   579A      4.197839  
     580A      4.203110   581A      4.210378   582A      4.211683  
     583A      4.220025   584A      4.241753   585A      4.246679  
     586A      4.250923   587A      4.260580   588A      4.269431  
     589A      4.287697   590A      4.297295   591A      4.307145  
     592A      4.322970   593A      4.324145   594A      4.327522  
     595A      4.337524   596A      4.344251   597A      4.358584  
     598A      4.371282   599A      4.379175   600A      4.397013  
     601A      4.404378   602A      4.408555   603A      4.416492  
     604A      4.436499   605A      4.446276   606A      4.465143  
     607A      4.470627   608A      4.472798   609A      4.500059  
     610A      4.504979   611A      4.512328   612A      4.540635  
     613A      4.551311   614A      4.558257   615A      4.564431  
     616A      4.588984   617A      4.598448   618A      4.609786  
     619A      4.620223   620A      4.627288   621A      4.639393  
     622A      4.649881   623A      4.667754   624A      4.686783  
     625A      4.687372   626A      4.689149   627A      4.719971  
     628A      4.729322   629A      4.737486   630A      4.748338  
     631A      4.767432   632A      4.775729   633A      4.783963  
     634A      4.797196   635A      4.805198   636A      4.811761  
     637A      4.820886   638A      4.835598   639A      4.844720  
     640A      4.866105   641A      4.870529   642A      4.879888  
     643A      4.882047   644A      4.891191   645A      4.903265  
     646A      4.912541   647A      4.920624   648A      4.935075  
     649A      4.943844   650A      4.958903   651A      4.969708  
     652A      4.978282   653A      4.983994   654A      4.992473  
     655A      5.015400   656A      5.029135   657A      5.042928  
     658A      5.046522   659A      5.067216   660A      5.082873  
     661A      5.091242   662A      5.097843   663A      5.116979  
     664A      5.127348   665A      5.132735   666A      5.157461  
     667A      5.160806   668A      5.172022   669A      5.185260  
     670A      5.187696   671A      5.192004   672A      5.214431  
     673A      5.234238   674A      5.250164   675A      5.254860  
     676A      5.261426   677A      5.266564   678A      5.280407  
     679A      5.290011   680A      5.294506   681A      5.319567  
     682A      5.327017   683A      5.340659   684A      5.358703  
     685A      5.375704   686A      5.392100   687A      5.401472  
     688A      5.403957   689A      5.410780   690A      5.422068  
     691A      5.431662   692A      5.452721   693A      5.459888  
     694A      5.467603   695A      5.470040   696A      5.470843  
     697A      5.478510   698A      5.500511   699A      5.502129  
     700A      5.519868   701A      5.531304   702A      5.559007  
     703A      5.569834   704A      5.572651   705A      5.592120  
     706A      5.606592   707A      5.616824   708A      5.627654  
     709A      5.641106   710A      5.647878   711A      5.671590  
     712A      5.674472   713A      5.687214   714A      5.692953  
     715A      5.705551   716A      5.717078   717A      5.723273  
     718A      5.736008   719A      5.748321   720A      5.764560  
     721A      5.769638   722A      5.787022   723A      5.792279  
     724A      5.807767   725A      5.816466   726A      5.833505  
     727A      5.856458   728A      5.873842   729A      5.880365  
     730A      5.891985   731A      5.936839   732A      5.953873  
     733A      5.998530   734A      6.010463   735A      6.020502  
     736A      6.053668   737A      6.080012   738A      6.108193  
     739A      6.119058   740A      6.132848   741A      6.144088  
     742A      6.163204   743A      6.186721   744A      6.193200  
     745A      6.225118   746A      6.251817   747A      6.266816  
     748A      6.296251   749A      6.310630   750A      6.316627  
     751A      6.337435   752A      6.349020   753A      6.375729  
     754A      6.380477   755A      6.411875   756A      6.412220  
     757A      6.467128   758A      6.503826   759A      6.610318  
     760A      6.652852   761A      6.690722   762A      6.702129  
     763A      6.732422   764A      6.771129   765A      6.810917  
     766A      6.866744   767A      6.943977   768A      6.975400  
     769A      6.988492   770A      6.998294   771A      7.064570  
     772A      7.085955   773A      7.101186   774A      7.182446  
     775A     17.913541   776A     18.179672   777A     18.352886  
     778A     18.538370   779A     18.976510   780A     19.184700  
     781A     19.533809   782A     19.886021  

    Final Occupation by Irrep:
              A 
    DOCC [    33 ]

  Energy converged.

  @DF-RHF Final Energy:  -313.53624728168290

   => Energetics <=

    Nuclear Repulsion Energy =            406.1519704307249867
    One-Electron Energy =               -1227.4470856641316914
    Two-Electron Energy =                 507.7588679517240280
    DFT Exchange-Correlation Energy =       0.0000000000000000
    Empirical Dispersion Energy =           0.0000000000000000
    PCM Polarization Energy =               0.0000000000000000
    EFP Energy =                            0.0000000000000000
    Total Energy =                       -313.5362472816826767


  Saving occupied orbitals to File 180.

*** tstop() called on wr30 at Tue Sep 20 22:41:32 2016
Module time:
	user time   =     961.87 seconds =      16.03 minutes
	system time =      12.03 seconds =       0.20 minutes
	total time  =         89 seconds =       1.48 minutes
Total time:
	user time   =     961.87 seconds =      16.03 minutes
	system time =      12.03 seconds =       0.20 minutes
	total time  =         89 seconds =       1.48 minutes


Properties will be evaluated at   0.000000,   0.000000,   0.000000 Bohr

Properties computed using the SCF density matrix

  Nuclear Dipole Moment: (a.u.)
     X:     0.9259      Y:    -2.3205      Z:     0.1048

  Electronic Dipole Moment: (a.u.)
     X:    -0.9374      Y:     2.3569      Z:    -0.1104

  Dipole Moment: (a.u.)
     X:    -0.0115      Y:     0.0364      Z:    -0.0056     Total:     0.0386

  Dipole Moment: (Debye)
     X:    -0.0293      Y:     0.0925      Z:    -0.0143     Total:     0.0981


  //>>>>>>>>>>>>>>>>>>>>>>>>>>>>>>>>>>>//
  //               DFMP2               //
  //<<<<<<<<<<<<<<<<<<<<<<<<<<<<<<<<<<<//


*** tstart() called on wr30
*** at Tue Sep 20 22:41:32 2016


*** tstop() called on wr30 at Tue Sep 20 22:41:32 2016
Module time:
	user time   =       3.20 seconds =       0.05 minutes
	system time =       0.14 seconds =       0.00 minutes
	total time  =          0 seconds =       0.00 minutes
Total time:
	user time   =     965.17 seconds =      16.09 minutes
	system time =      12.17 seconds =       0.20 minutes
	total time  =         89 seconds =       1.48 minutes
	 --------------------------------------------------------
	                          DF-MP2                         
	      2nd-Order Density-Fitted Moller-Plesset Theory     
	              RMP2 Wavefunction,  12 Threads             
	                                                         
	        Rob Parrish, Justin Turney, Andy Simmonett,      
	           Ed Hohenstein, and C. David Sherrill          
	 --------------------------------------------------------

   => Auxiliary Basis Set <=

  Basis Set: 
    Number of shells: 476
    Number of basis function: 1676
    Number of Cartesian functions: 2078
    Spherical Harmonics?: true
    Max angular momentum: 4

	 --------------------------------------------------------
	                 NBF =   782, NAUX =  1676
	 --------------------------------------------------------
	   CLASS    FOCC     OCC    AOCC    AVIR     VIR    FVIR
	   PAIRS       8      33      25     749     749       0
	 --------------------------------------------------------

DGAS Warning! /src/lib/libfock/apps.cc:80 is not currently checking restricted

         ------------------------------------------------------------
                                     CPHF                           
                                  Rob Parrish                       
         ------------------------------------------------------------

  ==> Geometry <==

    Molecular point group: c1
    Full point group: C1

    Geometry (in Angstrom), charge = 0, multiplicity = 1:

       Center              X                  Y                   Z               Mass       
    ------------   -----------------  -----------------  -----------------  -----------------
           C          2.665946871439    -1.132590318055     0.337494620976    12.000000000000
           H          2.177213911061    -1.887378440734    -0.280889569955     1.007825032070
           H          2.183326316078    -1.137191253651     1.314374742895     1.007825032070
           H          3.701901353836    -1.439042458003     0.481089005273     1.007825032070
           C         -1.409789677940    -1.882149309164    -0.181830300237    12.000000000000
           H         -1.728439049782    -2.816594346301     0.281043535154     1.007825032070
           H         -0.380126443530    -1.697491694477     0.118208153346     1.007825032070
           H         -1.418440301615    -2.027272616520    -1.263339127900     1.007825032070
           C          2.583496516899     0.239316643673    -0.324058927141    12.000000000000
           H          3.144248167128     0.217507059255    -1.261179573379     1.007825032070
           H          3.070059075619     0.984200984880     0.311778999587     1.007825032070
           C         -2.339096754665    -0.734431464246     0.206144993503    12.000000000000
           H         -3.357316539412    -1.016497187636    -0.069624675608     1.007825032070
           H         -2.342794233620    -0.610549258953     1.293242899192     1.007825032070
           C          1.150698730709     0.684649221014    -0.610150954603    12.000000000000
           H          0.666122197250    -0.065113411992    -1.241624205930     1.007825032070
           H          1.169509509365     1.612266930524    -1.190582506119     1.007825032070
           C          0.324846098652     0.923223573156     0.649643565357    12.000000000000
           H          0.869429103459     1.622883904570     1.291704634672     1.007825032070
           H          0.226280922708     0.000263477622     1.224742392151     1.007825032070
           C         -1.060545600747     1.500359621735     0.365376307582    12.000000000000
           H         -1.551763959370     1.727745839425     1.316132086206     1.007825032070
           H         -0.939297105816     2.455072016831    -0.155635432896     1.007825032070
           C         -1.998505552898     0.609508313410    -0.452007363978    12.000000000000
           H         -2.921964059961     1.170985112260    -0.611086576982     1.007825032070
           H         -1.580284942629     0.430939003118    -1.446572774985     1.007825032070

  Nuclear repulsion =  406.151970430724987
  Reference energy  = -313.536247281682904

  ==> Basis Set <==

  Basis Set: AUG-CC-PVTZ
    Number of shells: 274
    Number of basis function: 782
    Number of Cartesian functions: 890
    Spherical Harmonics?: true
    Max angular momentum: 3

  ==> CGRSolver (by Rob Parrish) <==

   Number of roots    =         1
   Preconditioning    =    JACOBI
   Convergence cutoff =     1E-06
   Maximum iterations =       100

  ==> CPHFRHamiltonian (by Rob Parrish) <== 

  ==> DFJK: Density-Fitted J/K Matrices <==

    J tasked:                  Yes
    K tasked:                  Yes
    wK tasked:                  No
    OpenMP threads:             12
    Integrals threads:          12
    Memory (MB):             42915
    Algorithm:                Core
    Integral Cache:           NONE
    Schwarz Cutoff:          1E-12
    Fitting Condition:       1E-12

   => Auxiliary Basis Set <=

  Basis Set: 
    Number of shells: 492
    Number of basis function: 1660
    Number of Cartesian functions: 2038
    Spherical Harmonics?: true
    Max angular momentum: 4

  ==> CPHF Iterations <==

  => Iterations <=

             Iter  Converged  Remaining    Residual
  CGR           1          0          1   9.371E-02
  CGR           2          0          1   1.368E-02
  CGR           3          0          1   4.021E-03
  CGR           4          0          1   8.689E-04
  CGR           5          0          1   2.301E-04
  CGR           6          0          1   4.738E-05
  CGR           7          0          1   1.263E-05
  CGR           8          0          1   3.526E-06
  CGR           9          1          0   9.211E-07

    CGRSolver converged.

  ==> DFCorrGrad: Density-Fitted Correlated Gradients <==

    OpenMP threads:             12
    Integrals threads:          12
    Memory (MB):             42915
    Schwarz Cutoff:          0E+00
    Fitting Condition:       1E-12

   => Auxiliary Basis Set <=

  Basis Set: 
    Number of shells: 492
    Number of basis function: 1660
    Number of Cartesian functions: 2038
    Spherical Harmonics?: true
    Max angular momentum: 4

	-----------------------------------------------------------
	 ==================> DF-MP2 Energies <==================== 
	-----------------------------------------------------------
	 Reference Energy          =    -313.5362472816829040 [Eh]
	 Singles Energy            =      -0.0000000000000001 [Eh]
	 Same-Spin Energy          =      -0.3174586262303556 [Eh]
	 Opposite-Spin Energy      =      -1.1271461127737137 [Eh]
	 Correlation Energy        =      -1.4446047390040693 [Eh]
	 Total Energy              =    -314.9808520206869957 [Eh]
	-----------------------------------------------------------
	 ================> DF-SCS-MP2 Energies <================== 
	-----------------------------------------------------------
	 SCS Same-Spin Scale       =       0.3333333333333333 [-]
	 SCS Opposite-Spin Scale   =       1.2000000000000000 [-]
	 SCS Same-Spin Energy      =      -0.1058195420767852 [Eh]
	 SCS Opposite-Spin Energy  =      -1.3525753353284564 [Eh]
	 SCS Correlation Energy    =      -1.4583948774052415 [Eh]
	 SCS Total Energy          =    -314.9946421590881300 [Eh]
	-----------------------------------------------------------


  -Total Gradient:
     Atom            X                  Y                   Z
    ------   -----------------  -----------------  -----------------
       1        0.000000044972    -0.000000395745     0.000000162577
       2        0.000000252036     0.000000546275     0.000000326937
       3        0.000000299378     0.000000160043    -0.000000624489
       4       -0.000000505980     0.000000008470     0.000000012064
       5       -0.000000409065     0.000000053345     0.000000028260
       6       -0.000000115882    -0.000000230082     0.000000078273
       7        0.000000302148     0.000000075628     0.000000063405
       8       -0.000000015350    -0.000000070655    -0.000000240768
       9        0.000000399577     0.000000429121    -0.000000215124
      10       -0.000000299040    -0.000000010939     0.000000734769
      11       -0.000000319055    -0.000000548711    -0.000000420782
      12        0.000000412993     0.000000044039    -0.000000048388
      13       -0.000000163291    -0.000000269568    -0.000000153595
      14       -0.000000044601    -0.000000036235     0.000000212149
      15       -0.000000950362    -0.000000379171    -0.000000466707
      16        0.000000526429     0.000000368976     0.000000413536
      17       -0.000000125678    -0.000000352910     0.000000245515
      18        0.000000810651    -0.000000175003     0.000000388811
      19       -0.000000133706    -0.000000203626    -0.000000057244
      20        0.000000269013     0.000000416929    -0.000000291155
      21       -0.000000135867     0.000000351305    -0.000000249957
      22       -0.000000085412    -0.000000050094    -0.000000208316
      23        0.000000072920    -0.000000087632     0.000000123816
      24       -0.000000201470     0.000000176258     0.000000260795
      25        0.000000009459    -0.000000012129     0.000000013323
      26        0.000000105183     0.000000192112    -0.000000087705


			-----------------------------------------
			 OPTKING 2.0: for geometry optimizations 
			  - R.A. King,  Bethel University        
			-----------------------------------------

	Internal coordinates to be generated automatically.
	Detected frag 1 with atoms:  1 2 3 4 5 6 7 8 9 10 11 12 13 14 15 16 17 18 19 20
	 21 22 23 24 25 26
	---Fragment 1 Bond Connectivity---
	 1 : 2 3 4 9
	 2 : 1
	 3 : 1
	 4 : 1
	 5 : 6 7 8 12
	 6 : 5
	 7 : 5
	 8 : 5
	 9 : 1 10 11 15
	 10 : 9
	 11 : 9
	 12 : 5 13 14 24
	 13 : 12
	 14 : 12
	 15 : 9 16 17 18
	 16 : 15
	 17 : 15
	 18 : 15 19 20 21
	 19 : 18
	 20 : 18
	 21 : 18 22 23 24
	 22 : 21
	 23 : 21
	 24 : 12 21 25 26
	 25 : 24
	 26 : 24

	---Fragment 1 Geometry and Gradient---
	 C           5.0379094718       -2.1402855219        0.6377724050
	 H           4.1143380246       -3.5666283621       -0.5308043608
	 H           4.1258887961       -2.1489800301        2.4838083001
	 H           6.9955797297       -2.7193961392        0.9091264655
	 C          -2.6641163963       -3.5567467355       -0.3436094701
	 H          -3.2662764415       -5.3225919419        0.5310953129
	 H          -0.7183348741       -3.2077944154        0.2233810365
	 H          -2.6804637059       -3.8309900419       -2.3873649647
	 C           4.8821008822        0.4522429156       -0.6123826232
	 H           5.9417679297        0.4110287740       -2.3832839981
	 H           5.8015708647        1.8598703211        0.5891769232
	 C          -4.4202522646       -1.3878743308        0.3895575814
	 H          -6.3444088009       -1.9209012995       -0.1315715690
	 H          -4.4272394872       -1.1537708901        2.4438749028
	 C           2.1745054625        1.2937995248       -1.1530182039
	 H           1.2587885238       -0.1230465162       -2.3463297092
	 H           2.2100526825        3.0467429518       -2.2498748752
	 C           0.6138701618        1.7446397127        1.2276484225
	 H           1.6429828975        3.0668061251        2.4409680041
	 H           0.4276089730        0.0004979005        2.3144277045
	 C          -2.0041407368        2.8352687859        0.6904611568
	 H          -2.9324089061        3.2649664637        2.4871291976
	 H          -1.7750142874        4.6394137483       -0.2941083447
	 C          -3.7766281700        1.1518037881       -0.8541701280
	 H          -5.5217118435        2.2128411679       -1.1547862740
	 H          -2.9863057535        0.8143566959       -2.7336263760
	             0.0000000450       -0.0000003957        0.0000001626
	             0.0000002520        0.0000005463        0.0000003269
	             0.0000002994        0.0000001600       -0.0000006245
	            -0.0000005060        0.0000000085        0.0000000121
	            -0.0000004091        0.0000000533        0.0000000283
	            -0.0000001159       -0.0000002301        0.0000000783
	             0.0000003021        0.0000000756        0.0000000634
	            -0.0000000153       -0.0000000707       -0.0000002408
	             0.0000003996        0.0000004291       -0.0000002151
	            -0.0000002990       -0.0000000109        0.0000007348
	            -0.0000003191       -0.0000005487       -0.0000004208
	             0.0000004130        0.0000000440       -0.0000000484
	            -0.0000001633       -0.0000002696       -0.0000001536
	            -0.0000000446       -0.0000000362        0.0000002121
	            -0.0000009504       -0.0000003792       -0.0000004667
	             0.0000005264        0.0000003690        0.0000004135
	            -0.0000001257       -0.0000003529        0.0000002455
	             0.0000008107       -0.0000001750        0.0000003888
	            -0.0000001337       -0.0000002036       -0.0000000572
	             0.0000002690        0.0000004169       -0.0000002912
	            -0.0000001359        0.0000003513       -0.0000002500
	            -0.0000000854       -0.0000000501       -0.0000002083
	             0.0000000729       -0.0000000876        0.0000001238
	            -0.0000002015        0.0000001763        0.0000002608
	             0.0000000095       -0.0000000121        0.0000000133
	             0.0000001052        0.0000001921       -0.0000000877

	Previous optimization step data not found.  Starting new optimization.

	---Fragment 1 Intrafragment Coordinates---
	 - Coordinate -           - BOHR/RAD -       - ANG/DEG -
	 R(1,2)           =         2.062283	       1.091313
	 R(1,3)           =         2.059055	       1.089605
	 R(1,4)           =         2.059484	       1.089832
	 R(1,9)           =         2.882424	       1.525313
	 R(5,6)           =         2.060562	       1.090402
	 R(5,7)           =         2.056529	       1.088268
	 R(5,8)           =         2.062138	       1.091236
	 R(5,12)          =         2.885404	       1.526890
	 R(9,10)          =         2.064143	       1.092297
	 R(9,11)          =         2.066539	       1.093566
	 R(9,15)          =         2.886447	       1.527442
	 R(12,13)         =         2.063510	       1.091962
	 R(12,14)         =         2.067625	       1.094140
	 R(12,24)         =         2.900185	       1.534712
	 R(15,16)         =         2.066394	       1.093488
	 R(15,17)         =         2.068132	       1.094408
	 R(15,18)         =         2.882085	       1.525134
	 R(18,19)         =         2.068657	       1.094686
	 R(18,20)         =         2.063447	       1.091929
	 R(18,21)         =         2.886524	       1.527483
	 R(21,22)         =         2.067447	       1.094046
	 R(21,23)         =         2.068046	       1.094363
	 R(21,24)         =         2.891652	       1.530196
	 R(24,25)         =         2.064337	       1.092400
	 R(24,26)         =         2.066600	       1.093598
	 B(1,9,10)        =         1.903281	     109.049947
	 B(1,9,11)        =         1.913906	     109.658740
	 B(1,9,15)        =         1.975964	     113.214399
	 B(2,1,3)         =         1.882560	     107.862748
	 B(2,1,4)         =         1.881657	     107.810985
	 B(2,1,9)         =         1.930613	     110.616002
	 B(3,1,4)         =         1.877293	     107.560946
	 B(3,1,9)         =         1.948409	     111.635585
	 B(4,1,9)         =         1.940608	     111.188644
	 B(5,12,13)       =         1.885138	     108.010452
	 B(5,12,14)       =         1.917313	     109.853915
	 B(5,12,24)       =         1.997857	     114.468762
	 B(6,5,7)         =         1.880598	     107.750339
	 B(6,5,8)         =         1.880135	     107.723807
	 B(6,5,12)        =         1.937391	     111.004314
	 B(7,5,8)         =         1.878962	     107.656588
	 B(7,5,12)        =         1.958705	     112.225544
	 B(8,5,12)        =         1.925135	     110.302082
	 B(9,15,16)       =         1.900693	     108.901669
	 B(9,15,17)       =         1.907455	     109.289121
	 B(9,15,18)       =         1.981043	     113.505375
	 B(10,9,11)       =         1.858781	     106.500289
	 B(10,9,15)       =         1.903594	     109.067891
	 B(11,9,15)       =         1.904637	     109.127648
	 B(12,24,21)      =         2.000686	     114.630865
	 B(12,24,25)      =         1.901744	     108.961913
	 B(12,24,26)      =         1.909104	     109.383580
	 B(13,12,14)      =         1.851483	     106.082151
	 B(13,12,24)      =         1.901636	     108.955710
	 B(14,12,24)      =         1.904648	     109.128319
	 B(15,18,19)      =         1.891338	     108.365689
	 B(15,18,20)      =         1.930191	     110.591800
	 B(15,18,21)      =         1.978501	     113.359782
	 B(16,15,17)      =         1.857202	     106.409829
	 B(16,15,18)      =         1.922300	     110.139703
	 B(17,15,18)      =         1.891052	     108.349285
	 B(18,21,22)      =         1.900780	     108.906656
	 B(18,21,23)      =         1.894134	     108.525875
	 B(18,21,24)      =         2.021266	     115.810021
	 B(19,18,20)      =         1.850669	     106.035517
	 B(19,18,21)      =         1.895328	     108.594291
	 B(20,18,21)      =         1.912947	     109.603765
	 B(21,24,25)      =         1.872059	     107.261074
	 B(21,24,26)      =         1.924574	     110.269968
	 B(22,21,23)      =         1.856842	     106.389188
	 B(22,21,24)      =         1.885979	     108.058648
	 B(23,21,24)      =         1.898101	     108.753149
	 B(25,24,26)      =         1.849151	     105.948522
	 D(1,9,15,16)     =        -0.999737	     -57.280732
	 D(1,9,15,17)     =        -3.021911	    -173.142720
	 D(1,9,15,18)     =         1.148388	      65.797799
	 D(2,1,9,10)      =        -1.120603	     -64.205830
	 D(2,1,9,11)      =         3.133480	     179.535164
	 D(2,1,9,15)      =         1.001926	      57.406114
	 D(3,1,9,10)      =         3.066130	     175.676336
	 D(3,1,9,11)      =         1.037028	      59.417330
	 D(3,1,9,15)      =        -1.094526	     -62.711720
	 D(4,1,9,10)      =         0.969562	      55.551785
	 D(4,1,9,11)      =        -1.059541	     -60.707221
	 D(4,1,9,15)      =         3.092090	     177.163729
	 D(5,12,24,21)    =        -1.604215	     -91.914736
	 D(5,12,24,25)    =         2.581471	     147.907379
	 D(5,12,24,26)    =         0.567419	      32.510735
	 D(6,5,12,13)     =        -0.975990	     -55.920135
	 D(6,5,12,14)     =         1.036081	      59.363073
	 D(6,5,12,24)     =        -3.097425	    -177.469397
	 D(7,5,12,13)     =        -3.081585	    -176.561799
	 D(7,5,12,14)     =        -1.069513	     -61.278591
	 D(7,5,12,24)     =         1.080166	      61.888939
	 D(8,5,12,13)     =         1.106598	      63.403395
	 D(8,5,12,14)     =         3.118670	     178.686603
	 D(8,5,12,24)     =        -1.014837	     -58.145867
	 D(9,15,18,19)    =         0.936395	      53.651488
	 D(9,15,18,20)    =        -1.085168	     -62.175560
	 D(9,15,18,21)    =         3.041638	     174.272994
	 D(10,9,15,16)    =         1.122616	      64.321138
	 D(10,9,15,17)    =        -0.899558	     -51.540850
	 D(10,9,15,18)    =        -3.012444	    -172.600331
	 D(11,9,15,16)    =        -3.136458	    -179.705781
	 D(11,9,15,17)    =         1.124555	      64.432231
	 D(11,9,15,18)    =        -0.988332	     -56.627250
	 D(12,24,21,18)   =         1.072851	      61.469807
	 D(12,24,21,22)   =        -1.063960	     -60.960432
	 D(12,24,21,23)   =        -3.072744	    -176.055290
	 D(13,12,24,21)   =         2.566610	     147.055906
	 D(13,12,24,25)   =         0.469110	      26.878021
	 D(13,12,24,26)   =        -1.544941	     -88.518623
	 D(14,12,24,21)   =         0.552272	      31.642841
	 D(14,12,24,25)   =        -1.545228	     -88.535044
	 D(14,12,24,26)   =         2.723906	     156.068312
	 D(15,18,21,22)   =        -3.051711	    -174.850153
	 D(15,18,21,23)   =        -1.037169	     -59.425434
	 D(15,18,21,24)   =         1.102518	      63.169641
	 D(16,15,18,19)   =         3.072605	     176.047297
	 D(16,15,18,20)   =         1.051042	      60.220248
	 D(16,15,18,21)   =        -1.105338	     -63.331197
	 D(17,15,18,19)   =        -1.185678	     -67.934329
	 D(17,15,18,20)   =         3.075944	     176.238623
	 D(17,15,18,21)   =         0.919565	      52.687177
	 D(18,21,24,25)   =        -3.096448	    -177.413385
	 D(18,21,24,26)   =        -1.090573	     -62.485227
	 D(19,18,21,22)   =        -0.948727	     -54.358055
	 D(19,18,21,23)   =         1.065814	      61.066663
	 D(19,18,21,24)   =        -3.077683	    -176.338262
	 D(20,18,21,22)   =         1.065677	      61.058785
	 D(20,18,21,23)   =         3.080218	     176.483503
	 D(20,18,21,24)   =        -1.063279	     -60.921422
	 D(22,21,24,25)   =         1.049927	      60.156376
	 D(22,21,24,26)   =         3.055802	     175.084534
	 D(23,21,24,25)   =        -0.958857	     -54.938481
	 D(23,21,24,26)   =         1.047017	      59.989676
	 R(5,15)          =         6.898928	       3.650755
	 R(5,18)          =         6.427966	       3.401533

	Current energy   :      -314.9808520207

	Generating empirical Hessian (Schlegel '84) for each fragment.
	Taking RFO optimization step.
	Going to follow RFO solution 1.
	Using RFO vector 1.
	Norm of target step-size    0.00017
	Projected energy change by RFO approximation:        -0.0000000002

	Back-transformation to cartesian coordinates...
	Successfully converged to displaced geometry.

	--- Internal Coordinate Step in ANG or DEG, aJ/ANG or AJ/DEG ---
	 ---------------------------------------------------------------------------
	   Coordinate                Previous        Force       Change         New 
	   ----------                --------       ------       ------       ------
	    1 R(1,2)          =      1.091313     0.000006     0.000001     1.091314
	    2 R(1,3)          =      1.089605     0.000006     0.000001     1.089606
	    3 R(1,4)          =      1.089832     0.000004     0.000001     1.089833
	    4 R(1,9)          =      1.525313     0.000003     0.000001     1.525314
	    5 R(5,6)          =      1.090402    -0.000002    -0.000000     1.090402
	    6 R(5,7)          =      1.088268    -0.000003    -0.000000     1.088268
	    7 R(5,8)          =      1.091236    -0.000002    -0.000000     1.091236
	    8 R(5,12)         =      1.526890     0.000001     0.000000     1.526890
	    9 R(9,10)         =      1.092297     0.000006     0.000001     1.092298
	   10 R(9,11)         =      1.093566     0.000006     0.000001     1.093567
	   11 R(9,15)         =      1.527442     0.000001     0.000000     1.527442
	   12 R(12,13)        =      1.091962    -0.000002    -0.000000     1.091962
	   13 R(12,14)        =      1.094140    -0.000002    -0.000000     1.094140
	   14 R(12,24)        =      1.534712    -0.000002    -0.000001     1.534711
	   15 R(15,16)        =      1.093488     0.000006     0.000001     1.093490
	   16 R(15,17)        =      1.094408     0.000004     0.000001     1.094409
	   17 R(15,18)        =      1.525134     0.000004     0.000001     1.525134
	   18 R(18,19)        =      1.094686     0.000002     0.000000     1.094686
	   19 R(18,20)        =      1.091929     0.000004     0.000001     1.091930
	   20 R(18,21)        =      1.527483    -0.000003    -0.000001     1.527482
	   21 R(21,22)        =      1.094046     0.000001     0.000000     1.094046
	   22 R(21,23)        =      1.094363     0.000001     0.000000     1.094363
	   23 R(21,24)        =      1.530196     0.000001    -0.000000     1.530196
	   24 R(24,25)        =      1.092400     0.000000     0.000000     1.092400
	   25 R(24,26)        =      1.093598    -0.000001    -0.000000     1.093598
	   26 B(1,9,10)       =    109.049947    -0.000000    -0.000032   109.049915
	   27 B(1,9,11)       =    109.658740    -0.000000     0.000055   109.658795
	   28 B(1,9,15)       =    113.214399     0.000000     0.000075   113.214474
	   29 B(2,1,3)        =    107.862748    -0.000000    -0.000012   107.862736
	   30 B(2,1,4)        =    107.810985     0.000000    -0.000026   107.810959
	   31 B(2,1,9)        =    110.616002     0.000000     0.000053   110.616055
	   32 B(3,1,4)        =    107.560946     0.000000     0.000004   107.560949
	   33 B(3,1,9)        =    111.635585     0.000000     0.000109   111.635694
	   34 B(4,1,9)        =    111.188644    -0.000000    -0.000130   111.188513
	   35 B(5,12,13)      =    108.010452     0.000000     0.000186   108.010638
	   36 B(5,12,14)      =    109.853915     0.000000    -0.000021   109.853895
	   37 B(5,12,24)      =    114.468762    -0.000000    -0.000122   114.468640
	   38 B(6,5,7)        =    107.750339    -0.000000    -0.000024   107.750316
	   39 B(6,5,8)        =    107.723807     0.000000     0.000024   107.723831
	   40 B(6,5,12)       =    111.004314     0.000000     0.000011   111.004325
	   41 B(7,5,8)        =    107.656588     0.000000    -0.000002   107.656586
	   42 B(7,5,12)       =    112.225544     0.000000    -0.000006   112.225539
	   43 B(8,5,12)       =    110.302082    -0.000000    -0.000004   110.302078
	   44 B(9,15,16)      =    108.901669    -0.000000     0.000045   108.901714
	   45 B(9,15,17)      =    109.289121    -0.000000    -0.000045   109.289076
	   46 B(9,15,18)      =    113.505375     0.000000     0.000123   113.505498
	   47 B(10,9,11)      =    106.500289     0.000000     0.000002   106.500291
	   48 B(10,9,15)      =    109.067891    -0.000000    -0.000102   109.067789
	   49 B(11,9,15)      =    109.127648    -0.000000    -0.000003   109.127645
	   50 B(12,24,21)     =    114.630865    -0.000000    -0.000123   114.630742
	   51 B(12,24,25)     =    108.961913     0.000000     0.000043   108.961956
	   52 B(12,24,26)     =    109.383580    -0.000000    -0.000080   109.383501
	   53 B(13,12,14)     =    106.082151    -0.000000     0.000006   106.082157
	   54 B(13,12,24)     =    108.955710    -0.000000     0.000015   108.955726
	   55 B(14,12,24)     =    109.128319     0.000000    -0.000053   109.128266
	   56 B(15,18,19)     =    108.365689    -0.000000    -0.000021   108.365668
	   57 B(15,18,20)     =    110.591800     0.000000     0.000055   110.591855
	   58 B(15,18,21)     =    113.359782     0.000000     0.000028   113.359809
	   59 B(16,15,17)     =    106.409829     0.000000    -0.000045   106.409784
	   60 B(16,15,18)     =    110.139703    -0.000000    -0.000079   110.139625
	   61 B(17,15,18)     =    108.349285    -0.000000    -0.000011   108.349274
	   62 B(18,21,22)     =    108.906656    -0.000000    -0.000066   108.906590
	   63 B(18,21,23)     =    108.525875     0.000000     0.000086   108.525961
	   64 B(18,21,24)     =    115.810021     0.000000    -0.000114   115.809907
	   65 B(19,18,20)     =    106.035517     0.000000     0.000050   106.035566
	   66 B(19,18,21)     =    108.594291     0.000000     0.000067   108.594358
	   67 B(20,18,21)     =    109.603765    -0.000000    -0.000174   109.603591
	   68 B(21,24,25)     =    107.261074    -0.000000     0.000043   107.261117
	   69 B(21,24,26)     =    110.269968     0.000000     0.000094   110.270062
	   70 B(22,21,23)     =    106.389188     0.000000     0.000029   106.389218
	   71 B(22,21,24)     =    108.058648     0.000000     0.000060   108.058707
	   72 B(23,21,24)     =    108.753149    -0.000000     0.000016   108.753165
	   73 B(25,24,26)     =    105.948522    -0.000000     0.000037   105.948559
	   74 D(1,9,15,16)    =    -57.280732     0.000000     0.001150   -57.279582
	   75 D(1,9,15,17)    =   -173.142720     0.000000     0.001204  -173.141516
	   76 D(1,9,15,18)    =     65.797799     0.000000     0.001168    65.798967
	   77 D(2,1,9,10)     =    -64.205830     0.000000     0.000460   -64.205370
	   78 D(2,1,9,11)     =    179.535164     0.000000     0.000445   179.535609
	   79 D(2,1,9,15)     =     57.406114     0.000000     0.000357    57.406472
	   80 D(3,1,9,10)     =    175.676336     0.000000     0.000367   175.676703
	   81 D(3,1,9,11)     =     59.417330    -0.000000     0.000351    59.417682
	   82 D(3,1,9,15)     =    -62.711720    -0.000000     0.000264   -62.711456
	   83 D(4,1,9,10)     =     55.551785     0.000000     0.000377    55.552162
	   84 D(4,1,9,11)     =    -60.707221    -0.000000     0.000362   -60.706859
	   85 D(4,1,9,15)     =    177.163729    -0.000000     0.000274   177.164003
	   86 D(5,12,24,21)   =    -91.914736    -0.000000     0.000392   -91.914344
	   87 D(5,12,24,25)   =    147.907379     0.000000     0.000387   147.907766
	   88 D(5,12,24,26)   =     32.510735     0.000000     0.000363    32.511098
	   89 D(6,5,12,13)    =    -55.920135    -0.000000     0.000089   -55.920046
	   90 D(6,5,12,14)    =     59.363073     0.000000     0.000189    59.363262
	   91 D(6,5,12,24)    =   -177.469397    -0.000000     0.000014  -177.469383
	   92 D(7,5,12,13)    =   -176.561799    -0.000000     0.000116  -176.561684
	   93 D(7,5,12,14)    =    -61.278591     0.000000     0.000215   -61.278376
	   94 D(7,5,12,24)    =     61.888939     0.000000     0.000040    61.888979
	   95 D(8,5,12,13)    =     63.403395    -0.000000     0.000124    63.403519
	   96 D(8,5,12,14)    =    178.686603     0.000000     0.000223   178.686827
	   97 D(8,5,12,24)    =    -58.145867     0.000000     0.000049   -58.145818
	   98 D(9,15,18,19)   =     53.651488     0.000000     0.002547    53.654035
	   99 D(9,15,18,20)   =    -62.175560    -0.000000     0.002469   -62.173091
	  100 D(9,15,18,21)   =    174.272994     0.000000     0.002635   174.275629
	  101 D(10,9,15,16)   =     64.321138     0.000000     0.001087    64.322225
	  102 D(10,9,15,17)   =    -51.540850     0.000000     0.001140   -51.539710
	  103 D(10,9,15,18)   =   -172.600331     0.000000     0.001104  -172.599227
	  104 D(11,9,15,16)   =   -179.705781    -0.000000     0.001031  -179.704750
	  105 D(11,9,15,17)   =     64.432231     0.000000     0.001084    64.433315
	  106 D(11,9,15,18)   =    -56.627250    -0.000000     0.001048   -56.626202
	  107 D(12,24,21,18)  =     61.469807     0.000000     0.000054    61.469860
	  108 D(12,24,21,22)  =    -60.960432     0.000000     0.000173   -60.960259
	  109 D(12,24,21,23)  =   -176.055290     0.000000     0.000099  -176.055191
	  110 D(13,12,24,21)  =    147.055906    -0.000000     0.000224   147.056130
	  111 D(13,12,24,25)  =     26.878021    -0.000000     0.000219    26.878240
	  112 D(13,12,24,26)  =    -88.518623    -0.000000     0.000194   -88.518429
	  113 D(14,12,24,21)  =     31.642841    -0.000000     0.000237    31.643078
	  114 D(14,12,24,25)  =    -88.535044     0.000000     0.000232   -88.534812
	  115 D(14,12,24,26)  =    156.068312     0.000000     0.000207   156.068519
	  116 D(15,18,21,22)  =   -174.850153     0.000000     0.001309  -174.848844
	  117 D(15,18,21,23)  =    -59.425434     0.000000     0.001355   -59.424079
	  118 D(15,18,21,24)  =     63.169641     0.000000     0.001363    63.171004
	  119 D(16,15,18,19)  =    176.047297     0.000000     0.002634   176.049931
	  120 D(16,15,18,20)  =     60.220248     0.000000     0.002556    60.222805
	  121 D(16,15,18,21)  =    -63.331197     0.000000     0.002722   -63.328475
	  122 D(17,15,18,19)  =    -67.934329     0.000000     0.002531   -67.931798
	  123 D(17,15,18,20)  =    176.238623    -0.000000     0.002453   176.241075
	  124 D(17,15,18,21)  =     52.687177     0.000000     0.002619    52.689796
	  125 D(18,21,24,25)  =   -177.413385    -0.000000     0.000061  -177.413324
	  126 D(18,21,24,26)  =    -62.485227     0.000000     0.000177   -62.485050
	  127 D(19,18,21,22)  =    -54.358055     0.000000     0.001348   -54.356708
	  128 D(19,18,21,23)  =     61.066663     0.000000     0.001393    61.068057
	  129 D(19,18,21,24)  =   -176.338262     0.000000     0.001402  -176.336860
	  130 D(20,18,21,22)  =     61.058785     0.000000     0.001350    61.060134
	  131 D(20,18,21,23)  =    176.483503     0.000000     0.001395   176.484899
	  132 D(20,18,21,24)  =    -60.921422     0.000000     0.001404   -60.920018
	  133 D(22,21,24,25)  =     60.156376     0.000000     0.000180    60.156557
	  134 D(22,21,24,26)  =    175.084534     0.000000     0.000297   175.084830
	  135 D(23,21,24,25)  =    -54.938481    -0.000000     0.000106   -54.938375
	  136 D(23,21,24,26)  =     59.989676     0.000000     0.000222    59.989898
	  137 R(5,15)         =      3.650755     0.000001     0.000018     3.650773
	  138 R(5,18)         =      3.401533    -0.000003    -0.000015     3.401518
	 ---------------------------------------------------------------------------

  ==> Convergence Check <==

  Measures of convergence in internal coordinates in au.
  Criteria marked as inactive (o), active & met (*), and active & unmet ( ).
  --------------------------------------------------------------------------------------------- ~
   Step     Total Energy     Delta E     MAX Force     RMS Force      MAX Disp      RMS Disp    ~
  --------------------------------------------------------------------------------------------- ~
    Convergence Criteria             o    2.00e-06 *    1.00e-06 *    6.00e-06 *    4.00e-06 *  ~
  --------------------------------------------------------------------------------------------- ~
      1    -314.98085202   -3.15e+02 o    7.87e-07 *    2.05e-07 *    4.75e-05      1.46e-05    ~
  ---------------------------------------------------------------------------------------------

	Writing optimization data to binary file.
	Structure for next step:
	Cartesian Geometry (in Angstrom)
	    C     2.6659008472  -1.1326278566   0.3374478755
	    H     2.1771734261  -1.8873779820  -0.2809888948
	    H     2.1832520853  -1.1372711161   1.3143150243
	    H     3.7018471822  -1.4391037049   0.4810559943
	    C    -1.4097531919  -1.8821488089  -0.1817849941
	    H    -1.7283929752  -2.8165896123   0.2811030436
	    H    -0.3800966208  -1.6974698164   0.1182614405
	    H    -1.4183893906  -2.0272925004  -1.2632908188
	    C     2.5834940396   0.2393142248  -0.3240395666
	    H     3.1442676074   0.2175390772  -1.2611493035
	    H     3.0700573693   0.9841584768   0.3118467394
	    C    -2.3390822199  -0.7344376568   0.2061582007
	    H    -3.3572957016  -1.0165217747  -0.0696143391
	    H    -2.3427905930  -0.6105328011   1.2932531725
	    C     1.1507125573   0.6846913153  -0.6101455836
	    H     0.6661284483  -0.0650399738  -1.2416521669
	    H     1.1695584613   1.6123266395  -1.1905491047
	    C     0.3248385851   0.9232483376   0.6496390849
	    H     0.8694045346   1.6229114516   1.2917121943
	    H     0.2262742452   0.0002830847   1.2247313202
	    C    -1.0605561651   1.5003674676   0.3653561023
	    H    -1.5517804585   1.7277634905   1.3161067472
	    H    -0.9393151378   2.4550729209  -0.1556704980
	    C    -1.9985023315   0.6094926630  -0.4520177656
	    H    -2.9219657037   1.1709569958  -0.6111129043
	    H    -1.5802743471   0.4309074005  -1.4465770535
			--------------------------
			 OPTKING Finished Execution 
			--------------------------

    Structure for next step:
    Molecular point group: c1
    Full point group: C1

    Geometry (in Angstrom), charge = 0, multiplicity = 1:

    C            2.665900703788    -1.132629147461     0.337447739505
    H            2.177173282670    -1.887379272896    -0.280989030789
    H            2.183251941878    -1.137272406997     1.314314888305
    H            3.701847038817    -1.439104995814     0.481055858261
    C           -1.409753335366    -1.882150099766    -0.181785130082
    H           -1.728393118668    -2.816590903247     0.281102907599
    H           -0.380096764212    -1.697471107271     0.118261304507
    H           -1.418389534054    -2.027293791302    -1.263290954807
    C            2.583493896187     0.239312933873    -0.324039702549
    H            3.144267463974     0.217537786317    -1.261149439444
    H            3.070057225895     0.984157185923     0.311846603419
    C           -2.339082363320    -0.734438947739     0.206158064695
    H           -3.357295845014    -1.016523065636    -0.069614475080
    H           -2.342790736465    -0.610534092022     1.293253036479
    C            1.150712413842     0.684690024447    -0.610145719621
    H            0.666128304864    -0.065041264724    -1.241652302921
    H            1.169558317911     1.612325348576    -1.190549240641
    C            0.324838441670     0.923247046672     0.649638948934
    H            0.869404391219     1.622910160678     1.291712058345
    H            0.226274101794     0.000281793837     1.224731184175
    C           -1.060556308516     1.500366176674     0.365355966325
    H           -1.551780601948     1.727762199633     1.316106611227
    H           -0.939315281260     2.455071630038    -0.155670634007
    C           -1.998502474929     0.609491372104    -0.452017901573
    H           -2.921965847140     1.170955704903    -0.611113040336
    H           -1.580274490548     0.430906109573    -1.446577189471

gradient() will perform analytic gradient computation.

*** tstart() called on wr30
*** at Tue Sep 20 22:47:13 2016


         ---------------------------------------------------------
                                   SCF
            by Justin Turney, Rob Parrish, and Andy Simmonett
                              RHF Reference
                       12 Threads,  60000 MiB Core
         ---------------------------------------------------------

  ==> Geometry <==

    Molecular point group: c1
    Full point group: C1

    Geometry (in Angstrom), charge = 0, multiplicity = 1:

       Center              X                  Y                   Z               Mass       
    ------------   -----------------  -----------------  -----------------  -----------------
           C          2.665900703788    -1.132629147461     0.337447739505    12.000000000000
           H          2.177173282670    -1.887379272896    -0.280989030789     1.007825032070
           H          2.183251941878    -1.137272406997     1.314314888305     1.007825032070
           H          3.701847038817    -1.439104995814     0.481055858261     1.007825032070
           C         -1.409753335366    -1.882150099766    -0.181785130082    12.000000000000
           H         -1.728393118668    -2.816590903247     0.281102907599     1.007825032070
           H         -0.380096764212    -1.697471107271     0.118261304507     1.007825032070
           H         -1.418389534054    -2.027293791302    -1.263290954807     1.007825032070
           C          2.583493896187     0.239312933873    -0.324039702549    12.000000000000
           H          3.144267463974     0.217537786317    -1.261149439444     1.007825032070
           H          3.070057225895     0.984157185923     0.311846603419     1.007825032070
           C         -2.339082363320    -0.734438947739     0.206158064695    12.000000000000
           H         -3.357295845014    -1.016523065636    -0.069614475080     1.007825032070
           H         -2.342790736465    -0.610534092022     1.293253036479     1.007825032070
           C          1.150712413842     0.684690024447    -0.610145719621    12.000000000000
           H          0.666128304864    -0.065041264724    -1.241652302921     1.007825032070
           H          1.169558317911     1.612325348576    -1.190549240641     1.007825032070
           C          0.324838441670     0.923247046672     0.649638948934    12.000000000000
           H          0.869404391219     1.622910160678     1.291712058345     1.007825032070
           H          0.226274101794     0.000281793837     1.224731184175     1.007825032070
           C         -1.060556308516     1.500366176674     0.365355966325    12.000000000000
           H         -1.551780601948     1.727762199633     1.316106611227     1.007825032070
           H         -0.939315281260     2.455071630038    -0.155670634007     1.007825032070
           C         -1.998502474929     0.609491372104    -0.452017901573    12.000000000000
           H         -2.921965847140     1.170955704903    -0.611113040336     1.007825032070
           H         -1.580274490548     0.430906109573    -1.446577189471     1.007825032070

  Running in c1 symmetry.

  Rotational constants: A =      0.08993  B =      0.03745  C =      0.02966 [cm^-1]
  Rotational constants: A =   2695.92496  B =   1122.71286  C =    889.28445 [MHz]
  Nuclear repulsion =  406.152336472329466

  Charge       = 0
  Multiplicity = 1
  Electrons    = 66
  Nalpha       = 33
  Nbeta        = 33

  ==> Algorithm <==

  SCF Algorithm Type is DF.
  DIIS enabled.
  MOM disabled.
  Fractional occupation disabled.
  Guess Type is READ.
  Energy threshold   = 1.00e-10
  Density threshold  = 1.00e-10
  Integral threshold = 0.00e+00

  ==> Primary Basis <==

  Basis Set: AUG-CC-PVTZ
    Number of shells: 274
    Number of basis function: 782
    Number of Cartesian functions: 890
    Spherical Harmonics?: true
    Max angular momentum: 3

  ==> Pre-Iterations <==

   -------------------------------------------------------
    Irrep   Nso     Nmo     Nalpha   Nbeta   Ndocc  Nsocc
   -------------------------------------------------------
     A        782     782       0       0       0       0
   -------------------------------------------------------
    Total     782     782      33      33      33       0
   -------------------------------------------------------

  ==> Integral Setup <==

  ==> DFJK: Density-Fitted J/K Matrices <==

    J tasked:                  Yes
    K tasked:                  Yes
    wK tasked:                  No
    OpenMP threads:             12
    Integrals threads:          12
    Memory (MB):             42915
    Algorithm:                Core
    Integral Cache:           NONE
    Schwarz Cutoff:          1E-12
    Fitting Condition:       1E-12

   => Auxiliary Basis Set <=

  Basis Set: 
    Number of shells: 492
    Number of basis function: 1660
    Number of Cartesian functions: 2038
    Spherical Harmonics?: true
    Max angular momentum: 4

  Minimum eigenvalue in the overlap matrix is 1.6649361950E-06.
  Using Symmetric Orthogonalization.
  SCF Guess: Reading in previously saved MOs, projecting if necessary.

  Using orbitals from previous SCF, no projection.
  Recomputing DOCC and SOCC from number of alpha and beta electrons from previous calculation.
              A 
    DOCC [    33 ]

  ==> Iterations <==

                           Total Energy        Delta E     RMS |[F,P]|

   @DF-RHF iter   0:  -313.53621038319307   -3.13536e+02   1.45685e-07 
   @DF-RHF iter   1:  -313.53624706132200   -3.66781e-05   3.20239e-08 
   @DF-RHF iter   2:  -313.53624706184803   -5.26029e-10   1.34815e-08 DIIS
   @DF-RHF iter   3:  -313.53624706192556   -7.75344e-11   5.14365e-09 DIIS
   @DF-RHF iter   4:  -313.53624706194182   -1.62572e-11   5.78952e-10 DIIS
   @DF-RHF iter   5:  -313.53624706194182    0.00000e+00   1.92224e-10 DIIS
   @DF-RHF iter   6:  -313.53624706194216   -3.41061e-13   4.89668e-11 DIIS

  ==> Post-Iterations <==

    Orbital Energies (a.u.)
    -----------------------

    Doubly Occupied:                                                      

       1A    -11.213001     2A    -11.212945     3A    -11.210941  
       4A    -11.209854     5A    -11.209659     6A    -11.208968  
       7A    -11.206956     8A    -11.206140     9A     -1.094399  
      10A     -1.057576    11A     -1.007089    12A     -0.947708  
      13A     -0.890474    14A     -0.827402    15A     -0.791955  
      16A     -0.750088    17A     -0.650993    18A     -0.623580  
      19A     -0.608654    20A     -0.593229    21A     -0.581455  
      22A     -0.566944    23A     -0.538557    24A     -0.530339  
      25A     -0.515613    26A     -0.508265    27A     -0.491006  
      28A     -0.474747    29A     -0.465471    30A     -0.456588  
      31A     -0.440065    32A     -0.438655    33A     -0.435358  

    Virtual:                                                              

      34A      0.028881    35A      0.033003    36A      0.034043  
      37A      0.035083    38A      0.046280    39A      0.048400  
      40A      0.051539    41A      0.053285    42A      0.055045  
      43A      0.067716    44A      0.070339    45A      0.071927  
      46A      0.075048    47A      0.078156    48A      0.080510  
      49A      0.089804    50A      0.097823    51A      0.102834  
      52A      0.113738    53A      0.118624    54A      0.121487  
      55A      0.124107    56A      0.128190    57A      0.133995  
      58A      0.134758    59A      0.139337    60A      0.142602  
      61A      0.143846    62A      0.148672    63A      0.151263  
      64A      0.155083    65A      0.156803    66A      0.158854  
      67A      0.162291    68A      0.168322    69A      0.170691  
      70A      0.177167    71A      0.177412    72A      0.179463  
      73A      0.186338    74A      0.188933    75A      0.193969  
      76A      0.199154    77A      0.213682    78A      0.219762  
      79A      0.224256    80A      0.234288    81A      0.237817  
      82A      0.242909    83A      0.246930    84A      0.263653  
      85A      0.272096    86A      0.275031    87A      0.291416  
      88A      0.292202    89A      0.293508    90A      0.299097  
      91A      0.302239    92A      0.308580    93A      0.308815  
      94A      0.313874    95A      0.317719    96A      0.321276  
      97A      0.325487    98A      0.329788    99A      0.333900  
     100A      0.340028   101A      0.342197   102A      0.347166  
     103A      0.347758   104A      0.355085   105A      0.358148  
     106A      0.360961   107A      0.362100   108A      0.367570  
     109A      0.370571   110A      0.374595   111A      0.377193  
     112A      0.380170   113A      0.381990   114A      0.385796  
     115A      0.388100   116A      0.394353   117A      0.401653  
     118A      0.402261   119A      0.410203   120A      0.414589  
     121A      0.417795   122A      0.424768   123A      0.425426  
     124A      0.432750   125A      0.438277   126A      0.443243  
     127A      0.444904   128A      0.446567   129A      0.455334  
     130A      0.457026   131A      0.463819   132A      0.467828  
     133A      0.471541   134A      0.471868   135A      0.479079  
     136A      0.481806   137A      0.485330   138A      0.489078  
     139A      0.490259   140A      0.495784   141A      0.499910  
     142A      0.502493   143A      0.509517   144A      0.511414  
     145A      0.515173   146A      0.518282   147A      0.520937  
     148A      0.525799   149A      0.530363   150A      0.531425  
     151A      0.542192   152A      0.543562   153A      0.546169  
     154A      0.551252   155A      0.555654   156A      0.561305  
     157A      0.567334   158A      0.571029   159A      0.578705  
     160A      0.579170   161A      0.585706   162A      0.590513  
     163A      0.595408   164A      0.597476   165A      0.603682  
     166A      0.605545   167A      0.610806   168A      0.618472  
     169A      0.621726   170A      0.624524   171A      0.626977  
     172A      0.634557   173A      0.640187   174A      0.646416  
     175A      0.648552   176A      0.655941   177A      0.660506  
     178A      0.666334   179A      0.669297   180A      0.672425  
     181A      0.676714   182A      0.683950   183A      0.687621  
     184A      0.698268   185A      0.699198   186A      0.709492  
     187A      0.713089   188A      0.717523   189A      0.724420  
     190A      0.726788   191A      0.729839   192A      0.736392  
     193A      0.744142   194A      0.749512   195A      0.750998  
     196A      0.760427   197A      0.767959   198A      0.775086  
     199A      0.779862   200A      0.790713   201A      0.801145  
     202A      0.808245   203A      0.813174   204A      0.824726  
     205A      0.836399   206A      0.841527   207A      0.844202  
     208A      0.854320   209A      0.860103   210A      0.863363  
     211A      0.870659   212A      0.873336   213A      0.882721  
     214A      0.886028   215A      0.892635   216A      0.897429  
     217A      0.902353   218A      0.902752   219A      0.917076  
     220A      0.920610   221A      0.924908   222A      0.932982  
     223A      0.934911   224A      0.939756   225A      0.949109  
     226A      0.950427   227A      0.961098   228A      0.965713  
     229A      0.968880   230A      0.972860   231A      0.976798  
     232A      0.979553   233A      0.984525   234A      0.994139  
     235A      0.996258   236A      1.003552   237A      1.006930  
     238A      1.012616   239A      1.015128   240A      1.019344  
     241A      1.030210   242A      1.031353   243A      1.033395  
     244A      1.038140   245A      1.047768   246A      1.050130  
     247A      1.054600   248A      1.065754   249A      1.069475  
     250A      1.075410   251A      1.078900   252A      1.081726  
     253A      1.090129   254A      1.098199   255A      1.102750  
     256A      1.108483   257A      1.113338   258A      1.121803  
     259A      1.125554   260A      1.132588   261A      1.136220  
     262A      1.141383   263A      1.151344   264A      1.154913  
     265A      1.163691   266A      1.163859   267A      1.169419  
     268A      1.174080   269A      1.177734   270A      1.179374  
     271A      1.186541   272A      1.193022   273A      1.199664  
     274A      1.206357   275A      1.210736   276A      1.214752  
     277A      1.218238   278A      1.221981   279A      1.226582  
     280A      1.234896   281A      1.237978   282A      1.244620  
     283A      1.247254   284A      1.255349   285A      1.262419  
     286A      1.267070   287A      1.270428   288A      1.281825  
[...]
	Denominators (dg)(dq) or (dq)(dq) are very small.
	 Skipping Hessian update for step 7.
	Denominators (dg)(dq) or (dq)(dq) are very small.
	 Skipping Hessian update for step 6.
	Denominators (dg)(dq) or (dq)(dq) are very small.
	 Skipping Hessian update for step 5.
	Denominators (dg)(dq) or (dq)(dq) are very small.
	 Skipping Hessian update for step 4.
	Denominators (dg)(dq) or (dq)(dq) are very small.
	 Skipping Hessian update for step 3.
	Denominators (dg)(dq) or (dq)(dq) are very small.
	 Skipping Hessian update for step 2.
	Steps to be used in Hessian update: 1
	Taking RFO optimization step.
	Going to follow RFO solution 1.
	Rejecting RFO root 1 because normalization gives large value.
	Rejecting RFO root 2 because normalization gives large value.
	Using RFO vector 3.
	Norm of target step-size    0.00002
	Projected energy change by RFO approximation:        -0.0000000000

	Back-transformation to cartesian coordinates...
	Successfully converged to displaced geometry.

	--- Internal Coordinate Step in ANG or DEG, aJ/ANG or AJ/DEG ---
	 ---------------------------------------------------------------------------
	   Coordinate                Previous        Force       Change         New 
	   ----------                --------       ------       ------       ------
	    1 R(1,2)          =      1.091313     0.000004     0.000000     1.091314
	    2 R(1,3)          =      1.089605     0.000004     0.000000     1.089605
	    3 R(1,4)          =      1.089832     0.000003     0.000000     1.089833
	    4 R(1,9)          =      1.525313     0.000000     0.000000     1.525314
	    5 R(5,6)          =      1.090402     0.000003     0.000000     1.090402
	    6 R(5,7)          =      1.088268     0.000003     0.000000     1.088268
	    7 R(5,8)          =      1.091236     0.000002     0.000000     1.091236
	    8 R(5,12)         =      1.526890     0.000002     0.000000     1.526890
	    9 R(9,10)         =      1.092298     0.000002     0.000000     1.092298
	   10 R(9,11)         =      1.093566     0.000003     0.000000     1.093566
	   11 R(9,15)         =      1.527442     0.000001    -0.000000     1.527442
	   12 R(12,13)        =      1.091962     0.000002     0.000000     1.091962
	   13 R(12,14)        =      1.094140     0.000000    -0.000000     1.094140
	   14 R(12,24)        =      1.534712     0.000002     0.000000     1.534712
	   15 R(15,16)        =      1.093489     0.000007     0.000001     1.093489
	   16 R(15,17)        =      1.094409     0.000002    -0.000000     1.094408
	   17 R(15,18)        =      1.525134     0.000004     0.000000     1.525134
	   18 R(18,19)        =      1.094686     0.000000    -0.000000     1.094686
	   19 R(18,20)        =      1.091929     0.000001    -0.000000     1.091929
	   20 R(18,21)        =      1.527482    -0.000000     0.000000     1.527482
	   21 R(21,22)        =      1.094046    -0.000002    -0.000000     1.094046
	   22 R(21,23)        =      1.094363    -0.000001    -0.000000     1.094363
	   23 R(21,24)        =      1.530197     0.000000    -0.000000     1.530197
	   24 R(24,25)        =      1.092400     0.000000    -0.000000     1.092400
	   25 R(24,26)        =      1.093597     0.000002    -0.000000     1.093597
	   26 B(1,9,10)       =    109.049932    -0.000000     0.000009   109.049941
	   27 B(1,9,11)       =    109.658750     0.000000     0.000006   109.658756
	   28 B(1,9,15)       =    113.214425     0.000000     0.000024   113.214449
	   29 B(2,1,3)        =    107.862737    -0.000000    -0.000006   107.862731
	   30 B(2,1,4)        =    107.810984    -0.000000    -0.000001   107.810983
	   31 B(2,1,9)        =    110.616012     0.000000     0.000016   110.616028
	   32 B(3,1,4)        =    107.560956     0.000000     0.000000   107.560956
	   33 B(3,1,9)        =    111.635642     0.000000     0.000015   111.635657
	   34 B(4,1,9)        =    111.188577    -0.000000    -0.000024   111.188553
	   35 B(5,12,13)      =    108.010603    -0.000000    -0.000025   108.010577
	   36 B(5,12,14)      =    109.853982    -0.000000    -0.000016   109.853965
	   37 B(5,12,24)      =    114.468505     0.000000     0.000025   114.468530
	   38 B(6,5,7)        =    107.750348    -0.000000    -0.000014   107.750334
	   39 B(6,5,8)        =    107.723856    -0.000000    -0.000008   107.723848
	   40 B(6,5,12)       =    111.004387    -0.000000     0.000011   111.004398
	   41 B(7,5,8)        =    107.656586    -0.000000    -0.000005   107.656580
	   42 B(7,5,12)       =    112.225451     0.000000     0.000019   112.225470
	   43 B(8,5,12)       =    110.302051     0.000000    -0.000005   110.302046
	   44 B(9,15,16)      =    108.901661     0.000000     0.000052   108.901712
	   45 B(9,15,17)      =    109.289111    -0.000000    -0.000032   109.289080
	   46 B(9,15,18)      =    113.505489     0.000000     0.000011   113.505500
	   47 B(10,9,11)      =    106.500319     0.000000    -0.000008   106.500311
	   48 B(10,9,15)      =    109.067849    -0.000000    -0.000020   109.067829
	   49 B(11,9,15)      =    109.127639    -0.000000    -0.000014   109.127625
	   50 B(12,24,21)     =    114.630704     0.000000     0.000003   114.630707
	   51 B(12,24,25)     =    108.962026    -0.000000     0.000011   108.962037
	   52 B(12,24,26)     =    109.383498     0.000000     0.000001   109.383499
	   53 B(13,12,14)     =    106.082170     0.000000    -0.000014   106.082156
	   54 B(13,12,24)     =    108.955774    -0.000000     0.000006   108.955780
	   55 B(14,12,24)     =    109.128297    -0.000000     0.000021   109.128318
	   56 B(15,18,19)     =    108.365585    -0.000000     0.000009   108.365594
	   57 B(15,18,20)     =    110.591984    -0.000000     0.000017   110.592001
	   58 B(15,18,21)     =    113.359622     0.000000     0.000025   113.359647
	   59 B(16,15,17)     =    106.409900    -0.000000    -0.000037   106.409863
	   60 B(16,15,18)     =    110.139594    -0.000000     0.000018   110.139612
	   61 B(17,15,18)     =    108.349227    -0.000000    -0.000017   108.349210
	   62 B(18,21,22)     =    108.906669    -0.000000    -0.000003   108.906666
	   63 B(18,21,23)     =    108.525921     0.000000     0.000007   108.525929
	   64 B(18,21,24)     =    115.809948    -0.000000    -0.000017   115.809931
	   65 B(19,18,20)     =    106.035598     0.000000    -0.000032   106.035566
	   66 B(19,18,21)     =    108.594298     0.000000     0.000036   108.594335
	   67 B(20,18,21)     =    109.603768    -0.000000    -0.000058   109.603710
	   68 B(21,24,25)     =    107.261061     0.000000     0.000035   107.261096
	   69 B(21,24,26)     =    110.270090    -0.000000    -0.000037   110.270053
	   70 B(22,21,23)     =    106.389188    -0.000000    -0.000004   106.389185
	   71 B(22,21,24)     =    108.058635     0.000000     0.000009   108.058644
	   72 B(23,21,24)     =    108.753180     0.000000     0.000008   108.753188
	   73 B(25,24,26)     =    105.948561    -0.000000    -0.000013   105.948548
	   74 D(1,9,15,16)    =    -57.280415     0.000000     0.000039   -57.280376
	   75 D(1,9,15,17)    =   -173.142477     0.000000     0.000072  -173.142405
	   76 D(1,9,15,18)    =     65.798047     0.000000     0.000108    65.798156
	   77 D(2,1,9,10)     =    -64.205570     0.000000     0.000112   -64.205458
	   78 D(2,1,9,11)     =    179.535390     0.000000     0.000112   179.535503
	   79 D(2,1,9,15)     =     57.406327     0.000000     0.000110    57.406437
	   80 D(3,1,9,10)     =    175.676564    -0.000000     0.000099   175.676664
	   81 D(3,1,9,11)     =     59.417525    -0.000000     0.000100    59.417625
	   82 D(3,1,9,15)     =    -62.711538    -0.000000     0.000097   -62.711441
	   83 D(4,1,9,10)     =     55.552007     0.000000     0.000105    55.552112
	   84 D(4,1,9,11)     =    -60.707032     0.000000     0.000105   -60.706927
	   85 D(4,1,9,15)     =    177.163904    -0.000000     0.000103   177.164007
	   86 D(5,12,24,21)   =    -91.915438     0.000000    -0.000143   -91.915582
	   87 D(5,12,24,25)   =    147.906718    -0.000000    -0.000198   147.906520
	   88 D(5,12,24,26)   =     32.510010    -0.000000    -0.000189    32.509821
	   89 D(6,5,12,13)    =    -55.920585     0.000000     0.000038   -55.920546
	   90 D(6,5,12,14)    =     59.362766    -0.000000    -0.000001    59.362765
	   91 D(6,5,12,24)    =   -177.469869     0.000000     0.000033  -177.469836
	   92 D(7,5,12,13)    =   -176.562246     0.000000     0.000035  -176.562211
	   93 D(7,5,12,14)    =    -61.278896    -0.000000    -0.000004   -61.278900
	   94 D(7,5,12,24)    =     61.888469     0.000000     0.000030    61.888499
	   95 D(8,5,12,13)    =     63.403034     0.000000     0.000032    63.403066
	   96 D(8,5,12,14)    =    178.686384    -0.000000    -0.000007   178.686377
	   97 D(8,5,12,24)    =    -58.146251     0.000000     0.000027   -58.146223
	   98 D(9,15,18,19)   =     53.652158    -0.000000     0.000048    53.652207
	   99 D(9,15,18,20)   =    -62.175030     0.000000     0.000073   -62.174957
	  100 D(9,15,18,21)   =    174.273498     0.000000     0.000117   174.273615
	  101 D(10,9,15,16)   =     64.321424     0.000000     0.000053    64.321476
	  102 D(10,9,15,17)   =    -51.540639     0.000000     0.000086   -51.540553
	  103 D(10,9,15,18)   =   -172.600114     0.000000     0.000122  -172.599992
	  104 D(11,9,15,16)   =   -179.705488    -0.000000     0.000025  -179.705463
	  105 D(11,9,15,17)   =     64.432450    -0.000000     0.000058    64.432508
	  106 D(11,9,15,18)   =    -56.627026     0.000000     0.000094   -56.626931
	  107 D(12,24,21,18)  =     61.469891    -0.000000    -0.000131    61.469760
	  108 D(12,24,21,22)  =    -60.960304     0.000000    -0.000122   -60.960426
	  109 D(12,24,21,23)  =   -176.055171    -0.000000    -0.000127  -176.055298
	  110 D(13,12,24,21)  =    147.055136     0.000000    -0.000132   147.055004
	  111 D(13,12,24,25)  =     26.877293    -0.000000    -0.000187    26.877106
	  112 D(13,12,24,26)  =    -88.519416    -0.000000    -0.000178   -88.519594
	  113 D(14,12,24,21)  =     31.642024     0.000000    -0.000130    31.641894
	  114 D(14,12,24,25)  =    -88.535819    -0.000000    -0.000185   -88.536004
	  115 D(14,12,24,26)  =    156.067472    -0.000000    -0.000176   156.067297
	  116 D(15,18,21,22)  =   -174.849144    -0.000000    -0.000033  -174.849177
	  117 D(15,18,21,23)  =    -59.424393    -0.000000    -0.000035   -59.424428
	  118 D(15,18,21,24)  =     63.170708    -0.000000    -0.000030    63.170677
	  119 D(16,15,18,19)  =    176.047954     0.000000     0.000137   176.048092
	  120 D(16,15,18,20)  =     60.220767     0.000000     0.000162    60.220928
	  121 D(16,15,18,21)  =    -63.330705     0.000000     0.000206   -63.330500
	  122 D(17,15,18,19)  =    -67.933680    -0.000000     0.000093   -67.933587
	  123 D(17,15,18,20)  =    176.239132     0.000000     0.000117   176.239250
	  124 D(17,15,18,21)  =     52.687660     0.000000     0.000161    52.687822
	  125 D(18,21,24,25)  =   -177.413268    -0.000000    -0.000090  -177.413358
	  126 D(18,21,24,26)  =    -62.485009    -0.000000    -0.000105   -62.485114
	  127 D(19,18,21,22)  =    -54.357277     0.000000     0.000020   -54.357257
	  128 D(19,18,21,23)  =     61.067474     0.000000     0.000018    61.067493
	  129 D(19,18,21,24)  =   -176.337425     0.000000     0.000022  -176.337402
	  130 D(20,18,21,22)  =     61.059666    -0.000000    -0.000030    61.059636
	  131 D(20,18,21,23)  =    176.484417    -0.000000    -0.000031   176.484386
	  132 D(20,18,21,24)  =    -60.920482    -0.000000    -0.000027   -60.920509
	  133 D(22,21,24,25)  =     60.156536     0.000000    -0.000081    60.156455
	  134 D(22,21,24,26)  =    175.084795    -0.000000    -0.000096   175.084699
	  135 D(23,21,24,25)  =    -54.938331    -0.000000    -0.000086   -54.938417
	  136 D(23,21,24,26)  =     59.989928    -0.000000    -0.000101    59.989827
	  137 R(5,15)         =      3.650777    -0.000001    -0.000002     3.650775
	  138 R(5,18)         =      3.401535     0.000001     0.000002     3.401536
	 ---------------------------------------------------------------------------

  ==> Convergence Check <==

  Measures of convergence in internal coordinates in au.
  Criteria marked as inactive (o), active & met (*), and active & unmet ( ).
  ---------------------------------------------------------------------------------------------
   Step     Total Energy     Delta E     MAX Force     RMS Force      MAX Disp      RMS Disp   
  ---------------------------------------------------------------------------------------------
    Convergence Criteria             o    2.00e-06 *    1.00e-06 *    6.00e-06 *    4.00e-06 *
  ---------------------------------------------------------------------------------------------
     23    -314.98085202    6.48e-10 o    7.99e-07 *    1.52e-07 *    3.59e-06 *    1.32e-06 *  ~
  ---------------------------------------------------------------------------------------------


  **** Optimization is complete! (in 23 steps) ****

  ==> Optimization Summary <==

  Measures of convergence in internal coordinates in au.
  --------------------------------------------------------------------------------------------------------------- ~
   Step         Total Energy             Delta E       MAX Force       RMS Force        MAX Disp        RMS Disp  ~
  --------------------------------------------------------------------------------------------------------------- ~
      1    -314.980852020687   -314.980852020687      0.00000079      0.00000020      0.00004752      0.00001462  ~
      2    -314.980852020935     -0.000000000248      0.00000085      0.00000021      0.00007084      0.00002403  ~
      3    -314.980852024346     -0.000000003411      0.00000117      0.00000031      0.00007611      0.00002338  ~
      4    -314.980852023446      0.000000000900      0.00000057      0.00000012      0.00002966      0.00000794  ~
      5    -314.980852023399      0.000000000047      0.00000057      0.00000013      0.00003700      0.00001360  ~
      6    -314.980852021088      0.000000002310      0.00000111      0.00000028      0.00003710      0.00001282  ~
      7    -314.980852025695     -0.000000004606      0.00000185      0.00000045      0.00005554      0.00001458  ~
      8    -314.980852027140     -0.000000001445      0.00000059      0.00000014      0.00002178      0.00000635  ~
      9    -314.980852023126      0.000000004013      0.00000069      0.00000015      0.00001704      0.00000539  ~
     10    -314.980852023767     -0.000000000641      0.00000116      0.00000028      0.00002752      0.00000971  ~
     11    -314.980852020155      0.000000003613      0.00000040      0.00000011      0.00011916      0.00002803  ~
     12    -314.980852021873     -0.000000001718      0.00000118      0.00000034      0.00003665      0.00000818  ~
     13    -314.980852021185      0.000000000688      0.00000176      0.00000043      0.00003885      0.00001494  ~
     14    -314.980852024653     -0.000000003468      0.00000130      0.00000027      0.00004075      0.00000891  ~
     15    -314.980852021286      0.000000003367      0.00000073      0.00000016      0.00003942      0.00000927  ~
     16    -314.980852025506     -0.000000004220      0.00000137      0.00000036      0.00004345      0.00000998  ~
     17    -314.980852021771      0.000000003734      0.00000055      0.00000012      0.00000650      0.00000257  ~
     18    -314.980852022177     -0.000000000406      0.00000125      0.00000026      0.00015806      0.00004071  ~
     19    -314.980852021722      0.000000000455      0.00000387      0.00000085      0.00018198      0.00004497  ~
     20    -314.980852019674      0.000000002049      0.00000331      0.00000048      0.00003120      0.00000804  ~
     21    -314.980852020998     -0.000000001325      0.00000263      0.00000055      0.00002741      0.00000647  ~
     22    -314.980852024036     -0.000000003037      0.00000104      0.00000017      0.00002920      0.00000570  ~
     23    -314.980852023387      0.000000000648      0.00000080      0.00000015      0.00000359      0.00000132  ~
  --------------------------------------------------------------------------------------------------------------- ~

	Writing optimization data to binary file.
	Final energy is   -314.9808520233873
	Final (previous) structure:
	Cartesian Geometry (in Angstrom)
	    C     2.6659399459  -1.1326086219   0.3374499556
	    H     2.1772134460  -1.8873676865  -0.2809752486
	    H     2.1833074250  -1.1372545141   1.3143243408
	    H     3.7018924991  -1.4390685313   0.4810424274
	    C    -1.4097936687  -1.8821474451  -0.1818727346
	    H    -1.7284350274  -2.8165999672   0.2809901400
	    H    -0.3801276306  -1.6974922452   0.1181555026
	    H    -1.4184576770  -2.0272526665  -1.2633834668
	    C     2.5835006267   0.2393292518  -0.3240416813
	    H     3.1442608616   0.2175601148  -1.2611590151
	    H     3.0700601487   0.9841832249   0.3118350587
	    C    -2.3390962935  -0.7344363784   0.2061323800
	    H    -3.3573191575  -1.0164926667  -0.0696344246
	    H    -2.3427845214  -0.6105734348   1.2932324007
	    C     1.1507073177   0.6846805264  -0.6101271929
	    H     0.6661322500  -0.0650542630  -1.2416349283
	    H     1.1695275470   1.6123227544  -1.1905199585
	    C     0.3248424653   0.9232069967   0.6496691402
	    H     0.8694180778   1.6228478013   1.2917579509
	    H     0.2262729334   0.0002272053   1.2247362965
	    C    -1.0605466863   1.5003495930   0.3654064435
	    H    -1.5517698580   1.7277179642   1.3161644475
	    H    -0.9392956239   2.4550720255  -0.1555868287
	    C    -1.9985026641   0.6095129971  -0.4519981171
	    H    -2.9219595072   1.1709937523  -0.6110734997
	    H    -1.5802771633   0.4309571950  -1.4465636315
	Saving final (previous) structure.
			--------------------------
			 OPTKING Finished Execution 
			--------------------------

    Final optimized geometry and variables:
    Molecular point group: c1
    Full point group: C1

    Geometry (in Angstrom), charge = 0, multiplicity = 1:

    C            2.665939945881    -1.132608621856     0.337449955645
    H            2.177213445999    -1.887367686530    -0.280975248569
    H            2.183307424987    -1.137254514113     1.314324340769
    H            3.701892499120    -1.439068531278     0.481042427382
    C           -1.409793668706    -1.882147445130    -0.181872734564
    H           -1.728435027367    -2.816599967238     0.280990139951
    H           -0.380127630624    -1.697492245164     0.118155502581
    H           -1.418457676978    -2.027252666480    -1.263383466797
    C            2.583500626665     0.239329251772    -0.324041681271
    H            3.144260861613     0.217560114789    -1.261159015054
    H            3.070060148720     0.984183224917     0.311835058714
    C           -2.339096293539    -0.734436378409     0.206132380002
    H           -3.357319157540    -1.016492666667    -0.069634424630
    H           -2.342784521363    -0.610573434776     1.293232400697
    C            1.150707317705     0.684680526448    -0.610127192904
    H            0.666132249967    -0.065054262976    -1.241634928273
    H            1.169527546954     1.612322754377    -1.190519958497
    C            0.324842465299     0.923206996652     0.649669140200
    H            0.869418077771     1.622847801297     1.291757950898
    H            0.226272933435     0.000227205335     1.224736296538
    C           -1.060546686336     1.500349593042     0.365406443476
    H           -1.551769858040     1.727717964180     1.316164447459
    H           -0.939295623883     2.455072025465    -0.155586828747
    C           -1.998502664120     0.609512997099    -0.451998117132
    H           -2.921959507182     1.170993752343    -0.611073499661
    H           -1.580277163322     0.430957195046    -1.446563631454

	Cleaning optimization helper files.

*** Psi4 exiting successfully. Buy a developer a beer!
