    -----------------------------------------------------------------------
          Psi4: An Open-Source Ab Initio Electronic Structure Package
                              Psi4 1.0.0 Driver

                          Git: Rev {master} 6a9a71b dirty

    J. M. Turney, A. C. Simmonett, R. M. Parrish, E. G. Hohenstein,
    F. A. Evangelista, J. T. Fermann, B. J. Mintz, L. A. Burns, J. J. Wilke,
    M. L. Abrams, N. J. Russ, M. L. Leininger, C. L. Janssen, E. T. Seidl,
    W. D. Allen, H. F. Schaefer, R. A. King, E. F. Valeev, C. D. Sherrill,
    and T. D. Crawford, WIREs Comput. Mol. Sci. 2, 556-565 (2012)
    (doi: 10.1002/wcms.93)

                         Additional Contributions by
    A. E. DePrince, U. Bozkaya, A. Yu. Sokolov, D. G. A. Smith, R. Di Remigio,
    R. M. Richard, J. F. Gonthier, H. R. McAlexander, M. Saitow, and
    B. P. Pritchard
    -----------------------------------------------------------------------


    Psi4 started on: Wed Sep 21 04:57:33 2016

    Process ID:  16254
    PSI4DATADIR: /usr/local/hpc5/psi4conda/share/psi4
    Memory level set to 256.000 MB

  ==> Input File <==

--------------------------------------------------------------------------
memory 60 Gb

molecule molecule_06_psi {
0 1
C            2.565499435515    -1.539779321340     0.037185055473
H            3.147795722837    -2.214723444523    -0.589636731666
H            1.520048615236    -1.839653923197    -0.037765180673
H            2.879949561970    -1.687619555412     1.071865761273
C           -3.748059242549    -0.647970410130     0.144342201928
H           -4.112424968874    -1.580264118327     0.575082615816
H           -4.164651821281    -0.555678193116    -0.859427551250
H           -4.141509491405     0.174364054835     0.743326173277
C            2.762401439254    -0.088106775907    -0.385162909386
H            2.405977883248     0.047457980121    -1.408507314899
H            3.829978718150     0.141960916957    -0.401879326755
C           -2.225323873699    -0.603447512784     0.103766476086
H           -1.831939559676    -0.732123564059     1.113934664336
H           -1.845924029821    -1.441771609681    -0.488143576346
C            2.063518826806     0.906015102101     0.542258207969
H            2.236967656646     1.921136110099     0.173625162639
H            2.526809971555     0.849490667572     1.531707772636
C            0.558625846985     0.680995430442     0.683410765696
H            0.147723389776     1.443146263768     1.352803329072
H            0.377218828070    -0.280264175491     1.168274179520
C           -0.187095808180     0.743159505702    -0.645715787410
H            0.099467271631     1.662561803076    -1.165906570782
H            0.125936611413    -0.085841886302    -1.287380561124
C           -1.705476850661     0.699909355568    -0.492949467252
H           -2.031453336470     1.536908131426     0.133330624614
H           -2.171213549773     0.845657998445    -1.472116678493
}

set globals {
  reference rhf
  g_convergence gau_verytight
  basis aug-cc-pvtz
  freeze_core true
  scf_type df
  mp_type df
}
optimize('mp2')
--------------------------------------------------------------------------
/usr/local/hpc5/psi4conda/lib/python2.7/site-packages/v2rdm_casscf/v2rdm_casscf.so loaded.

  Memory set to  60.000 GiB by Python script.
gradient() will perform analytic gradient computation.

*** tstart() called on wr42
*** at Wed Sep 21 04:57:34 2016


         ---------------------------------------------------------
                                   SCF
            by Justin Turney, Rob Parrish, and Andy Simmonett
                              RHF Reference
                       12 Threads,  60000 MiB Core
         ---------------------------------------------------------

  ==> Geometry <==

    Molecular point group: c1
    Full point group: C1

    Geometry (in Angstrom), charge = 0, multiplicity = 1:

       Center              X                  Y                   Z               Mass       
    ------------   -----------------  -----------------  -----------------  -----------------
           C          2.565499435515    -1.539779321340     0.037185055473    12.000000000000
           H          3.147795722837    -2.214723444523    -0.589636731666     1.007825032070
           H          1.520048615236    -1.839653923197    -0.037765180673     1.007825032070
           H          2.879949561970    -1.687619555412     1.071865761273     1.007825032070
           C         -3.748059242549    -0.647970410130     0.144342201928    12.000000000000
           H         -4.112424968874    -1.580264118327     0.575082615816     1.007825032070
           H         -4.164651821281    -0.555678193116    -0.859427551250     1.007825032070
           H         -4.141509491405     0.174364054835     0.743326173277     1.007825032070
           C          2.762401439254    -0.088106775907    -0.385162909386    12.000000000000
           H          2.405977883248     0.047457980121    -1.408507314899     1.007825032070
           H          3.829978718150     0.141960916957    -0.401879326755     1.007825032070
           C         -2.225323873699    -0.603447512784     0.103766476086    12.000000000000
           H         -1.831939559676    -0.732123564059     1.113934664336     1.007825032070
           H         -1.845924029821    -1.441771609681    -0.488143576346     1.007825032070
           C          2.063518826806     0.906015102101     0.542258207969    12.000000000000
           H          2.236967656646     1.921136110099     0.173625162639     1.007825032070
           H          2.526809971555     0.849490667572     1.531707772636     1.007825032070
           C          0.558625846985     0.680995430442     0.683410765696    12.000000000000
           H          0.147723389776     1.443146263768     1.352803329072     1.007825032070
           H          0.377218828070    -0.280264175491     1.168274179520     1.007825032070
           C         -0.187095808180     0.743159505702    -0.645715787410    12.000000000000
           H          0.099467271631     1.662561803076    -1.165906570782     1.007825032070
           H          0.125936611413    -0.085841886302    -1.287380561124     1.007825032070
           C         -1.705476850661     0.699909355568    -0.492949467252    12.000000000000
           H         -2.031453336470     1.536908131426     0.133330624614     1.007825032070
           H         -2.171213549773     0.845657998445    -1.472116678493     1.007825032070

  Running in c1 symmetry.

  Rotational constants: A =      0.12791  B =      0.02609  C =      0.02393 [cm^-1]
  Rotational constants: A =   3834.56791  B =    782.15462  C =    717.32493 [MHz]
  Nuclear repulsion =  395.414188772871910

  Charge       = 0
  Multiplicity = 1
  Electrons    = 66
  Nalpha       = 33
  Nbeta        = 33

  ==> Algorithm <==

  SCF Algorithm Type is DF.
  DIIS enabled.
  MOM disabled.
  Fractional occupation disabled.
  Guess Type is SAD.
  Energy threshold   = 1.00e-10
  Density threshold  = 1.00e-10
  Integral threshold = 0.00e+00

  ==> Primary Basis <==

  Basis Set: AUG-CC-PVTZ
    Number of shells: 274
    Number of basis function: 782
    Number of Cartesian functions: 890
    Spherical Harmonics?: true
    Max angular momentum: 3

  ==> Pre-Iterations <==

   -------------------------------------------------------
    Irrep   Nso     Nmo     Nalpha   Nbeta   Ndocc  Nsocc
   -------------------------------------------------------
     A        782     782       0       0       0       0
   -------------------------------------------------------
    Total     782     782      33      33      33       0
   -------------------------------------------------------

  ==> Integral Setup <==

  ==> DFJK: Density-Fitted J/K Matrices <==

    J tasked:                  Yes
    K tasked:                  Yes
    wK tasked:                  No
    OpenMP threads:             12
    Integrals threads:          12
    Memory (MB):             42915
    Algorithm:                Core
    Integral Cache:           NONE
    Schwarz Cutoff:          1E-12
    Fitting Condition:       1E-12

   => Auxiliary Basis Set <=

  Basis Set: 
    Number of shells: 492
    Number of basis function: 1660
    Number of Cartesian functions: 2038
    Spherical Harmonics?: true
    Max angular momentum: 4

  Minimum eigenvalue in the overlap matrix is 1.7648927161E-06.
  Using Symmetric Orthogonalization.
  SCF Guess: Superposition of Atomic Densities via on-the-fly atomic UHF.

  ==> Iterations <==

                           Total Energy        Delta E     RMS |[F,P]|

   @DF-RHF iter   0:  -316.88837911072011   -3.16888e+02   6.96934e-03 
   @DF-RHF iter   1:  -313.27475306568948    3.61363e+00   7.73130e-04 
   @DF-RHF iter   2:  -313.50210937403693   -2.27356e-01   3.06520e-04 DIIS
   @DF-RHF iter   3:  -313.53600505385572   -3.38957e-02   1.03491e-04 DIIS
   @DF-RHF iter   4:  -313.54159154837447   -5.58649e-03   1.72752e-05 DIIS
   @DF-RHF iter   5:  -313.54177632553825   -1.84777e-04   5.46612e-06 DIIS
   @DF-RHF iter   6:  -313.54179217730649   -1.58518e-05   1.33905e-06 DIIS
   @DF-RHF iter   7:  -313.54179340390323   -1.22660e-06   2.87554e-07 DIIS
   @DF-RHF iter   8:  -313.54179346078439   -5.68812e-08   8.59470e-08 DIIS
   @DF-RHF iter   9:  -313.54179346546033   -4.67594e-09   2.39072e-08 DIIS
   @DF-RHF iter  10:  -313.54179346584266   -3.82329e-10   6.73656e-09 DIIS
   @DF-RHF iter  11:  -313.54179346587586   -3.31966e-11   1.33593e-09 DIIS
   @DF-RHF iter  12:  -313.54179346587767   -1.81899e-12   3.38848e-10 DIIS
   @DF-RHF iter  13:  -313.54179346587722    4.54747e-13   1.09539e-10 DIIS
   @DF-RHF iter  14:  -313.54179346587767   -4.54747e-13   2.78400e-11 DIIS

  ==> Post-Iterations <==

    Orbital Energies (a.u.)
    -----------------------

    Doubly Occupied:                                                      

       1A    -11.212219     2A    -11.211908     3A    -11.210612  
       4A    -11.210490     5A    -11.209944     6A    -11.208747  
       7A    -11.207062     8A    -11.206863     9A     -1.095237  
      10A     -1.060647    11A     -1.006363    12A     -0.948831  
      13A     -0.881205    14A     -0.836531    15A     -0.788792  
      16A     -0.750495    17A     -0.645355    18A     -0.628647  
      19A     -0.621307    20A     -0.583240    21A     -0.579703  
      22A     -0.564896    23A     -0.541398    24A     -0.529053  
      25A     -0.521574    26A     -0.497580    27A     -0.491856  
      28A     -0.471743    29A     -0.468496    30A     -0.459515  
      31A     -0.445325    32A     -0.437735    33A     -0.436466  

    Virtual:                                                              

      34A      0.030163    35A      0.032527    36A      0.034674  
      37A      0.035290    38A      0.045119    39A      0.048126  
      40A      0.049489    41A      0.053943    42A      0.054706  
      43A      0.067121    44A      0.069281    45A      0.070196  
      46A      0.071711    47A      0.078344    48A      0.086728  
      49A      0.091608    50A      0.098031    51A      0.101376  
      52A      0.115014    53A      0.117504    54A      0.119538  
      55A      0.123698    56A      0.125271    57A      0.129092  
      58A      0.133629    59A      0.135056    60A      0.140477  
      61A      0.146918    62A      0.148538    63A      0.152505  
      64A      0.153991    65A      0.155772    66A      0.160660  
      67A      0.163371    68A      0.166164    69A      0.169799  
      70A      0.174346    71A      0.176484    72A      0.185977  
      73A      0.191480    74A      0.193562    75A      0.197598  
      76A      0.200774    77A      0.217757    78A      0.227807  
      79A      0.228635    80A      0.236667    81A      0.241089  
      82A      0.246951    83A      0.250731    84A      0.257354  
      85A      0.264265    86A      0.270248    87A      0.273448  
      88A      0.279712    89A      0.287373    90A      0.294704  
      91A      0.295806    92A      0.303185    93A      0.306205  
      94A      0.309404    95A      0.318409    96A      0.323012  
      97A      0.323949    98A      0.324817    99A      0.330082  
     100A      0.334684   101A      0.335791   102A      0.342702  
     103A      0.347563   104A      0.350708   105A      0.352157  
     106A      0.357782   107A      0.363408   108A      0.369599  
     109A      0.370305   110A      0.372170   111A      0.375439  
     112A      0.379554   113A      0.385069   114A      0.386557  
     115A      0.391752   116A      0.396583   117A      0.399905  
     118A      0.404465   119A      0.406063   120A      0.410435  
     121A      0.413776   122A      0.419682   123A      0.421959  
     124A      0.426292   125A      0.429653   126A      0.434628  
     127A      0.436107   128A      0.443890   129A      0.445559  
     130A      0.451867   131A      0.454544   132A      0.460823  
     133A      0.466611   134A      0.469461   135A      0.472873  
     136A      0.475459   137A      0.480543   138A      0.482869  
     139A      0.485545   140A      0.488178   141A      0.493141  
     142A      0.493777   143A      0.498954   144A      0.502440  
     145A      0.503996   146A      0.511843   147A      0.512111  
     148A      0.515910   149A      0.523448   150A      0.528600  
     151A      0.531803   152A      0.536325   153A      0.537611  
     154A      0.542119   155A      0.545747   156A      0.549264  
     157A      0.555415   158A      0.558760   159A      0.563055  
     160A      0.568493   161A      0.569871   162A      0.576750  
     163A      0.585785   164A      0.586807   165A      0.589749  
     166A      0.590822   167A      0.600874   168A      0.604364  
     169A      0.611074   170A      0.615310   171A      0.617555  
     172A      0.626811   173A      0.629571   174A      0.633105  
     175A      0.637947   176A      0.644700   177A      0.647564  
     178A      0.655584   179A      0.659861   180A      0.663370  
     181A      0.670608   182A      0.678773   183A      0.680965  
     184A      0.690587   185A      0.692893   186A      0.696830  
     187A      0.703686   188A      0.708376   189A      0.719179  
     190A      0.722447   191A      0.727068   192A      0.734101  
     193A      0.740861   194A      0.744508   195A      0.749974  
     196A      0.757271   197A      0.766655   198A      0.777730  
     199A      0.782718   200A      0.790713   201A      0.792395  
     202A      0.804766   203A      0.816011   204A      0.819417  
     205A      0.829680   206A      0.839151   207A      0.842525  
     208A      0.850501   209A      0.855185   210A      0.860426  
     211A      0.861648   212A      0.870747   213A      0.872870  
     214A      0.877855   215A      0.884346   216A      0.889541  
     217A      0.896194   218A      0.904224   219A      0.905616  
     220A      0.909420   221A      0.919642   222A      0.922446  
     223A      0.929702   224A      0.933931   225A      0.936127  
     226A      0.937912   227A      0.945302   228A      0.946651  
     229A      0.953693   230A      0.959645   231A      0.964409  
     232A      0.969763   233A      0.974971   234A      0.980178  
     235A      0.984447   236A      0.987796   237A      0.998000  
     238A      1.001903   239A      1.004703   240A      1.013348  
     241A      1.015589   242A      1.026711   243A      1.028461  
     244A      1.032117   245A      1.035691   246A      1.040822  
     247A      1.045436   248A      1.050123   249A      1.053371  
     250A      1.059088   251A      1.065709   252A      1.071099  
     253A      1.074355   254A      1.090455   255A      1.092609  
     256A      1.095476   257A      1.100270   258A      1.104196  
     259A      1.113856   260A      1.116430   261A      1.121587  
     262A      1.130867   263A      1.133340   264A      1.139635  
     265A      1.146013   266A      1.149512   267A      1.152957  
     268A      1.157863   269A      1.158217   270A      1.163365  
     271A      1.174427   272A      1.178946   273A      1.182104  
     274A      1.185761   275A      1.192239   276A      1.197864  
     277A      1.206582   278A      1.209073   279A      1.214465  
     280A      1.224891   281A      1.227983   282A      1.230529  
     283A      1.236550   284A      1.239049   285A      1.240919  
     286A      1.252553   287A      1.255082   288A      1.265183  
     289A      1.272762   290A      1.275678   291A      1.282026  
     292A      1.282356   293A      1.291470   294A      1.293496  
     295A      1.301992   296A      1.302967   297A      1.307379  
     298A      1.311122   299A      1.323505   300A      1.330659  
     301A      1.336848   302A      1.341779   303A      1.343789  
     304A      1.351151   305A      1.363162   306A      1.374031  
     307A      1.375104   308A      1.385120   309A      1.389385  
     310A      1.397955   311A      1.409482   312A      1.415151  
     313A      1.421682   314A      1.426354   315A      1.433375  
     316A      1.443880   317A      1.451548   318A      1.455400  
     319A      1.472598   320A      1.483949   321A      1.486318  
     322A      1.487219   323A      1.496992   324A      1.500790  
     325A      1.505590   326A      1.513256   327A      1.518081  
     328A      1.527874   329A      1.539239   330A      1.547319  
     331A      1.555556   332A      1.558586   333A      1.569265  
     334A      1.577973   335A      1.586467   336A      1.593208  
     337A      1.601666   338A      1.605526   339A      1.609440  
     340A      1.620813   341A      1.629740   342A      1.635813  
     343A      1.644594   344A      1.649343   345A      1.655720  
     346A      1.662720   347A      1.668049   348A      1.673854  
     349A      1.677320   350A      1.680342   351A      1.686697  
     352A      1.691208   353A      1.695786   354A      1.706775  
     355A      1.722145   356A      1.723878   357A      1.735136  
     358A      1.738355   359A      1.739183   360A      1.743609  
     361A      1.749615   362A      1.755105   363A      1.763801  
     364A      1.769574   365A      1.771769   366A      1.777144  
     367A      1.785534   368A      1.794588   369A      1.801367  
     370A      1.802215   371A      1.806788   372A      1.812634  
     373A      1.817970   374A      1.827983   375A      1.831043  
     376A      1.836555   377A      1.845526   378A      1.847311  
     379A      1.857591   380A      1.861676   381A      1.868429  
     382A      1.873588   383A      1.877469   384A      1.891916  
     385A      1.898367   386A      1.902676   387A      1.906586  
     388A      1.915809   389A      1.927800   390A      1.931541  
     391A      1.937969   392A      1.942847   393A      1.946196  
     394A      1.962579   395A      1.970169   396A      1.978587  
     397A      1.983695   398A      1.990425   399A      1.998014  
     400A      2.002472   401A      2.008246   402A      2.012962  
     403A      2.018595   404A      2.020659   405A      2.030440  
     406A      2.038399   407A      2.042056   408A      2.053114  
     409A      2.057511   410A      2.064576   411A      2.077174  
     412A      2.088951   413A      2.094116   414A      2.098770  
     415A      2.104819   416A      2.111314   417A      2.119192  
     418A      2.126171   419A      2.130689   420A      2.138943  
     421A      2.143245   422A      2.148189   423A      2.160071  
     424A      2.161781   425A      2.181705   426A      2.191486  
     427A      2.195110   428A      2.196677   429A      2.213124  
     430A      2.217020   431A      2.234804   432A      2.249427  
     433A      2.252749   434A      2.264498   435A      2.271510  
     436A      2.277797   437A      2.284027   438A      2.296995  
     439A      2.302880   440A      2.309685   441A      2.321570  
     442A      2.326102   443A      2.335984   444A      2.339294  
     445A      2.360969   446A      2.376376   447A      2.382151  
     448A      2.384713   449A      2.390251   450A      2.401176  
     451A      2.410151   452A      2.416015   453A      2.426951  
     454A      2.429121   455A      2.446556   456A      2.451987  
     457A      2.469129   458A      2.482399   459A      2.494259  
     460A      2.500958   461A      2.519831   462A      2.534919  
     463A      2.543864   464A      2.549894   465A      2.551286  
     466A      2.562651   467A      2.569590   468A      2.570579  
     469A      2.587553   470A      2.608772   471A      2.616937  
     472A      2.635827   473A      2.656325   474A      2.669436  
     475A      2.687181   476A      2.698946   477A      2.721611  
     478A      2.731097   479A      2.739795   480A      2.756299  
     481A      2.766134   482A      2.779401   483A      2.818892  
     484A      2.862429   485A      2.904490   486A      2.919346  
     487A      3.006687   488A      3.028044   489A      3.031973  
     490A      3.108736   491A      3.174500   492A      3.228360  
     493A      3.274784   494A      3.325686   495A      3.357222  
     496A      3.418160   497A      3.422972   498A      3.459367  
     499A      3.463733   500A      3.484791   501A      3.491102  
     502A      3.500530   503A      3.507387   504A      3.523287  
     505A      3.541036   506A      3.553134   507A      3.560187  
     508A      3.570058   509A      3.570193   510A      3.585918  
     511A      3.597859   512A      3.607435   513A      3.620751  
     514A      3.631529   515A      3.646179   516A      3.661861  
     517A      3.676235   518A      3.681405   519A      3.690656  
     520A      3.696410   521A      3.704380   522A      3.713763  
     523A      3.722780   524A      3.732525   525A      3.750835  
     526A      3.754033   527A      3.761891   528A      3.763980  
     529A      3.774028   530A      3.779300   531A      3.792010  
     532A      3.803903   533A      3.810011   534A      3.817469  
     535A      3.822833   536A      3.826944   537A      3.835031  
     538A      3.854683   539A      3.856387   540A      3.876948  
     541A      3.889097   542A      3.892389   543A      3.896757  
     544A      3.912323   545A      3.919968   546A      3.922214  
     547A      3.929008   548A      3.935937   549A      3.941337  
     550A      3.949973   551A      3.954297   552A      3.962338  
     553A      3.980645   554A      3.980816   555A      3.986101  
     556A      3.996508   557A      4.003829   558A      4.005806  
     559A      4.009699   560A      4.021883   561A      4.032310  
     562A      4.039671   563A      4.042611   564A      4.051310  
     565A      4.054401   566A      4.059456   567A      4.068425  
     568A      4.072217   569A      4.079667   570A      4.097177  
     571A      4.100199   572A      4.103714   573A      4.112371  
     574A      4.129142   575A      4.143434   576A      4.154144  
     577A      4.160400   578A      4.165503   579A      4.175465  
     580A      4.177906   581A      4.195853   582A      4.202833  
     583A      4.219101   584A      4.221347   585A      4.224736  
     586A      4.237094   587A      4.248022   588A      4.258105  
     589A      4.261130   590A      4.268935   591A      4.274092  
     592A      4.287801   593A      4.302755   594A      4.305537  
     595A      4.313232   596A      4.323066   597A      4.338618  
     598A      4.351195   599A      4.369906   600A      4.379046  
     601A      4.382993   602A      4.389517   603A      4.402491  
     604A      4.406437   605A      4.420890   606A      4.434480  
     607A      4.444906   608A      4.461105   609A      4.466642  
     610A      4.476962   611A      4.479556   612A      4.511447  
     613A      4.529279   614A      4.539414   615A      4.565125  
     616A      4.583678   617A      4.593507   618A      4.607511  
     619A      4.626653   620A      4.631822   621A      4.640489  
     622A      4.652733   623A      4.671365   624A      4.678756  
     625A      4.684769   626A      4.695988   627A      4.715241  
     628A      4.722617   629A      4.725615   630A      4.734795  
     631A      4.749335   632A      4.751521   633A      4.756746  
     634A      4.777779   635A      4.789890   636A      4.810896  
     637A      4.816008   638A      4.818644   639A      4.829501  
     640A      4.832610   641A      4.846056   642A      4.852985  
     643A      4.860144   644A      4.879636   645A      4.884725  
     646A      4.886282   647A      4.893658   648A      4.899705  
     649A      4.922028   650A      4.923634   651A      4.942373  
     652A      4.954162   653A      4.971071   654A      4.984517  
     655A      4.997880   656A      5.014803   657A      5.021749  
     658A      5.041227   659A      5.048460   660A      5.063251  
     661A      5.076828   662A      5.089726   663A      5.100769  
     664A      5.119558   665A      5.130453   666A      5.143692  
     667A      5.156239   668A      5.170653   669A      5.175139  
     670A      5.176922   671A      5.205135   672A      5.216207  
     673A      5.226373   674A      5.233767   675A      5.245124  
     676A      5.254062   677A      5.261714   678A      5.290529  
     679A      5.292187   680A      5.310055   681A      5.324729  
     682A      5.327831   683A      5.337264   684A      5.347202  
     685A      5.354010   686A      5.378880   687A      5.382455  
     688A      5.393458   689A      5.402658   690A      5.409483  
     691A      5.421466   692A      5.427343   693A      5.433418  
     694A      5.441952   695A      5.450847   696A      5.468924  
     697A      5.471463   698A      5.483363   699A      5.494675  
     700A      5.508451   701A      5.528858   702A      5.542087  
     703A      5.551595   704A      5.566951   705A      5.579018  
     706A      5.592185   707A      5.606585   708A      5.613749  
     709A      5.634986   710A      5.644117   711A      5.656655  
     712A      5.660689   713A      5.680679   714A      5.698442  
     715A      5.703490   716A      5.712542   717A      5.716701  
     718A      5.725023   719A      5.737535   720A      5.744607  
     721A      5.757951   722A      5.772348   723A      5.789775  
     724A      5.801289   725A      5.810644   726A      5.836444  
     727A      5.850370   728A      5.878194   729A      5.879789  
     730A      5.912217   731A      5.933460   732A      5.960575  
     733A      5.972420   734A      5.985341   735A      5.999512  
     736A      6.029811   737A      6.056836   738A      6.062639  
     739A      6.109612   740A      6.118617   741A      6.142496  
     742A      6.158615   743A      6.171138   744A      6.188166  
     745A      6.219715   746A      6.221054   747A      6.228094  
     748A      6.268332   749A      6.289248   750A      6.294087  
     751A      6.312985   752A      6.328364   753A      6.345399  
     754A      6.351357   755A      6.374650   756A      6.379301  
     757A      6.401864   758A      6.446080   759A      6.579727  
     760A      6.632201   761A      6.673443   762A      6.700098  
     763A      6.733828   764A      6.746287   765A      6.795597  
     766A      6.848438   767A      6.878337   768A      6.899596  
     769A      6.918798   770A      6.968209   771A      7.017716  
     772A      7.071067   773A      7.086733   774A      7.140968  
     775A     17.922993   776A     18.124148   777A     18.241610  
     778A     18.456052   779A     18.596445   780A     18.932994  
     781A     19.344816   782A     19.760979  

    Final Occupation by Irrep:
              A 
    DOCC [    33 ]

  Energy converged.

  @DF-RHF Final Energy:  -313.54179346587767

   => Energetics <=

    Nuclear Repulsion Energy =            395.4141887728719098
    One-Electron Energy =               -1205.9722934933674878
    Two-Electron Energy =                 497.0163112546182447
    DFT Exchange-Correlation Energy =       0.0000000000000000
    Empirical Dispersion Energy =           0.0000000000000000
    PCM Polarization Energy =               0.0000000000000000
    EFP Energy =                            0.0000000000000000
    Total Energy =                       -313.5417934658772765


  Saving occupied orbitals to File 180.

*** tstop() called on wr42 at Wed Sep 21 04:58:43 2016
Module time:
	user time   =     728.59 seconds =      12.14 minutes
	system time =       9.95 seconds =       0.17 minutes
	total time  =         69 seconds =       1.15 minutes
Total time:
	user time   =     728.59 seconds =      12.14 minutes
	system time =       9.95 seconds =       0.17 minutes
	total time  =         69 seconds =       1.15 minutes


Properties will be evaluated at   0.000000,   0.000000,   0.000000 Bohr

Properties computed using the SCF density matrix

  Nuclear Dipole Moment: (a.u.)
     X:    -0.9386      Y:    -1.6830      Z:     0.1436

  Electronic Dipole Moment: (a.u.)
     X:     0.9679      Y:     1.6978      Z:    -0.1485

  Dipole Moment: (a.u.)
     X:     0.0293      Y:     0.0148      Z:    -0.0049     Total:     0.0332

  Dipole Moment: (Debye)
     X:     0.0745      Y:     0.0377      Z:    -0.0125     Total:     0.0844


  //>>>>>>>>>>>>>>>>>>>>>>>>>>>>>>>>>>>//
  //               DFMP2               //
  //<<<<<<<<<<<<<<<<<<<<<<<<<<<<<<<<<<<//


*** tstart() called on wr42
*** at Wed Sep 21 04:58:43 2016


*** tstop() called on wr42 at Wed Sep 21 04:58:43 2016
Module time:
	user time   =       3.77 seconds =       0.06 minutes
	system time =       0.03 seconds =       0.00 minutes
	total time  =          0 seconds =       0.00 minutes
Total time:
	user time   =     734.01 seconds =      12.23 minutes
	system time =      10.05 seconds =       0.17 minutes
	total time  =         69 seconds =       1.15 minutes
	 --------------------------------------------------------
	                          DF-MP2                         
	      2nd-Order Density-Fitted Moller-Plesset Theory     
	              RMP2 Wavefunction,  12 Threads             
	                                                         
	        Rob Parrish, Justin Turney, Andy Simmonett,      
	           Ed Hohenstein, and C. David Sherrill          
	 --------------------------------------------------------

   => Auxiliary Basis Set <=

  Basis Set: 
    Number of shells: 476
    Number of basis function: 1676
    Number of Cartesian functions: 2078
    Spherical Harmonics?: true
    Max angular momentum: 4

	 --------------------------------------------------------
	                 NBF =   782, NAUX =  1676
	 --------------------------------------------------------
	   CLASS    FOCC     OCC    AOCC    AVIR     VIR    FVIR
	   PAIRS       8      33      25     749     749       0
	 --------------------------------------------------------

DGAS Warning! /src/lib/libfock/apps.cc:80 is not currently checking restricted

         ------------------------------------------------------------
                                     CPHF                           
                                  Rob Parrish                       
         ------------------------------------------------------------

  ==> Geometry <==

    Molecular point group: c1
    Full point group: C1

    Geometry (in Angstrom), charge = 0, multiplicity = 1:

       Center              X                  Y                   Z               Mass       
    ------------   -----------------  -----------------  -----------------  -----------------
           C          2.565499435515    -1.539779321340     0.037185055473    12.000000000000
           H          3.147795722837    -2.214723444523    -0.589636731666     1.007825032070
           H          1.520048615236    -1.839653923197    -0.037765180673     1.007825032070
           H          2.879949561970    -1.687619555412     1.071865761273     1.007825032070
           C         -3.748059242549    -0.647970410130     0.144342201928    12.000000000000
           H         -4.112424968874    -1.580264118327     0.575082615816     1.007825032070
           H         -4.164651821281    -0.555678193116    -0.859427551250     1.007825032070
           H         -4.141509491405     0.174364054835     0.743326173277     1.007825032070
           C          2.762401439254    -0.088106775907    -0.385162909386    12.000000000000
           H          2.405977883248     0.047457980121    -1.408507314899     1.007825032070
           H          3.829978718150     0.141960916957    -0.401879326755     1.007825032070
           C         -2.225323873699    -0.603447512784     0.103766476086    12.000000000000
           H         -1.831939559676    -0.732123564059     1.113934664336     1.007825032070
           H         -1.845924029821    -1.441771609681    -0.488143576346     1.007825032070
           C          2.063518826806     0.906015102101     0.542258207969    12.000000000000
           H          2.236967656646     1.921136110099     0.173625162639     1.007825032070
           H          2.526809971555     0.849490667572     1.531707772636     1.007825032070
           C          0.558625846985     0.680995430442     0.683410765696    12.000000000000
           H          0.147723389776     1.443146263768     1.352803329072     1.007825032070
           H          0.377218828070    -0.280264175491     1.168274179520     1.007825032070
           C         -0.187095808180     0.743159505702    -0.645715787410    12.000000000000
           H          0.099467271631     1.662561803076    -1.165906570782     1.007825032070
           H          0.125936611413    -0.085841886302    -1.287380561124     1.007825032070
           C         -1.705476850661     0.699909355568    -0.492949467252    12.000000000000
           H         -2.031453336470     1.536908131426     0.133330624614     1.007825032070
           H         -2.171213549773     0.845657998445    -1.472116678493     1.007825032070

  Nuclear repulsion =  395.414188772871967
  Reference energy  = -313.541793465877674

  ==> Basis Set <==

  Basis Set: AUG-CC-PVTZ
    Number of shells: 274
    Number of basis function: 782
    Number of Cartesian functions: 890
    Spherical Harmonics?: true
    Max angular momentum: 3

  ==> CGRSolver (by Rob Parrish) <==

   Number of roots    =         1
   Preconditioning    =    JACOBI
   Convergence cutoff =     1E-06
   Maximum iterations =       100

  ==> CPHFRHamiltonian (by Rob Parrish) <== 

  ==> DFJK: Density-Fitted J/K Matrices <==

    J tasked:                  Yes
    K tasked:                  Yes
    wK tasked:                  No
    OpenMP threads:             12
    Integrals threads:          12
    Memory (MB):             42915
    Algorithm:                Core
    Integral Cache:           NONE
    Schwarz Cutoff:          1E-12
    Fitting Condition:       1E-12

   => Auxiliary Basis Set <=

  Basis Set: 
    Number of shells: 492
    Number of basis function: 1660
    Number of Cartesian functions: 2038
    Spherical Harmonics?: true
    Max angular momentum: 4

  ==> CPHF Iterations <==

  => Iterations <=

             Iter  Converged  Remaining    Residual
  CGR           1          0          1   9.156E-02
  CGR           2          0          1   1.314E-02
  CGR           3          0          1   3.791E-03
  CGR           4          0          1   8.545E-04
  CGR           5          0          1   1.970E-04
  CGR           6          0          1   4.926E-05
  CGR           7          0          1   1.410E-05
  CGR           8          0          1   3.353E-06
  CGR           9          1          0   8.469E-07

    CGRSolver converged.

  ==> DFCorrGrad: Density-Fitted Correlated Gradients <==

    OpenMP threads:             12
    Integrals threads:          12
    Memory (MB):             42915
    Schwarz Cutoff:          0E+00
    Fitting Condition:       1E-12

   => Auxiliary Basis Set <=

  Basis Set: 
    Number of shells: 492
    Number of basis function: 1660
    Number of Cartesian functions: 2038
    Spherical Harmonics?: true
    Max angular momentum: 4

	-----------------------------------------------------------
	 ==================> DF-MP2 Energies <==================== 
	-----------------------------------------------------------
	 Reference Energy          =    -313.5417934658776744 [Eh]
	 Singles Energy            =      -0.0000000000000000 [Eh]
	 Same-Spin Energy          =      -0.3164951359234026 [Eh]
	 Opposite-Spin Energy      =      -1.1255512820256717 [Eh]
	 Correlation Energy        =      -1.4420464179490744 [Eh]
	 Total Energy              =    -314.9838398838267608 [Eh]
	-----------------------------------------------------------
	 ================> DF-SCS-MP2 Energies <================== 
	-----------------------------------------------------------
	 SCS Same-Spin Scale       =       0.3333333333333333 [-]
	 SCS Opposite-Spin Scale   =       1.2000000000000000 [-]
	 SCS Same-Spin Energy      =      -0.1054983786411342 [Eh]
	 SCS Opposite-Spin Energy  =      -1.3506615384308061 [Eh]
	 SCS Correlation Energy    =      -1.4561599170719401 [Eh]
	 SCS Total Energy          =    -314.9979533829496177 [Eh]
	-----------------------------------------------------------


  -Total Gradient:
     Atom            X                  Y                   Z
    ------   -----------------  -----------------  -----------------
       1       -0.000000372634    -0.000001153880     0.000000375027
       2       -0.000000548060     0.000000423553     0.000000665575
       3        0.000001333719     0.000000408965     0.000000010254
       4       -0.000000286813     0.000000231298    -0.000001166209
       5       -0.000000834892     0.000000059815    -0.000000032063
       6        0.000000205422     0.000000540269    -0.000000267310
       7        0.000000354335    -0.000000069906     0.000000675502
       8        0.000000329059    -0.000000590528    -0.000000393092
       9        0.000000542005     0.000001031003    -0.000001432554
      10        0.000000483117    -0.000000255913     0.000001676823
      11       -0.000000838415    -0.000000121741    -0.000000144498
      12        0.000000755907    -0.000001098386     0.000000496173
      13       -0.000000554966     0.000000372112    -0.000001085487
      14       -0.000000232447     0.000001037694     0.000000512072
      15        0.000000361984     0.000001277028     0.000001022663
      16       -0.000000431978    -0.000001616952     0.000000756849
      17       -0.000000855537     0.000000190558    -0.000001518724
      18       -0.000001199046    -0.000001211766     0.000001436073
      19        0.000000316394    -0.000001091597    -0.000000592288
      20        0.000000505153     0.000002122122    -0.000001114677
      21        0.000001253772    -0.000000498368    -0.000002179810
      22       -0.000000265296    -0.000001814962     0.000000916695
      23       -0.000000581706     0.000001491916     0.000001401691
      24       -0.000000604692     0.000001616276    -0.000000337666
      25        0.000000641368    -0.000001225481    -0.000000792396
      26        0.000000524249    -0.000000053133     0.000001111378


			-----------------------------------------
			 OPTKING 2.0: for geometry optimizations 
			  - R.A. King,  Bethel University        
			-----------------------------------------

	Internal coordinates to be generated automatically.
	Detected frag 1 with atoms:  1 2 3 4 5 6 7 8 9 10 11 12 13 14 15 16 17 18 19 20
	 21 22 23 24 25 26
	---Fragment 1 Bond Connectivity---
	 1 : 2 3 4 9
	 2 : 1
	 3 : 1
	 4 : 1
	 5 : 6 7 8 12
	 6 : 5
	 7 : 5
	 8 : 5
	 9 : 1 10 11 15
	 10 : 9
	 11 : 9
	 12 : 5 13 14 24
	 13 : 12
	 14 : 12
	 15 : 9 16 17 18
	 16 : 15
	 17 : 15
	 18 : 15 19 20 21
	 19 : 18
	 20 : 18
	 21 : 18 22 23 24
	 22 : 21
	 23 : 21
	 24 : 12 21 25 26
	 25 : 24
	 26 : 24

	---Fragment 1 Geometry and Gradient---
	 C           4.8480913272       -2.9097612224        0.0702695711
	 H           5.9484718384       -4.1852207702       -1.1142519407
	 H           2.8724755915       -3.4764420941       -0.0713658488
	 H           5.4423159486       -3.1891387762        2.0255327400
	 C          -7.0828054982       -1.2244866174        0.2727672311
	 H          -7.7713569332       -2.9862664013        1.0867486477
	 H          -7.8700513810       -1.0500796030       -1.6240827029
	 H          -7.8263187155        0.3295003111        1.4046828949
	 C           5.2201821893       -0.1664976769       -0.7278524153
	 H           4.5466392811        0.0896825852       -2.6616930813
	 H           7.2376108721        0.2682672546       -0.7594418660
	 C          -4.2052526783       -1.1403505347        0.1960902216
	 H          -3.4618640598       -1.3835130315        2.1050314455
	 H          -3.4882908785       -2.7245534885       -0.9224576728
	 C           3.8994854527        1.7121204152        1.0247195064
	 H           4.2272562392        3.6304211121        0.3281040072
	 H           4.7749788361        1.6053047142        2.8945082059
	 C           1.0556498616        1.2868948613        1.2914591834
	 H           0.2791567501        2.7271512082        2.5564278036
	 H           0.7128402772       -0.5296225365        2.2077182474
	 C          -0.3535598381        1.4043679388       -1.2202259979
	 H           0.1879659026        3.1417864868       -2.2032441153
	 H           0.2379857057       -0.1622176558       -2.4327966893
	 C          -3.2228841737        1.3226369999       -0.9315394905
	 H          -3.8388904577        2.9043354598        0.2519583656
	 H          -4.1029989851        1.5980620191       -2.7818973580
	            -0.0000003726       -0.0000011539        0.0000003750
	            -0.0000005481        0.0000004236        0.0000006656
	             0.0000013337        0.0000004090        0.0000000103
	            -0.0000002868        0.0000002313       -0.0000011662
	            -0.0000008349        0.0000000598       -0.0000000321
	             0.0000002054        0.0000005403       -0.0000002673
	             0.0000003543       -0.0000000699        0.0000006755
	             0.0000003291       -0.0000005905       -0.0000003931
	             0.0000005420        0.0000010310       -0.0000014326
	             0.0000004831       -0.0000002559        0.0000016768
	            -0.0000008384       -0.0000001217       -0.0000001445
	             0.0000007559       -0.0000010984        0.0000004962
	            -0.0000005550        0.0000003721       -0.0000010855
	            -0.0000002324        0.0000010377        0.0000005121
	             0.0000003620        0.0000012770        0.0000010227
	            -0.0000004320       -0.0000016170        0.0000007568
	            -0.0000008555        0.0000001906       -0.0000015187
	            -0.0000011990       -0.0000012118        0.0000014361
	             0.0000003164       -0.0000010916       -0.0000005923
	             0.0000005052        0.0000021221       -0.0000011147
	             0.0000012538       -0.0000004984       -0.0000021798
	            -0.0000002653       -0.0000018150        0.0000009167
	            -0.0000005817        0.0000014919        0.0000014017
	            -0.0000006047        0.0000016163       -0.0000003377
	             0.0000006414       -0.0000012255       -0.0000007924
	             0.0000005242       -0.0000000531        0.0000011114

	Previous optimization step data not found.  Starting new optimization.

	---Fragment 1 Intrafragment Coordinates---
	 - Coordinate -           - BOHR/RAD -       - ANG/DEG -
	 R(1,2)           =         2.059302	       1.089736
	 R(1,3)           =         2.060157	       1.090188
	 R(1,4)           =         2.062573	       1.091467
	 R(1,9)           =         2.881136	       1.524632
	 R(5,6)           =         2.059256	       1.089712
	 R(5,7)           =         2.061119	       1.090697
	 R(5,8)           =         2.061291	       1.090788
	 R(5,12)          =         2.879804	       1.523926
	 R(9,10)          =         2.063741	       1.092085
	 R(9,11)          =         2.063986	       1.092214
	 R(9,15)          =         2.888763	       1.528668
	 R(12,13)         =         2.062962	       1.091672
	 R(12,14)         =         2.067579	       1.094116
	 R(12,24)         =         2.881476	       1.524811
	 R(15,16)         =         2.067023	       1.093822
	 R(15,17)         =         2.067367	       1.094004
	 R(15,18)         =         2.887796	       1.528156
	 R(18,19)         =         2.068194	       1.094441
	 R(18,20)         =         2.063198	       1.091797
	 R(18,21)         =         2.882401	       1.525301
	 R(21,22)         =         2.068381	       1.094540
	 R(21,23)         =         2.067473	       1.094060
	 R(21,24)         =         2.884968	       1.526659
	 R(24,25)         =         2.069275	       1.095013
	 R(24,26)         =         2.067434	       1.094039
	 B(1,9,10)        =         1.913064	     109.610470
	 B(1,9,11)        =         1.908199	     109.331743
	 B(1,9,15)        =         1.973702	     113.084797
	 B(2,1,3)         =         1.878118	     107.608226
	 B(2,1,4)         =         1.883299	     107.905072
	 B(2,1,9)         =         1.940539	     111.184691
	 B(3,1,4)         =         1.879885	     107.709504
	 B(3,1,9)         =         1.946263	     111.512654
	 B(4,1,9)         =         1.933032	     110.754593
	 B(5,12,13)       =         1.909206	     109.389419
	 B(5,12,14)       =         1.916131	     109.786227
	 B(5,12,24)       =         1.956328	     112.089312
	 B(6,5,7)         =         1.884367	     107.966286
	 B(6,5,8)         =         1.883169	     107.897625
	 B(6,5,12)        =         1.949405	     111.692658
	 B(7,5,8)         =         1.879476	     107.686063
	 B(7,5,12)        =         1.933364	     110.773601
	 B(8,5,12)        =         1.931589	     110.671911
	 B(9,15,16)       =         1.903469	     109.060765
	 B(9,15,17)       =         1.898104	     108.753364
	 B(9,15,18)       =         1.993803	     114.236486
	 B(10,9,11)       =         1.853047	     106.171790
	 B(10,9,15)       =         1.916183	     109.789210
	 B(11,9,15)       =         1.895651	     108.612824
	 B(12,24,21)      =         1.984990	     113.731535
	 B(12,24,25)      =         1.905033	     109.150367
	 B(12,24,26)      =         1.895457	     108.601678
	 B(13,12,14)      =         1.860150	     106.578769
	 B(13,12,24)      =         1.917734	     109.878063
	 B(14,12,24)      =         1.901808	     108.965553
	 B(15,18,19)      =         1.900415	     108.885787
	 B(15,18,20)      =         1.911647	     109.529317
	 B(15,18,21)      =         1.976831	     113.264074
	 B(16,15,17)      =         1.860432	     106.594911
	 B(16,15,18)      =         1.900689	     108.901448
	 B(17,15,18)      =         1.902746	     109.019342
	 B(18,21,22)      =         1.896915	     108.685243
	 B(18,21,23)      =         1.918034	     109.895231
	 B(18,21,24)      =         1.980023	     113.446946
	 B(19,18,20)      =         1.853672	     106.207573
	 B(19,18,21)      =         1.897612	     108.725160
	 B(20,18,21)      =         1.919446	     109.976160
	 B(21,24,25)      =         1.908853	     109.369217
	 B(21,24,26)      =         1.907166	     109.272555
	 B(22,21,23)      =         1.857546	     106.429558
	 B(22,21,24)      =         1.908950	     109.374776
	 B(23,21,24)      =         1.898416	     108.771248
	 B(25,24,26)      =         1.858058	     106.458874
	 D(1,9,15,16)     =        -3.130066	    -179.339554
	 D(1,9,15,17)     =         1.130707	      64.784723
	 D(1,9,15,18)     =        -0.999010	     -57.239048
	 D(2,1,9,10)      =         1.086415	      62.246999
	 D(2,1,9,11)      =        -0.938118	     -53.750205
	 D(2,1,9,15)      =        -3.052503	    -174.895534
	 D(3,1,9,10)      =        -1.009702	     -57.851674
	 D(3,1,9,11)      =        -3.034235	    -173.848878
	 D(3,1,9,15)      =         1.134565	      65.005793
	 D(4,1,9,10)      =        -3.102979	    -177.787618
	 D(4,1,9,11)      =         1.155673	      66.215178
	 D(4,1,9,15)      =        -0.958712	     -54.930151
	 D(5,12,24,21)    =        -3.067981	    -175.782368
	 D(5,12,24,25)    =         1.078504	      61.793707
	 D(5,12,24,26)    =        -0.940484	     -53.885737
	 D(6,5,12,13)     =        -1.006403	     -57.662624
	 D(6,5,12,14)     =         1.029012	      58.958039
	 D(6,5,12,24)     =        -3.137986	    -179.793348
	 D(7,5,12,13)     =        -3.107682	    -178.057034
	 D(7,5,12,14)     =        -1.072267	     -61.436371
	 D(7,5,12,24)     =         1.043921	      59.812242
	 D(8,5,12,13)     =         1.092146	      62.575355
	 D(8,5,12,14)     =         3.127561	     179.196018
	 D(8,5,12,24)     =        -1.039437	     -59.555369
	 D(9,15,18,19)    =        -3.130158	    -179.344855
	 D(9,15,18,20)    =         1.132918	      64.911398
	 D(9,15,18,21)    =        -1.016721	     -58.253795
	 D(10,9,15,16)    =        -0.987531	     -56.581362
	 D(10,9,15,17)    =        -3.009944	    -172.457085
	 D(10,9,15,18)    =         1.143525	      65.519144
	 D(11,9,15,16)    =         1.031653	      59.109384
	 D(11,9,15,17)    =        -0.990760	     -56.766338
	 D(11,9,15,18)    =        -3.120476	    -178.790110
	 D(12,24,21,18)   =        -1.115511	     -63.914047
	 D(12,24,21,22)   =         3.046880	     174.573390
	 D(12,24,21,23)   =         1.024739	      58.713229
	 D(13,12,24,21)   =         1.088492	      62.365979
	 D(13,12,24,25)   =        -1.048209	     -60.057946
	 D(13,12,24,26)   =        -3.067196	    -175.737390
	 D(14,12,24,21)   =        -0.943568	     -54.062479
	 D(14,12,24,25)   =        -3.080269	    -176.486404
	 D(14,12,24,26)   =         1.183929	      67.834152
	 D(15,18,21,22)   =        -0.883791	     -50.637478
	 D(15,18,21,23)   =         1.142512	      65.461109
	 D(15,18,21,24)   =        -3.011305	    -172.535046
	 D(16,15,18,19)   =        -0.997580	     -57.157142
	 D(16,15,18,20)   =        -3.017690	    -172.900889
	 D(16,15,18,21)   =         1.115857	      63.933918
	 D(17,15,18,19)   =         1.025857	      58.777273
	 D(17,15,18,20)   =        -0.994253	     -56.966474
	 D(17,15,18,21)   =         3.139295	     179.868333
	 D(18,21,24,25)   =         1.019084	      58.389214
	 D(18,21,24,26)   =         3.046679	     174.561864
	 D(19,18,21,22)   =         1.231227	      70.544128
	 D(19,18,21,23)   =        -3.025655	    -173.357285
	 D(19,18,21,24)   =        -0.896287	     -51.353440
	 D(20,18,21,22)   =        -3.029123	    -173.555982
	 D(20,18,21,23)   =        -1.002821	     -57.457395
	 D(20,18,21,24)   =         1.126548	      64.546450
	 D(22,21,24,25)   =        -1.101710	     -63.123348
	 D(22,21,24,26)   =         0.925885	      53.049301
	 D(23,21,24,25)   =        -3.123852	    -178.983509
	 D(23,21,24,26)   =        -1.096256	     -62.810860
	 R(1,21)          =         6.879990	       3.640734

	Current energy   :      -314.9838398838

	Generating empirical Hessian (Schlegel '84) for each fragment.
	Taking RFO optimization step.
	Going to follow RFO solution 1.
	Using RFO vector 1.
	Norm of target step-size    0.00082
	Projected energy change by RFO approximation:        -0.0000000023

	Back-transformation to cartesian coordinates...
	Successfully converged to displaced geometry.

	--- Internal Coordinate Step in ANG or DEG, aJ/ANG or AJ/DEG ---
	 ---------------------------------------------------------------------------
	   Coordinate                Previous        Force       Change         New 
	   ----------                --------       ------       ------       ------
	    1 R(1,2)          =      1.089736     0.000008     0.000001     1.089737
	    2 R(1,3)          =      1.090188     0.000011     0.000002     1.090190
	    3 R(1,4)          =      1.091467     0.000010     0.000002     1.091469
	    4 R(1,9)          =      1.524632    -0.000000    -0.000000     1.524631
	    5 R(5,6)          =      1.089712     0.000005     0.000001     1.089713
	    6 R(5,7)          =      1.090697     0.000007     0.000001     1.090699
	    7 R(5,8)          =      1.090788     0.000006     0.000001     1.090789
	    8 R(5,12)         =      1.523926     0.000000     0.000000     1.523926
	    9 R(9,10)         =      1.092085     0.000014     0.000003     1.092088
	   10 R(9,11)         =      1.092214     0.000007     0.000001     1.092215
	   11 R(9,15)         =      1.528668     0.000001    -0.000000     1.528668
	   12 R(12,13)        =      1.091672     0.000010     0.000002     1.091674
	   13 R(12,14)        =      1.094116     0.000010     0.000002     1.094117
	   14 R(12,24)        =      1.524811     0.000002     0.000000     1.524812
	   15 R(15,16)        =      1.093822     0.000015     0.000003     1.093824
	   16 R(15,17)        =      1.094004     0.000015     0.000003     1.094006
	   17 R(15,18)        =      1.528156     0.000005     0.000001     1.528157
	   18 R(18,19)        =      1.094441     0.000010     0.000002     1.094443
	   19 R(18,20)        =      1.091797     0.000020     0.000004     1.091801
	   20 R(18,21)        =      1.525301     0.000007     0.000001     1.525302
	   21 R(21,22)        =      1.094540     0.000017     0.000003     1.094543
	   22 R(21,23)        =      1.094060     0.000017     0.000003     1.094063
	   23 R(21,24)        =      1.526659     0.000005     0.000001     1.526660
	   24 R(24,25)        =      1.095013     0.000013     0.000002     1.095016
	   25 R(24,26)        =      1.094039     0.000010     0.000002     1.094041
	   26 B(1,9,10)       =    109.610470     0.000000     0.000046   109.610515
	   27 B(1,9,11)       =    109.331743    -0.000000    -0.000012   109.331731
	   28 B(1,9,15)       =    113.084797    -0.000000    -0.000062   113.084735
	   29 B(2,1,3)        =    107.608226     0.000000     0.000035   107.608261
	   30 B(2,1,4)        =    107.905072     0.000000     0.000030   107.905103
	   31 B(2,1,9)        =    111.184691    -0.000000    -0.000127   111.184564
	   32 B(3,1,4)        =    107.709504    -0.000000    -0.000028   107.709476
	   33 B(3,1,9)        =    111.512654     0.000000     0.000039   111.512693
	   34 B(4,1,9)        =    110.754593     0.000000     0.000053   110.754646
	   35 B(5,12,13)      =    109.389419     0.000000     0.000109   109.389528
	   36 B(5,12,14)      =    109.786227    -0.000000    -0.000163   109.786064
	   37 B(5,12,24)      =    112.089312    -0.000000    -0.000022   112.089290
	   38 B(6,5,7)        =    107.966286    -0.000000    -0.000031   107.966256
	   39 B(6,5,8)        =    107.897625    -0.000000     0.000017   107.897642
	   40 B(6,5,12)       =    111.692658    -0.000000    -0.000015   111.692643
	   41 B(7,5,8)        =    107.686063    -0.000000    -0.000024   107.686038
	   42 B(7,5,12)       =    110.773601     0.000000    -0.000003   110.773598
	   43 B(8,5,12)       =    110.671911     0.000000     0.000054   110.671965
	   44 B(9,15,16)      =    109.060765     0.000000     0.000178   109.060943
	   45 B(9,15,17)      =    108.753364    -0.000000    -0.000192   108.753171
	   46 B(9,15,18)      =    114.236486    -0.000000    -0.000271   114.236214
	   47 B(10,9,11)      =    106.171790     0.000000     0.000040   106.171830
	   48 B(10,9,15)      =    109.789210     0.000000     0.000053   109.789263
	   49 B(11,9,15)      =    108.612824    -0.000000    -0.000060   108.612764
	   50 B(12,24,21)     =    113.731535    -0.000000    -0.000016   113.731519
	   51 B(12,24,25)     =    109.150367     0.000000     0.000181   109.150548
	   52 B(12,24,26)     =    108.601678    -0.000000    -0.000224   108.601454
	   53 B(13,12,14)     =    106.578769    -0.000000    -0.000091   106.578677
	   54 B(13,12,24)     =    109.878063     0.000000     0.000127   109.878190
	   55 B(14,12,24)     =    108.965553     0.000000     0.000036   108.965589
	   56 B(15,18,19)     =    108.885787     0.000000     0.000266   108.886053
	   57 B(15,18,20)     =    109.529317    -0.000000    -0.000322   109.528995
	   58 B(15,18,21)     =    113.264074     0.000000     0.000099   113.264173
	   59 B(16,15,17)     =    106.594911    -0.000000     0.000082   106.594993
	   60 B(16,15,18)     =    108.901448     0.000000     0.000308   108.901756
	   61 B(17,15,18)     =    109.019342     0.000000    -0.000083   109.019259
	   62 B(18,21,22)     =    108.685243    -0.000000     0.000075   108.685318
	   63 B(18,21,23)     =    109.895231    -0.000000    -0.000075   109.895156
	   64 B(18,21,24)     =    113.446946     0.000000     0.000260   113.447206
	   65 B(19,18,20)     =    106.207573     0.000000     0.000046   106.207619
	   66 B(19,18,21)     =    108.725160    -0.000000     0.000013   108.725173
	   67 B(20,18,21)     =    109.976160     0.000000    -0.000098   109.976062
	   68 B(21,24,25)     =    109.369217     0.000000     0.000232   109.369449
	   69 B(21,24,26)     =    109.272555    -0.000000    -0.000153   109.272402
	   70 B(22,21,23)     =    106.429558     0.000000    -0.000039   106.429519
	   71 B(22,21,24)     =    109.374776    -0.000000     0.000186   109.374962
	   72 B(23,21,24)     =    108.771248    -0.000000    -0.000422   108.770827
	   73 B(25,24,26)     =    106.458874    -0.000000    -0.000023   106.458851
	   74 D(1,9,15,16)    =   -179.339554    -0.000000     0.003516  -179.336038
	   75 D(1,9,15,17)    =     64.784723    -0.000000     0.003427    64.788150
	   76 D(1,9,15,18)    =    -57.239048     0.000000     0.003862   -57.235187
	   77 D(2,1,9,10)     =     62.246999    -0.000000    -0.000132    62.246867
	   78 D(2,1,9,11)     =    -53.750205    -0.000000    -0.000198   -53.750404
	   79 D(2,1,9,15)     =   -174.895534     0.000000    -0.000072  -174.895607
	   80 D(3,1,9,10)     =    -57.851674     0.000000    -0.000116   -57.851790
	   81 D(3,1,9,11)     =   -173.848878    -0.000000    -0.000183  -173.849061
	   82 D(3,1,9,15)     =     65.005793     0.000000    -0.000057    65.005736
	   83 D(4,1,9,10)     =   -177.787618    -0.000000    -0.000142  -177.787760
	   84 D(4,1,9,11)     =     66.215178    -0.000000    -0.000209    66.214969
	   85 D(4,1,9,15)     =    -54.930151     0.000000    -0.000083   -54.930234
	   86 D(5,12,24,21)   =   -175.782368     0.000000     0.000668  -175.781699
	   87 D(5,12,24,25)   =     61.793707     0.000000     0.000246    61.793953
	   88 D(5,12,24,26)   =    -53.885737     0.000000     0.000298   -53.885439
	   89 D(6,5,12,13)    =    -57.662624     0.000000     0.000196   -57.662427
	   90 D(6,5,12,14)    =     58.958039    -0.000000     0.000056    58.958094
	   91 D(6,5,12,24)    =   -179.793348    -0.000000    -0.000026  -179.793375
	   92 D(7,5,12,13)    =   -178.057034     0.000000     0.000247  -178.056787
	   93 D(7,5,12,14)    =    -61.436371    -0.000000     0.000107   -61.436265
	   94 D(7,5,12,24)    =     59.812242    -0.000000     0.000024    59.812266
	   95 D(8,5,12,13)    =     62.575355     0.000000     0.000244    62.575600
	   96 D(8,5,12,14)    =    179.196018    -0.000000     0.000104   179.196122
	   97 D(8,5,12,24)    =    -59.555369    -0.000000     0.000022   -59.555347
	   98 D(9,15,18,19)   =   -179.344855    -0.000000    -0.004778  -179.349633
	   99 D(9,15,18,20)   =     64.911398    -0.000000    -0.004805    64.906593
	  100 D(9,15,18,21)   =    -58.253795    -0.000000    -0.004508   -58.258302
	  101 D(10,9,15,16)   =    -56.581362     0.000000     0.003571   -56.577792
	  102 D(10,9,15,17)   =   -172.457085    -0.000000     0.003482  -172.453603
	  103 D(10,9,15,18)   =     65.519144     0.000000     0.003916    65.523060
	  104 D(11,9,15,16)   =     59.109384     0.000000     0.003614    59.112998
	  105 D(11,9,15,17)   =    -56.766338    -0.000000     0.003525   -56.762814
	  106 D(11,9,15,18)   =   -178.790110     0.000000     0.003959  -178.786150
	  107 D(12,24,21,18)  =    -63.914047    -0.000000    -0.002936   -63.916983
	  108 D(12,24,21,22)  =    174.573390    -0.000000    -0.003343   174.570047
	  109 D(12,24,21,23)  =     58.713229    -0.000000    -0.003164    58.710065
	  110 D(13,12,24,21)  =     62.365979     0.000000     0.000455    62.366434
	  111 D(13,12,24,25)  =    -60.057946    -0.000000     0.000032   -60.057914
	  112 D(13,12,24,26)  =   -175.737390    -0.000000     0.000085  -175.737305
	  113 D(14,12,24,21)  =    -54.062479     0.000000     0.000473   -54.062006
	  114 D(14,12,24,25)  =   -176.486404    -0.000000     0.000050  -176.486354
	  115 D(14,12,24,26)  =     67.834152    -0.000000     0.000103    67.834255
	  116 D(15,18,21,22)  =    -50.637478    -0.000000    -0.014390   -50.651869
	  117 D(15,18,21,23)  =     65.461109    -0.000000    -0.014436    65.446673
	  118 D(15,18,21,24)  =   -172.535046    -0.000000    -0.014855  -172.549902
	  119 D(16,15,18,19)  =    -57.157142    -0.000000    -0.004503   -57.161645
	  120 D(16,15,18,20)  =   -172.900889    -0.000000    -0.004530  -172.905419
	  121 D(16,15,18,21)  =     63.933918    -0.000000    -0.004233    63.929686
	  122 D(17,15,18,19)  =     58.777273     0.000000    -0.004282    58.772991
	  123 D(17,15,18,20)  =    -56.966474     0.000000    -0.004308   -56.970782
	  124 D(17,15,18,21)  =    179.868333     0.000000    -0.004011   179.864322
	  125 D(18,21,24,25)  =     58.389214     0.000000    -0.002540    58.386674
	  126 D(18,21,24,26)  =    174.561864     0.000000    -0.002524   174.559340
	  127 D(19,18,21,22)  =     70.544128    -0.000000    -0.013978    70.530150
	  128 D(19,18,21,23)  =   -173.357285    -0.000000    -0.014023  -173.371309
	  129 D(19,18,21,24)  =    -51.353440    -0.000000    -0.014443   -51.367883
	  130 D(20,18,21,22)  =   -173.555982    -0.000000    -0.013969  -173.569952
	  131 D(20,18,21,23)  =    -57.457395    -0.000000    -0.014015   -57.471410
	  132 D(20,18,21,24)  =     64.546450    -0.000000    -0.014434    64.532015
	  133 D(22,21,24,25)  =    -63.123348    -0.000000    -0.002947   -63.126296
	  134 D(22,21,24,26)  =     53.049301    -0.000000    -0.002931    53.046370
	  135 D(23,21,24,25)  =   -178.983509     0.000000    -0.002769  -178.986278
	  136 D(23,21,24,26)  =    -62.810860     0.000000    -0.002752   -62.813612
	  137 R(1,21)         =      3.640734    -0.000000     0.000006     3.640740
	 ---------------------------------------------------------------------------

  ==> Convergence Check <==

  Measures of convergence in internal coordinates in au.
  Criteria marked as inactive (o), active & met (*), and active & unmet ( ).
  --------------------------------------------------------------------------------------------- ~
   Step     Total Energy     Delta E     MAX Force     RMS Force      MAX Disp      RMS Disp    ~
  --------------------------------------------------------------------------------------------- ~
    Convergence Criteria             o    2.00e-06 *    1.00e-06 *    6.00e-06 *    4.00e-06 *  ~
  --------------------------------------------------------------------------------------------- ~
      1    -314.98383988   -3.15e+02 o    2.46e-06      5.83e-07 *    2.59e-04      7.02e-05    ~
  ---------------------------------------------------------------------------------------------

	Writing optimization data to binary file.
	Structure for next step:
	Cartesian Geometry (in Angstrom)
	    C     2.5651969875  -1.5398509003   0.0372846256
	    H     3.1473911548  -2.2149311879  -0.5894878197
	    H     1.5196983706  -1.8395721998  -0.0376426040
	    H     2.8796251773  -1.6876616186   1.0719782092
	    C    -3.7478950285  -0.6482042583   0.1442948977
	    H    -4.1121453884  -1.5806018125   0.5749105349
	    H    -4.1645279780  -0.5558122589  -0.8594502533
	    H    -4.1414193876   0.1740005158   0.7434102456
	    C     2.7623215152  -0.0882410636  -0.3851741969
	    H     2.4059199926   0.0473008385  -1.4085321301
	    H     3.8299352208   0.1416626805  -0.4019050000
	    C    -2.2251656998  -0.6035078274   0.1036804540
	    H    -1.8317345164  -0.7322915086   1.1138186920
	    H    -1.8456934908  -1.4417055815  -0.4883654826
	    C     2.0635896383   0.9060574721   0.5421710734
	    H     2.2371396294   1.9211241093   0.1734276309
	    H     2.5269152889   0.8495784050   1.5316100860
	    C     0.5586771625   0.6812149185   0.6834077819
	    H     0.1478924687   1.4434283509   1.3528045058
	    H     0.3771898386  -0.2800167720   1.1683049457
	    C    -0.1871088727   0.7434269428  -0.6456818556
	    H     0.0993361817   1.6629103819  -1.1658008171
	    H     0.1259844499  -0.0854838255  -1.2874395361
	    C    -1.7054802659   0.6999935920  -0.4928616213
	    H    -2.0315258962   1.5368689767   0.1335515962
	    H    -2.1712693056   0.8458324607  -1.4719926278
			--------------------------
			 OPTKING Finished Execution 
			--------------------------

    Structure for next step:
    Molecular point group: c1
    Full point group: C1

    Geometry (in Angstrom), charge = 0, multiplicity = 1:

    C            2.565192589984    -1.539861830936     0.037285914595
    H            3.147386757245    -2.214942118551    -0.589486530736
    H            1.519693973105    -1.839583130492    -0.037641315061
    H            2.879620779792    -1.687672549251     1.071979498206
    C           -3.747899426044    -0.648215188978     0.144296186714
    H           -4.112149785921    -1.580612743120     0.574911823914
    H           -4.164532375563    -0.555823189535    -0.859448964341
    H           -4.141423785113     0.173989585140     0.743411534555
    C            2.762317117660    -0.088251994275    -0.385172907965
    H            2.405915595134     0.047289907873    -1.408530841171
    H            3.829930823288     0.141651749793    -0.401903711071
    C           -2.225170097329    -0.603518758077     0.103681742985
    H           -1.831738913936    -0.732302439304     1.113819981011
    H           -1.845697888349    -1.441716512179    -0.488364193643
    C            2.063585240786     0.906046541415     0.542172362346
    H            2.237135231899     1.921113178599     0.173428919848
    H            2.526910891366     0.849567474314     1.531611374957
    C            0.558672764986     0.681203987847     0.683409070820
    H            0.147888071177     1.443417420253     1.352805794723
    H            0.377185441099    -0.280027702646     1.168306234710
    C           -0.187113270199     0.743416012142    -0.645680566679
    H            0.099331784165     1.662899451254    -1.165799528107
    H            0.125980052343    -0.085494756199    -1.287438247118
    C           -1.705484663454     0.699982661343    -0.492860332381
    H           -2.031530293745     1.536858046040     0.133552885144
    H           -2.171273703081     0.845821530031    -1.471991338884

gradient() will perform analytic gradient computation.

*** tstart() called on wr42
*** at Wed Sep 21 05:03:24 2016


         ---------------------------------------------------------
                                   SCF
            by Justin Turney, Rob Parrish, and Andy Simmonett
                              RHF Reference
                       12 Threads,  60000 MiB Core
         ---------------------------------------------------------

  ==> Geometry <==

    Molecular point group: c1
    Full point group: C1

    Geometry (in Angstrom), charge = 0, multiplicity = 1:

       Center              X                  Y                   Z               Mass       
    ------------   -----------------  -----------------  -----------------  -----------------
           C          2.565192589984    -1.539861830936     0.037285914595    12.000000000000
           H          3.147386757245    -2.214942118551    -0.589486530736     1.007825032070
           H          1.519693973105    -1.839583130492    -0.037641315061     1.007825032070
           H          2.879620779792    -1.687672549251     1.071979498206     1.007825032070
           C         -3.747899426044    -0.648215188978     0.144296186714    12.000000000000
           H         -4.112149785921    -1.580612743120     0.574911823914     1.007825032070
           H         -4.164532375563    -0.555823189535    -0.859448964341     1.007825032070
           H         -4.141423785113     0.173989585140     0.743411534555     1.007825032070
           C          2.762317117660    -0.088251994275    -0.385172907965    12.000000000000
           H          2.405915595134     0.047289907873    -1.408530841171     1.007825032070
           H          3.829930823288     0.141651749793    -0.401903711071     1.007825032070
           C         -2.225170097329    -0.603518758077     0.103681742985    12.000000000000
           H         -1.831738913936    -0.732302439304     1.113819981011     1.007825032070
           H         -1.845697888349    -1.441716512179    -0.488364193643     1.007825032070
           C          2.063585240786     0.906046541415     0.542172362346    12.000000000000
           H          2.237135231899     1.921113178599     0.173428919848     1.007825032070
           H          2.526910891366     0.849567474314     1.531611374957     1.007825032070
           C          0.558672764986     0.681203987847     0.683409070820    12.000000000000
           H          0.147888071177     1.443417420253     1.352805794723     1.007825032070
           H          0.377185441099    -0.280027702646     1.168306234710     1.007825032070
           C         -0.187113270199     0.743416012142    -0.645680566679    12.000000000000
           H          0.099331784165     1.662899451254    -1.165799528107     1.007825032070
           H          0.125980052343    -0.085494756199    -1.287438247118     1.007825032070
           C         -1.705484663454     0.699982661343    -0.492860332381    12.000000000000
           H         -2.031530293745     1.536858046040     0.133552885144     1.007825032070
           H         -2.171273703081     0.845821530031    -1.471991338884     1.007825032070

  Running in c1 symmetry.

  Rotational constants: A =      0.12789  B =      0.02609  C =      0.02393 [cm^-1]
  Rotational constants: A =   3834.04575  B =    782.22249  C =    717.35592 [MHz]
  Nuclear repulsion =  395.415953049622146

  Charge       = 0
  Multiplicity = 1
  Electrons    = 66
  Nalpha       = 33
  Nbeta        = 33

  ==> Algorithm <==

  SCF Algorithm Type is DF.
  DIIS enabled.
  MOM disabled.
  Fractional occupation disabled.
  Guess Type is READ.
  Energy threshold   = 1.00e-10
  Density threshold  = 1.00e-10
  Integral threshold = 0.00e+00

  ==> Primary Basis <==

  Basis Set: AUG-CC-PVTZ
    Number of shells: 274
    Number of basis function: 782
    Number of Cartesian functions: 890
    Spherical Harmonics?: true
    Max angular momentum: 3

  ==> Pre-Iterations <==

   -------------------------------------------------------
    Irrep   Nso     Nmo     Nalpha   Nbeta   Ndocc  Nsocc
   -------------------------------------------------------
     A        782     782       0       0       0       0
   -------------------------------------------------------
    Total     782     782      33      33      33       0
   -------------------------------------------------------

  ==> Integral Setup <==

  ==> DFJK: Density-Fitted J/K Matrices <==

    J tasked:                  Yes
    K tasked:                  Yes
    wK tasked:                  No
    OpenMP threads:             12
    Integrals threads:          12
    Memory (MB):             42915
    Algorithm:                Core
    Integral Cache:           NONE
    Schwarz Cutoff:          1E-12
    Fitting Condition:       1E-12

   => Auxiliary Basis Set <=

  Basis Set: 
    Number of shells: 492
    Number of basis function: 1660
    Number of Cartesian functions: 2038
    Spherical Harmonics?: true
    Max angular momentum: 4

  Minimum eigenvalue in the overlap matrix is 1.7647101727E-06.
  Using Symmetric Orthogonalization.
  SCF Guess: Reading in previously saved MOs, projecting if necessary.

  Using orbitals from previous SCF, no projection.
  Recomputing DOCC and SOCC from number of alpha and beta electrons from previous calculation.
              A 
    DOCC [    33 ]

  ==> Iterations <==

                           Total Energy        Delta E     RMS |[F,P]|

   @DF-RHF iter   0:  -313.54161777235328   -3.13542e+02   6.48527e-07 
   @DF-RHF iter   1:  -313.54179263173779   -1.74859e-04   1.47687e-07 
   @DF-RHF iter   2:  -313.54179264200940   -1.02716e-08   6.58370e-08 DIIS
   @DF-RHF iter   3:  -313.54179264366536   -1.65596e-09   2.22112e-08 DIIS
   @DF-RHF iter   4:  -313.54179264398130   -3.15936e-10   2.82438e-09 DIIS
   @DF-RHF iter   5:  -313.54179264398732   -6.02540e-12   9.67684e-10 DIIS
   @DF-RHF iter   6:  -313.54179264398823   -9.09495e-13   2.31584e-10 DIIS
   @DF-RHF iter   7:  -313.54179264398755    6.82121e-13   5.10087e-11 DIIS

  ==> Post-Iterations <==

    Orbital Energies (a.u.)
    -----------------------

    Doubly Occupied:                                                      

       1A    -11.212220     2A    -11.211908     3A    -11.210613  
       4A    -11.210490     5A    -11.209945     6A    -11.208747  
       7A    -11.207063     8A    -11.206864     9A     -1.095236  
      10A     -1.060646    11A     -1.006363    12A     -0.948830  
      13A     -0.881204    14A     -0.836530    15A     -0.788790  
      16A     -0.750495    17A     -0.645352    18A     -0.628646  
      19A     -0.621309    20A     -0.583239    21A     -0.579704  
      22A     -0.564895    23A     -0.541398    24A     -0.529053  
      25A     -0.521573    26A     -0.497579    27A     -0.491857  
      28A     -0.471744    29A     -0.468497    30A     -0.459514  
      31A     -0.445325    32A     -0.437735    33A     -0.436465  

    Virtual:                                                              

      34A      0.030163    35A      0.032527    36A      0.034674  
      37A      0.035290    38A      0.045119    39A      0.048126  
      40A      0.049490    41A      0.053943    42A      0.054707  
      43A      0.067121    44A      0.069282    45A      0.070196  
      46A      0.071711    47A      0.078345    48A      0.086727  
      49A      0.091609    50A      0.098035    51A      0.101377  
      52A      0.115014    53A      0.117506    54A      0.119539  
      55A      0.123697    56A      0.125274    57A      0.129089  
      58A      0.133627    59A      0.135056    60A      0.140478  
      61A      0.146919    62A      0.148541    63A      0.152504  
      64A      0.153991    65A      0.155774    66A      0.160661  
      67A      0.163372    68A      0.166164    69A      0.169797  
      70A      0.174348    71A      0.176487    72A      0.185973  
      73A      0.191476    74A      0.193561    75A      0.197603  
      76A      0.200776    77A      0.217758    78A      0.227806  
      79A      0.228636    80A      0.236662    81A      0.241089  
      82A      0.246946    83A      0.250728    84A      0.257354  
      85A      0.264265    86A      0.270243    87A      0.273453  
      88A      0.279713    89A      0.287367    90A      0.294712  
      91A      0.295801    92A      0.303185    93A      0.306206  
      94A      0.309408    95A      0.318413    96A      0.323013  
      97A      0.323955    98A      0.324821    99A      0.330082  
     100A      0.334681   101A      0.335791   102A      0.342702  
     103A      0.347563   104A      0.350706   105A      0.352155  
     106A      0.357777   107A      0.363410   108A      0.369596  
     109A      0.370310   110A      0.372175   111A      0.375443  
     112A      0.379558   113A      0.385074   114A      0.386556  
     115A      0.391756   116A      0.396583   117A      0.399908  
     118A      0.404462   119A      0.406063   120A      0.410430  
     121A      0.413771   122A      0.419687   123A      0.421965  
     124A      0.426293   125A      0.429653   126A      0.434635  
     127A      0.436113   128A      0.443890   129A      0.445554  
     130A      0.451870   131A      0.454542   132A      0.460823  
     133A      0.466608   134A      0.469455   135A      0.472878  
     136A      0.475470   137A      0.480540   138A      0.482866  
     139A      0.485547   140A      0.488181   141A      0.493137  
     142A      0.493771   143A      0.498951   144A      0.502450  
     145A      0.504002   146A      0.511842   147A      0.512104  
     148A      0.515920   149A      0.523451   150A      0.528605  
     151A      0.531798   152A      0.536324   153A      0.537617  
     154A      0.542129   155A      0.545747   156A      0.549266  
     157A      0.555417   158A      0.558757   159A      0.563054  
     160A      0.568493   161A      0.569875   162A      0.576750  
     163A      0.585783   164A      0.586812   165A      0.589754  
     166A      0.590821   167A      0.600878   168A      0.604365  
     169A      0.611073   170A      0.615308   171A      0.617561  
     172A      0.626800   173A      0.629573   174A      0.633117  
     175A      0.637954   176A      0.644690   177A      0.647563  
     178A      0.655591   179A      0.659870   180A      0.663377  
     181A      0.670603   182A      0.678784   183A      0.680972  
     184A      0.690594   185A      0.692907   186A      0.696841  
     187A      0.703690   188A      0.708379   189A      0.719181  
     190A      0.722462   191A      0.727070   192A      0.734107  
     193A      0.740860   194A      0.744510   195A      0.749979  
     196A      0.757281   197A      0.766660   198A      0.777746  
     199A      0.782713   200A      0.790713   201A      0.792402  
     202A      0.804746   203A      0.816015   204A      0.819420  
     205A      0.829665   206A      0.839145   207A      0.842508  
     208A      0.850503   209A      0.855182   210A      0.860417  
     211A      0.861652   212A      0.870752   213A      0.872868  
     214A      0.877855   215A      0.884341   216A      0.889552  
     217A      0.896208   218A      0.904236   219A      0.905613  
     220A      0.909421   221A      0.919636   222A      0.922440  
     223A      0.929696   224A      0.933941   225A      0.936143  
     226A      0.937914   227A      0.945296   228A      0.946654  
     229A      0.953700   230A      0.959647   231A      0.964404  
     232A      0.969773   233A      0.974983   234A      0.980192  
     235A      0.984442   236A      0.987786   237A      0.998001  
     238A      1.001895   239A      1.004719   240A      1.013349  
     241A      1.015599   242A      1.026719   243A      1.028471  
     244A      1.032118   245A      1.035699   246A      1.040834  
     247A      1.045441   248A      1.050134   249A      1.053396  
     250A      1.059108   251A      1.065704   252A      1.071106  
     253A      1.074378   254A      1.090444   255A      1.092605  
     256A      1.095489   257A      1.100261   258A      1.104217  
     259A      1.113872   260A      1.116428   261A      1.121588  
     262A      1.130854   263A      1.133338   264A      1.139636  
     265A      1.146015   266A      1.149523   267A      1.152968  
     268A      1.157873   269A      1.158215   270A      1.163371  
     271A      1.174441   272A      1.178944   273A      1.182112  
     274A      1.185771   275A      1.192241   276A      1.197859  
     277A      1.206596   278A      1.209074   279A      1.214460  
     280A      1.224889   281A      1.227984   282A      1.230534  
     283A      1.236562   284A      1.239045   285A      1.240932  
     286A      1.252559   287A      1.255088   288A      1.265190  
     289A      1.272766   290A      1.275695   291A      1.282047  
[...]
	 Skipping Hessian update for step 11.
	Denominators (dg)(dq) or (dq)(dq) are very small.
	 Skipping Hessian update for step 10.
	Denominators (dg)(dq) or (dq)(dq) are very small.
	 Skipping Hessian update for step 9.
	Denominators (dg)(dq) or (dq)(dq) are very small.
	 Skipping Hessian update for step 8.
	Denominators (dg)(dq) or (dq)(dq) are very small.
	 Skipping Hessian update for step 7.
	Denominators (dg)(dq) or (dq)(dq) are very small.
	 Skipping Hessian update for step 6.
	Denominators (dg)(dq) or (dq)(dq) are very small.
	 Skipping Hessian update for step 5.
	Denominators (dg)(dq) or (dq)(dq) are very small.
	 Skipping Hessian update for step 4.
	Denominators (dg)(dq) or (dq)(dq) are very small.
	 Skipping Hessian update for step 3.
	Denominators (dg)(dq) or (dq)(dq) are very small.
	 Skipping Hessian update for step 2.
	Steps to be used in Hessian update: 1
	Taking RFO optimization step.
	Going to follow RFO solution 1.
	Using RFO vector 1.
	Norm of target step-size    0.00002
	Projected energy change by RFO approximation:         0.0000000000

	Back-transformation to cartesian coordinates...
	Successfully converged to displaced geometry.

	--- Internal Coordinate Step in ANG or DEG, aJ/ANG or AJ/DEG ---
	 ---------------------------------------------------------------------------
	   Coordinate                Previous        Force       Change         New 
	   ----------                --------       ------       ------       ------
	    1 R(1,2)          =      1.089736    -0.000002    -0.000000     1.089736
	    2 R(1,3)          =      1.090188    -0.000003    -0.000000     1.090188
	    3 R(1,4)          =      1.091467    -0.000001     0.000000     1.091467
	    4 R(1,9)          =      1.524631    -0.000000    -0.000000     1.524631
	    5 R(5,6)          =      1.089712    -0.000002    -0.000000     1.089712
	    6 R(5,7)          =      1.090698    -0.000002    -0.000000     1.090698
	    7 R(5,8)          =      1.090789    -0.000002    -0.000000     1.090788
	    8 R(5,12)         =      1.523926    -0.000002    -0.000000     1.523926
	    9 R(9,10)         =      1.092085    -0.000002    -0.000000     1.092085
	   10 R(9,11)         =      1.092215    -0.000001     0.000000     1.092215
	   11 R(9,15)         =      1.528668    -0.000000    -0.000000     1.528668
	   12 R(12,13)        =      1.091673    -0.000004    -0.000000     1.091672
	   13 R(12,14)        =      1.094116    -0.000005    -0.000000     1.094116
	   14 R(12,24)        =      1.524811    -0.000001    -0.000000     1.524811
	   15 R(15,16)        =      1.093822    -0.000002     0.000000     1.093822
	   16 R(15,17)        =      1.094004    -0.000001     0.000000     1.094005
	   17 R(15,18)        =      1.528156    -0.000001    -0.000000     1.528156
	   18 R(18,19)        =      1.094441    -0.000002     0.000000     1.094441
	   19 R(18,20)        =      1.091798    -0.000004    -0.000000     1.091798
	   20 R(18,21)        =      1.525301    -0.000003    -0.000000     1.525300
	   21 R(21,22)        =      1.094540    -0.000005    -0.000000     1.094540
	   22 R(21,23)        =      1.094060    -0.000005    -0.000000     1.094060
	   23 R(21,24)        =      1.526659    -0.000003    -0.000000     1.526659
	   24 R(24,25)        =      1.095014    -0.000004    -0.000000     1.095014
	   25 R(24,26)        =      1.094040    -0.000004    -0.000000     1.094039
	   26 B(1,9,10)       =    109.610480     0.000000    -0.000000   109.610480
	   27 B(1,9,11)       =    109.331707     0.000000     0.000020   109.331726
	   28 B(1,9,15)       =    113.084865    -0.000000    -0.000032   113.084833
	   29 B(2,1,3)        =    107.608234    -0.000000     0.000000   107.608234
	   30 B(2,1,4)        =    107.905083    -0.000000    -0.000003   107.905080
	   31 B(2,1,9)        =    111.184639     0.000000     0.000009   111.184648
	   32 B(3,1,4)        =    107.709504     0.000000     0.000004   107.709509
	   33 B(3,1,9)        =    111.512673    -0.000000    -0.000005   111.512668
	   34 B(4,1,9)        =    110.754609    -0.000000    -0.000005   110.754603
	   35 B(5,12,13)      =    109.389423    -0.000000    -0.000002   109.389421
	   36 B(5,12,14)      =    109.786195     0.000000     0.000001   109.786196
	   37 B(5,12,24)      =    112.089325     0.000000     0.000013   112.089338
	   38 B(6,5,7)        =    107.966277     0.000000     0.000002   107.966279
	   39 B(6,5,8)        =    107.897625    -0.000000    -0.000002   107.897623
	   40 B(6,5,12)       =    111.692653     0.000000     0.000008   111.692660
	   41 B(7,5,8)        =    107.686049     0.000000     0.000001   107.686050
	   42 B(7,5,12)       =    110.773606    -0.000000    -0.000005   110.773601
	   43 B(8,5,12)       =    110.671932    -0.000000    -0.000003   110.671929
	   44 B(9,15,16)      =    109.060744    -0.000000     0.000001   109.060745
	   45 B(9,15,17)      =    108.753291    -0.000000    -0.000003   108.753289
	   46 B(9,15,18)      =    114.236573     0.000000    -0.000001   114.236573
	   47 B(10,9,11)      =    106.171765    -0.000000     0.000014   106.171779
	   48 B(10,9,15)      =    109.789257     0.000000     0.000000   109.789257
	   49 B(11,9,15)      =    108.612752     0.000000     0.000002   108.612754
	   50 B(12,24,21)     =    113.731552    -0.000000    -0.000035   113.731516
	   51 B(12,24,25)     =    109.150392     0.000000    -0.000010   109.150382
	   52 B(12,24,26)     =    108.601613     0.000000     0.000038   108.601651
	   53 B(13,12,14)     =    106.578725     0.000000     0.000010   106.578734
	   54 B(13,12,24)     =    109.878130    -0.000000    -0.000005   109.878125
	   55 B(14,12,24)     =    108.965542    -0.000000    -0.000018   108.965524
	   56 B(15,18,19)     =    108.885800    -0.000000    -0.000009   108.885791
	   57 B(15,18,20)     =    109.529282     0.000000     0.000021   109.529302
	   58 B(15,18,21)     =    113.264157    -0.000000    -0.000011   113.264146
	   59 B(16,15,17)     =    106.594904     0.000000     0.000012   106.594915
	   60 B(16,15,18)     =    108.901523    -0.000000    -0.000008   108.901515
	   61 B(17,15,18)     =    109.019274    -0.000000    -0.000001   109.019273
	   62 B(18,21,22)     =    108.685246     0.000000     0.000028   108.685274
	   63 B(18,21,23)     =    109.895206     0.000000     0.000022   109.895228
	   64 B(18,21,24)     =    113.446973    -0.000000    -0.000032   113.446941
	   65 B(19,18,20)     =    106.207568    -0.000000     0.000015   106.207584
	   66 B(19,18,21)     =    108.725106     0.000000     0.000046   108.725152
	   67 B(20,18,21)     =    109.976153    -0.000000    -0.000059   109.976093
	   68 B(21,24,25)     =    109.369259     0.000000    -0.000005   109.369254
	   69 B(21,24,26)     =    109.272550     0.000000     0.000007   109.272557
	   70 B(22,21,23)     =    106.429564    -0.000000     0.000009   106.429573
	   71 B(22,21,24)     =    109.374858     0.000000     0.000006   109.374864
	   72 B(23,21,24)     =    108.771155     0.000000    -0.000031   108.771124
	   73 B(25,24,26)     =    106.458858    -0.000000     0.000008   106.458866
	   74 D(1,9,15,16)    =   -179.339193     0.000000    -0.000065  -179.339258
	   75 D(1,9,15,17)    =     64.785145     0.000000    -0.000078    64.785067
	   76 D(1,9,15,18)    =    -57.238545    -0.000000    -0.000075   -57.238620
	   77 D(2,1,9,10)     =     62.247134     0.000000     0.000035    62.247169
	   78 D(2,1,9,11)     =    -53.750025    -0.000000     0.000007   -53.750018
	   79 D(2,1,9,15)     =   -174.895283     0.000000     0.000012  -174.895270
	   80 D(3,1,9,10)     =    -57.851526     0.000000     0.000032   -57.851494
	   81 D(3,1,9,11)     =   -173.848685    -0.000000     0.000004  -173.848681
	   82 D(3,1,9,15)     =     65.006057    -0.000000     0.000010    65.006067
	   83 D(4,1,9,10)     =   -177.787493     0.000000     0.000034  -177.787459
	   84 D(4,1,9,11)     =     66.215348    -0.000000     0.000005    66.215354
	   85 D(4,1,9,15)     =    -54.929910    -0.000000     0.000011   -54.929899
	   86 D(5,12,24,21)   =   -175.782638    -0.000000    -0.000118  -175.782756
	   87 D(5,12,24,25)   =     61.793352     0.000000    -0.000080    61.793273
	   88 D(5,12,24,26)   =    -53.886050    -0.000000    -0.000105   -53.886155
	   89 D(6,5,12,13)    =    -57.662505    -0.000000    -0.000058   -57.662563
	   90 D(6,5,12,14)    =     58.958088     0.000000    -0.000047    58.958042
	   91 D(6,5,12,24)    =   -179.793326    -0.000000    -0.000060  -179.793386
	   92 D(7,5,12,13)    =   -178.056905    -0.000000    -0.000062  -178.056967
	   93 D(7,5,12,14)    =    -61.436311     0.000000    -0.000051   -61.436362
	   94 D(7,5,12,24)    =     59.812274    -0.000000    -0.000064    59.812211
	   95 D(8,5,12,13)    =     62.575485    -0.000000    -0.000058    62.575427
	   96 D(8,5,12,14)    =    179.196079     0.000000    -0.000047   179.196032
	   97 D(8,5,12,24)    =    -59.555336    -0.000000    -0.000060   -59.555396
	   98 D(9,15,18,19)   =   -179.345323     0.000000    -0.000074  -179.345397
	   99 D(9,15,18,20)   =     64.910948     0.000000    -0.000099    64.910849
	  100 D(9,15,18,21)   =    -58.254267     0.000000    -0.000029   -58.254296
	  101 D(10,9,15,16)   =    -56.580904    -0.000000    -0.000088   -56.580993
	  102 D(10,9,15,17)   =   -172.456567    -0.000000    -0.000101  -172.456669
	  103 D(10,9,15,18)   =     65.519743    -0.000000    -0.000098    65.519645
	  104 D(11,9,15,16)   =     59.109797    -0.000000    -0.000070    59.109727
	  105 D(11,9,15,17)   =    -56.765865     0.000000    -0.000083   -56.765948
	  106 D(11,9,15,18)   =   -178.789555    -0.000000    -0.000080  -178.789635
	  107 D(12,24,21,18)  =    -63.914624     0.000000     0.000135   -63.914489
	  108 D(12,24,21,22)  =    174.572731     0.000000     0.000116   174.572848
	  109 D(12,24,21,23)  =     58.712570     0.000000     0.000119    58.712689
	  110 D(13,12,24,21)  =     62.365648    -0.000000    -0.000121    62.365527
	  111 D(13,12,24,25)  =    -60.058362     0.000000    -0.000083   -60.058445
	  112 D(13,12,24,26)  =   -175.737764    -0.000000    -0.000108  -175.737872
	  113 D(14,12,24,21)  =    -54.062789    -0.000000    -0.000120   -54.062908
	  114 D(14,12,24,25)  =   -176.486798     0.000000    -0.000082  -176.486880
	  115 D(14,12,24,26)  =     67.833799     0.000000    -0.000107    67.833693
	  116 D(15,18,21,22)  =    -50.639571     0.000000     0.000265   -50.639305
	  117 D(15,18,21,23)  =     65.459011     0.000000     0.000304    65.459316
	  118 D(15,18,21,24)  =   -172.537264     0.000000     0.000258  -172.537005
	  119 D(16,15,18,19)  =    -57.157521     0.000000    -0.000079   -57.157600
	  120 D(16,15,18,20)  =   -172.901250    -0.000000    -0.000104  -172.901354
	  121 D(16,15,18,21)  =     63.933535     0.000000    -0.000034    63.933501
	  122 D(17,15,18,19)  =     58.776890    -0.000000    -0.000070    58.776820
	  123 D(17,15,18,20)  =    -56.966840    -0.000000    -0.000094   -56.966934
	  124 D(17,15,18,21)  =    179.867945     0.000000    -0.000025   179.867920
	  125 D(18,21,24,25)  =     58.388712    -0.000000     0.000094    58.388807
	  126 D(18,21,24,26)  =    174.561363    -0.000000     0.000105   174.561468
	  127 D(19,18,21,22)  =     70.542068     0.000000     0.000279    70.542347
	  128 D(19,18,21,23)  =   -173.359350     0.000000     0.000318  -173.359032
	  129 D(19,18,21,24)  =    -51.355625     0.000000     0.000272   -51.355353
	  130 D(20,18,21,22)  =   -173.558082     0.000000     0.000291  -173.557792
	  131 D(20,18,21,23)  =    -57.459500     0.000000     0.000330   -57.459170
	  132 D(20,18,21,24)  =     64.544225     0.000000     0.000284    64.544508
	  133 D(22,21,24,25)  =    -63.123932     0.000000     0.000075   -63.123856
	  134 D(22,21,24,26)  =     53.048719     0.000000     0.000086    53.048805
	  135 D(23,21,24,25)  =   -178.984093    -0.000000     0.000078  -178.984015
	  136 D(23,21,24,26)  =    -62.811442    -0.000000     0.000089   -62.811353
	  137 R(1,21)         =      3.640737     0.000000     0.000001     3.640738
	 ---------------------------------------------------------------------------

  ==> Convergence Check <==

  Measures of convergence in internal coordinates in au.
  Criteria marked as inactive (o), active & met (*), and active & unmet ( ).
  ---------------------------------------------------------------------------------------------
   Step     Total Energy     Delta E     MAX Force     RMS Force      MAX Disp      RMS Disp   
  ---------------------------------------------------------------------------------------------
    Convergence Criteria             o    2.00e-06 *    1.00e-06 *    6.00e-06 *    4.00e-06 *
  ---------------------------------------------------------------------------------------------
     22    -314.98383988    1.29e-09 o    6.48e-07 *    1.59e-07 *    5.76e-06 *    1.58e-06 *  ~
  ---------------------------------------------------------------------------------------------


  **** Optimization is complete! (in 22 steps) ****

  ==> Optimization Summary <==

  Measures of convergence in internal coordinates in au.
  --------------------------------------------------------------------------------------------------------------- ~
   Step         Total Energy             Delta E       MAX Force       RMS Force        MAX Disp        RMS Disp  ~
  --------------------------------------------------------------------------------------------------------------- ~
      1    -314.983839883827   -314.983839883827      0.00000246      0.00000058      0.00025928      0.00007016  ~
      2    -314.983839880323      0.000000003504      0.00000346      0.00000082      0.00014447      0.00004236  ~
      3    -314.983839884958     -0.000000004634      0.00000083      0.00000016      0.00004814      0.00002005  ~
      4    -314.983839882170      0.000000002787      0.00000250      0.00000056      0.00005781      0.00002281  ~
      5    -314.983839888487     -0.000000006317      0.00000082      0.00000021      0.00006004      0.00002025  ~
      6    -314.983839882865      0.000000005622      0.00000067      0.00000019      0.00005455      0.00002072  ~
      7    -314.983839885643     -0.000000002778      0.00000105      0.00000024      0.00008730      0.00002915  ~
      8    -314.983839889555     -0.000000003912      0.00000104      0.00000019      0.00005325      0.00001722  ~
      9    -314.983839880728      0.000000008827      0.00000070      0.00000014      0.00003617      0.00001099  ~
     10    -314.983839887047     -0.000000006319      0.00000319      0.00000078      0.00008998      0.00002725  ~
     11    -314.983839889747     -0.000000002700      0.00000188      0.00000045      0.00002972      0.00000847  ~
     12    -314.983839884042      0.000000005705      0.00000141      0.00000036      0.00004771      0.00001448  ~
     13    -314.983839882281      0.000000001761      0.00000209      0.00000053      0.00003180      0.00001044  ~
     14    -314.983839883840     -0.000000001559      0.00000080      0.00000020      0.00001617      0.00000528  ~
     15    -314.983839883550      0.000000000290      0.00000063      0.00000012      0.00000838      0.00000276  ~
     16    -314.983839886923     -0.000000003372      0.00000060      0.00000014      0.00000727      0.00000314  ~
     17    -314.983839884891      0.000000002031      0.00000138      0.00000030      0.00001701      0.00000418  ~
     18    -314.983839884756      0.000000000135      0.00000074      0.00000016      0.00000775      0.00000340  ~
     19    -314.983839887459     -0.000000002703      0.00000035      0.00000008      0.00000746      0.00000285  ~
     20    -314.983839886447      0.000000001013      0.00000036      0.00000011      0.00000798      0.00000238  ~
     21    -314.983839883940      0.000000002507      0.00000091      0.00000025      0.00001426      0.00000442  ~
     22    -314.983839882646      0.000000001294      0.00000065      0.00000016      0.00000576      0.00000158  ~
  --------------------------------------------------------------------------------------------------------------- ~

	Writing optimization data to binary file.
	Final energy is   -314.9838398826456
	Final (previous) structure:
	Cartesian Geometry (in Angstrom)
	    C     2.5654608459  -1.5397879236   0.0371974106
	    H     3.1477487301  -2.2147488679  -0.5896144891
	    H     1.5200048312  -1.8396452634  -0.0377547991
	    H     2.8799033470  -1.6876224466   1.0718816166
	    C    -3.7480360149  -0.6480082398   0.1443458347
	    H    -4.1123834665  -1.5803170145   0.5750696160
	    H    -4.1646408256  -0.5557001268  -0.8594177330
	    H    -4.1414924436   0.1743074480   0.7433520996
	    C     2.7623907731  -0.0881238780  -0.3851658973
	    H     2.4059723960   0.0474364787  -1.4085133662
	    H     3.8299728921   0.1419231356  -0.4018824742
	    C    -2.2253018340  -0.6034621207   0.1037549096
	    H    -1.8319046127  -0.7321568794   1.1139161627
	    H    -1.8458964785  -1.4417675085  -0.4881787121
	    C     2.0635267984   0.9060227726   0.5422430890
	    H     2.2369908869   1.9211362166   0.1735941015
	    H     2.5268221073   0.8495051901   1.5316919050
	    C     0.5586308683   0.6810287131   0.6834079179
	    H     0.1477451775   1.4431916168   1.3527973879
	    H     0.3772121222  -0.2802245625   1.1682808146
	    C    -0.1871008224   0.7431940932  -0.6457126632
	    H     0.0994443527   1.6626064362  -1.1658967279
	    H     0.1259406711  -0.0857965608  -1.2873876883
	    C    -1.7054799483   0.6999156177  -0.4929372024
	    H    -2.0314671978   1.5368968642   0.1333616660
	    H    -2.1712256444   0.8456757109  -1.4720989658
	Saving final (previous) structure.
			--------------------------
			 OPTKING Finished Execution 
			--------------------------

    Final optimized geometry and variables:
    Molecular point group: c1
    Full point group: C1

    Geometry (in Angstrom), charge = 0, multiplicity = 1:

    C            2.565460845865    -1.539787923561     0.037197410635
    H            3.147748730095    -2.214748867944    -0.589614489127
    H            1.520004831152    -1.839645263395    -0.037754799055
    H            2.879903346972    -1.687622446602     1.071881616601
    C           -3.748036014908    -0.648008239816     0.144345834738
    H           -4.112383466486    -1.580317014454     0.575069616021
    H           -4.164640825598    -0.555700126836    -0.859417732992
    H           -4.141492443592     0.174307447954     0.743352099648
    C            2.762390773092    -0.088123877985    -0.385165897288
    H            2.405972395989     0.047436478723    -1.408513366185
    H            3.829972892110     0.141923135586    -0.401882474239
    C           -2.225301834000    -0.603462120657     0.103754909601
    H           -1.831904612677    -0.732156879430     1.113916162692
    H           -1.845896478531    -1.441767508550    -0.488178712068
    C            2.063526798434     0.906022772559     0.542243088954
    H            2.236990886890     1.921136216631     0.173594101499
    H            2.526822107281     0.849505190096     1.531691905003
    C            0.558630868251     0.681028713111     0.683407917899
    H            0.147745177496     1.443191616792     1.352797387945
    H            0.377212122199    -0.280224562476     1.168280814599
    C           -0.187100822364     0.743194093234    -0.645712663186
    H            0.099444352746     1.662606436239    -1.165896727914
    H            0.125940671132    -0.085796560817    -1.287387688315
    C           -1.705479948284     0.699915617658    -0.492937202392
    H           -2.031467197783     1.536896864160     0.133361666045
    H           -2.171225644367     0.845675710931    -1.472098965834

	Cleaning optimization helper files.

*** Psi4 exiting successfully. Buy a developer a beer!
