    -----------------------------------------------------------------------
          Psi4: An Open-Source Ab Initio Electronic Structure Package
                              Psi4 1.0.0 Driver

                          Git: Rev {master} 6a9a71b dirty

    J. M. Turney, A. C. Simmonett, R. M. Parrish, E. G. Hohenstein,
    F. A. Evangelista, J. T. Fermann, B. J. Mintz, L. A. Burns, J. J. Wilke,
    M. L. Abrams, N. J. Russ, M. L. Leininger, C. L. Janssen, E. T. Seidl,
    W. D. Allen, H. F. Schaefer, R. A. King, E. F. Valeev, C. D. Sherrill,
    and T. D. Crawford, WIREs Comput. Mol. Sci. 2, 556-565 (2012)
    (doi: 10.1002/wcms.93)

                         Additional Contributions by
    A. E. DePrince, U. Bozkaya, A. Yu. Sokolov, D. G. A. Smith, R. Di Remigio,
    R. M. Richard, J. F. Gonthier, H. R. McAlexander, M. Saitow, and
    B. P. Pritchard
    -----------------------------------------------------------------------


    Psi4 started on: Wed Sep 21 08:41:36 2016

    Process ID:  23042
    PSI4DATADIR: /usr/local/hpc5/psi4conda/share/psi4
    Memory level set to 256.000 MB

  ==> Input File <==

--------------------------------------------------------------------------
memory 60 Gb

molecule molecule_68_psi {
0 1
C           -2.978357154423    -0.605801480020    -0.455365842883
H           -4.063111368827    -0.657496116222    -0.548525869431
H           -2.544724940330    -0.896670204018    -1.413650732240
H           -2.676452934300    -1.344503896350     0.286599730204
C            2.565791793418     1.246191515424    -0.306467448780
H            2.576026696075     1.411820124977    -1.384775452170
H            3.425706174097     1.764577235417     0.118428769717
H            1.664392729638     1.712855247557     0.087191360001
C           -2.530768563922     0.796707040264    -0.059463336668
H           -2.951276512288     1.047367036764     0.918441057466
H           -2.943449893578     1.518858028538    -0.767941881578
C            2.614262266641    -0.249158643971    -0.002418298431
H            3.538580857323    -0.652882511279    -0.420198335624
H            2.674738579698    -0.408793836178     1.078127181513
C           -1.013758355509     0.974390158124    -0.001511503297
H           -0.803160803214     2.017825861915     0.244727700245
H           -0.595928022472     0.810201611064    -0.998677519242
C           -0.318250439544     0.056097034066     1.014938969785
H           -1.036278181848    -0.209931485912     1.797147512071
H            0.480860357281     0.599069039568     1.523789365894
C            0.269206750343    -1.228948700812     0.427475722841
H            0.637895232999    -1.847487786329     1.251501015953
H           -0.519282004838    -1.804134634976    -0.062367322869
C            1.419258965580    -1.031649669495    -0.563559432665
H            1.749680407006    -2.023716171319    -0.879244222897
H            1.059711997546    -0.534813876473    -1.469121647161
}

set globals {
  reference rhf
  g_convergence gau_verytight
  basis aug-cc-pvtz
  freeze_core true
  scf_type df
  mp_type df
}
optimize('mp2')
--------------------------------------------------------------------------
/usr/local/hpc5/psi4conda/lib/python2.7/site-packages/v2rdm_casscf/v2rdm_casscf.so loaded.

  Memory set to  60.000 GiB by Python script.
gradient() will perform analytic gradient computation.

*** tstart() called on wr38
*** at Wed Sep 21 08:41:37 2016


         ---------------------------------------------------------
                                   SCF
            by Justin Turney, Rob Parrish, and Andy Simmonett
                              RHF Reference
                       12 Threads,  60000 MiB Core
         ---------------------------------------------------------

  ==> Geometry <==

    Molecular point group: c1
    Full point group: C1

    Geometry (in Angstrom), charge = 0, multiplicity = 1:

       Center              X                  Y                   Z               Mass       
    ------------   -----------------  -----------------  -----------------  -----------------
           C         -2.978357154423    -0.605801480020    -0.455365842883    12.000000000000
           H         -4.063111368827    -0.657496116222    -0.548525869431     1.007825032070
           H         -2.544724940330    -0.896670204018    -1.413650732240     1.007825032070
           H         -2.676452934300    -1.344503896350     0.286599730204     1.007825032070
           C          2.565791793418     1.246191515424    -0.306467448780    12.000000000000
           H          2.576026696075     1.411820124977    -1.384775452170     1.007825032070
           H          3.425706174097     1.764577235417     0.118428769717     1.007825032070
           H          1.664392729638     1.712855247557     0.087191360001     1.007825032070
           C         -2.530768563922     0.796707040264    -0.059463336668    12.000000000000
           H         -2.951276512288     1.047367036764     0.918441057466     1.007825032070
           H         -2.943449893578     1.518858028538    -0.767941881578     1.007825032070
           C          2.614262266641    -0.249158643971    -0.002418298431    12.000000000000
           H          3.538580857323    -0.652882511279    -0.420198335624     1.007825032070
           H          2.674738579698    -0.408793836178     1.078127181513     1.007825032070
           C         -1.013758355509     0.974390158124    -0.001511503297    12.000000000000
           H         -0.803160803214     2.017825861915     0.244727700245     1.007825032070
           H         -0.595928022472     0.810201611064    -0.998677519242     1.007825032070
           C         -0.318250439544     0.056097034066     1.014938969785    12.000000000000
           H         -1.036278181848    -0.209931485912     1.797147512071     1.007825032070
           H          0.480860357281     0.599069039568     1.523789365894     1.007825032070
           C          0.269206750343    -1.228948700812     0.427475722841    12.000000000000
           H          0.637895232999    -1.847487786329     1.251501015953     1.007825032070
           H         -0.519282004838    -1.804134634976    -0.062367322869     1.007825032070
           C          1.419258965580    -1.031649669495    -0.563559432665    12.000000000000
           H          1.749680407006    -2.023716171319    -0.879244222897     1.007825032070
           H          1.059711997546    -0.534813876473    -1.469121647161     1.007825032070

  Running in c1 symmetry.

  Rotational constants: A =      0.11580  B =      0.03245  C =      0.02884 [cm^-1]
  Rotational constants: A =   3471.70001  B =    972.76924  C =    864.74049 [MHz]
  Nuclear repulsion =  405.999716019617097

  Charge       = 0
  Multiplicity = 1
  Electrons    = 66
  Nalpha       = 33
  Nbeta        = 33

  ==> Algorithm <==

  SCF Algorithm Type is DF.
  DIIS enabled.
  MOM disabled.
  Fractional occupation disabled.
  Guess Type is SAD.
  Energy threshold   = 1.00e-10
  Density threshold  = 1.00e-10
  Integral threshold = 0.00e+00

  ==> Primary Basis <==

  Basis Set: AUG-CC-PVTZ
    Number of shells: 274
    Number of basis function: 782
    Number of Cartesian functions: 890
    Spherical Harmonics?: true
    Max angular momentum: 3

  ==> Pre-Iterations <==

   -------------------------------------------------------
    Irrep   Nso     Nmo     Nalpha   Nbeta   Ndocc  Nsocc
   -------------------------------------------------------
     A        782     782       0       0       0       0
   -------------------------------------------------------
    Total     782     782      33      33      33       0
   -------------------------------------------------------

  ==> Integral Setup <==

  ==> DFJK: Density-Fitted J/K Matrices <==

    J tasked:                  Yes
    K tasked:                  Yes
    wK tasked:                  No
    OpenMP threads:             12
    Integrals threads:          12
    Memory (MB):             42915
    Algorithm:                Core
    Integral Cache:           NONE
    Schwarz Cutoff:          1E-12
    Fitting Condition:       1E-12

   => Auxiliary Basis Set <=

  Basis Set: 
    Number of shells: 492
    Number of basis function: 1660
    Number of Cartesian functions: 2038
    Spherical Harmonics?: true
    Max angular momentum: 4

  Minimum eigenvalue in the overlap matrix is 1.2911299617E-06.
  Using Symmetric Orthogonalization.
  SCF Guess: Superposition of Atomic Densities via on-the-fly atomic UHF.

  ==> Iterations <==

                           Total Energy        Delta E     RMS |[F,P]|

   @DF-RHF iter   0:  -317.04320116941295   -3.17043e+02   7.03426e-03 
   @DF-RHF iter   1:  -313.30138912796127    3.74181e+00   6.87705e-04 
   @DF-RHF iter   2:  -313.50298778015446   -2.01599e-01   2.42065e-04 DIIS
   @DF-RHF iter   3:  -313.52670301395921   -2.37152e-02   9.88116e-05 DIIS
   @DF-RHF iter   4:  -313.53130663891528   -4.60362e-03   1.54649e-05 DIIS
   @DF-RHF iter   5:  -313.53147211929746   -1.65480e-04   3.87639e-06 DIIS
   @DF-RHF iter   6:  -313.53148209200691   -9.97271e-06   1.24713e-06 DIIS
   @DF-RHF iter   7:  -313.53148292329826   -8.31291e-07   2.96088e-07 DIIS
   @DF-RHF iter   8:  -313.53148298362652   -6.03283e-08   8.34988e-08 DIIS
   @DF-RHF iter   9:  -313.53148298853790   -4.91139e-09   2.23863e-08 DIIS
   @DF-RHF iter  10:  -313.53148298894376   -4.05862e-10   5.46501e-09 DIIS
   @DF-RHF iter  11:  -313.53148298896241   -1.86446e-11   1.72782e-09 DIIS
   @DF-RHF iter  12:  -313.53148298896446   -2.04636e-12   3.83485e-10 DIIS
   @DF-RHF iter  13:  -313.53148298896468   -2.27374e-13   1.11619e-10 DIIS
   @DF-RHF iter  14:  -313.53148298896411    5.68434e-13   3.32071e-11 DIIS

  ==> Post-Iterations <==

    Orbital Energies (a.u.)
    -----------------------

    Doubly Occupied:                                                      

       1A    -11.213273     2A    -11.212478     3A    -11.210560  
       4A    -11.210263     5A    -11.209801     6A    -11.209540  
       7A    -11.207033     8A    -11.205813     9A     -1.093925  
      10A     -1.056933    11A     -1.003349    12A     -0.950609  
      13A     -0.891681    14A     -0.827311    15A     -0.791521  
      16A     -0.747587    17A     -0.650707    18A     -0.629540  
      19A     -0.608073    20A     -0.592808    21A     -0.580722  
      22A     -0.558847    23A     -0.538049    24A     -0.528193  
      25A     -0.524168    26A     -0.507431    27A     -0.490294  
      28A     -0.473424    29A     -0.466447    30A     -0.457860  
      31A     -0.440077    32A     -0.436536    33A     -0.432513  

    Virtual:                                                              

      34A      0.029740    35A      0.033736    36A      0.033826  
      37A      0.034969    38A      0.045855    39A      0.047908  
      40A      0.051420    41A      0.053784    42A      0.054100  
      43A      0.068121    44A      0.069003    45A      0.072900  
      46A      0.075165    47A      0.077476    48A      0.081391  
      49A      0.088827    50A      0.097774    51A      0.099877  
      52A      0.114122    53A      0.117720    54A      0.120231  
      55A      0.125231    56A      0.127029    57A      0.132825  
      58A      0.135423    59A      0.137900    60A      0.138650  
      61A      0.140089    62A      0.146712    63A      0.149548  
      64A      0.153497    65A      0.159716    66A      0.161005  
      67A      0.165482    68A      0.168922    69A      0.170430  
      70A      0.176428    71A      0.179716    72A      0.180618  
      73A      0.182861    74A      0.191222    75A      0.195255  
      76A      0.199979    77A      0.211432    78A      0.224937  
      79A      0.225686    80A      0.228309    81A      0.239806  
      82A      0.242724    83A      0.252212    84A      0.263000  
      85A      0.274113    86A      0.276848    87A      0.281118  
      88A      0.288803    89A      0.289386    90A      0.298294  
      91A      0.303007    92A      0.305862    93A      0.308945  
      94A      0.315252    95A      0.322013    96A      0.323692  
      97A      0.328467    98A      0.331515    99A      0.336636  
     100A      0.338816   101A      0.343765   102A      0.345238  
     103A      0.348128   104A      0.354885   105A      0.356251  
     106A      0.360447   107A      0.365601   108A      0.366205  
     109A      0.370430   110A      0.375026   111A      0.377735  
     112A      0.380048   113A      0.382139   114A      0.387003  
     115A      0.392933   116A      0.395907   117A      0.397765  
     118A      0.404531   119A      0.409309   120A      0.411990  
     121A      0.417960   122A      0.420832   123A      0.429280  
     124A      0.437057   125A      0.439010   126A      0.441586  
     127A      0.446111   128A      0.451265   129A      0.454680  
     130A      0.457254   131A      0.459128   132A      0.466264  
     133A      0.468972   134A      0.470901   135A      0.477769  
     136A      0.480224   137A      0.485897   138A      0.489478  
     139A      0.489979   140A      0.494995   141A      0.498509  
     142A      0.505123   143A      0.508884   144A      0.512938  
     145A      0.515387   146A      0.517445   147A      0.522265  
     148A      0.530240   149A      0.532358   150A      0.541569  
     151A      0.544362   152A      0.547974   153A      0.549339  
     154A      0.553017   155A      0.557940   156A      0.564011  
     157A      0.568910   158A      0.571357   159A      0.575584  
     160A      0.581738   161A      0.585453   162A      0.590247  
     163A      0.593913   164A      0.598208   165A      0.602999  
     166A      0.607380   167A      0.609922   168A      0.617699  
     169A      0.623729   170A      0.631177   171A      0.634700  
     172A      0.637790   173A      0.640084   174A      0.642417  
     175A      0.650050   176A      0.656225   177A      0.658474  
     178A      0.664946   179A      0.670422   180A      0.671175  
     181A      0.678729   182A      0.682786   183A      0.684585  
     184A      0.692278   185A      0.697808   186A      0.699355  
     187A      0.706193   188A      0.707897   189A      0.715590  
     190A      0.720182   191A      0.728658   192A      0.736637  
     193A      0.741139   194A      0.745054   195A      0.749776  
     196A      0.760281   197A      0.764690   198A      0.765901  
     199A      0.776421   200A      0.778483   201A      0.801178  
     202A      0.807084   203A      0.819648   204A      0.828581  
     205A      0.830983   206A      0.844745   207A      0.849026  
     208A      0.857780   209A      0.860540   210A      0.865539  
     211A      0.867704   212A      0.873000   213A      0.878236  
     214A      0.886647   215A      0.888945   216A      0.894706  
     217A      0.901501   218A      0.909697   219A      0.915610  
     220A      0.916733   221A      0.922758   222A      0.930177  
     223A      0.932279   224A      0.939506   225A      0.946807  
     226A      0.950835   227A      0.952069   228A      0.962621  
     229A      0.968200   230A      0.973684   231A      0.975896  
     232A      0.982368   233A      0.988624   234A      0.994748  
     235A      0.996983   236A      1.004663   237A      1.007131  
     238A      1.011926   239A      1.016801   240A      1.020789  
     241A      1.024161   242A      1.026507   243A      1.032575  
     244A      1.041651   245A      1.047033   246A      1.052033  
     247A      1.055365   248A      1.061086   249A      1.066854  
     250A      1.071960   251A      1.076706   252A      1.081272  
     253A      1.084325   254A      1.087265   255A      1.094968  
     256A      1.104781   257A      1.108620   258A      1.118476  
     259A      1.126931   260A      1.128567   261A      1.132490  
     262A      1.139386   263A      1.145793   264A      1.150810  
     265A      1.151888   266A      1.158769   267A      1.164911  
     268A      1.166861   269A      1.179443   270A      1.180571  
     271A      1.188373   272A      1.192530   273A      1.199929  
     274A      1.208142   275A      1.211569   276A      1.216383  
     277A      1.222344   278A      1.227439   279A      1.233075  
     280A      1.238070   281A      1.243733   282A      1.250742  
     283A      1.254540   284A      1.257651   285A      1.260223  
     286A      1.270383   287A      1.278303   288A      1.287631  
     289A      1.289261   290A      1.297764   291A      1.300692  
     292A      1.307643   293A      1.309030   294A      1.312840  
     295A      1.314703   296A      1.329842   297A      1.337423  
     298A      1.338879   299A      1.343684   300A      1.348729  
     301A      1.360121   302A      1.363226   303A      1.367700  
     304A      1.377225   305A      1.389623   306A      1.392864  
     307A      1.400633   308A      1.404091   309A      1.407984  
     310A      1.420109   311A      1.425066   312A      1.429706  
     313A      1.445468   314A      1.450079   315A      1.456405  
     316A      1.461572   317A      1.463606   318A      1.474425  
     319A      1.477714   320A      1.484535   321A      1.491131  
     322A      1.508318   323A      1.517311   324A      1.524055  
     325A      1.531481   326A      1.543697   327A      1.547625  
     328A      1.551472   329A      1.557650   330A      1.561940  
     331A      1.568970   332A      1.589417   333A      1.592414  
     334A      1.600022   335A      1.604901   336A      1.618023  
     337A      1.622067   338A      1.624397   339A      1.629044  
     340A      1.638447   341A      1.642377   342A      1.650615  
     343A      1.654033   344A      1.665909   345A      1.668113  
     346A      1.673148   347A      1.676145   348A      1.679829  
     349A      1.688385   350A      1.696980   351A      1.704488  
     352A      1.714684   353A      1.723329   354A      1.729844  
     355A      1.732859   356A      1.736799   357A      1.742950  
     358A      1.744623   359A      1.761092   360A      1.764067  
     361A      1.770960   362A      1.778397   363A      1.785227  
     364A      1.786722   365A      1.793123   366A      1.795261  
     367A      1.801587   368A      1.805275   369A      1.812501  
     370A      1.819274   371A      1.828780   372A      1.839503  
     373A      1.843781   374A      1.850879   375A      1.855962  
     376A      1.866010   377A      1.868209   378A      1.876542  
     379A      1.882039   380A      1.883781   381A      1.886221  
     382A      1.896387   383A      1.902752   384A      1.917117  
     385A      1.923679   386A      1.925957   387A      1.935299  
     388A      1.938852   389A      1.943530   390A      1.950880  
     391A      1.958072   392A      1.968130   393A      1.976956  
     394A      1.985524   395A      1.991374   396A      1.991506  
     397A      2.000146   398A      2.007954   399A      2.014213  
     400A      2.015702   401A      2.024342   402A      2.028067  
     403A      2.037204   404A      2.043656   405A      2.045131  
     406A      2.062065   407A      2.070586   408A      2.081741  
     409A      2.088077   410A      2.091318   411A      2.095673  
     412A      2.103672   413A      2.109505   414A      2.112613  
     415A      2.124979   416A      2.131697   417A      2.142498  
     418A      2.149220   419A      2.159951   420A      2.162552  
     421A      2.167674   422A      2.183429   423A      2.186321  
     424A      2.193186   425A      2.205151   426A      2.212035  
     427A      2.215595   428A      2.236297   429A      2.236880  
     430A      2.255817   431A      2.263941   432A      2.271256  
     433A      2.282003   434A      2.284164   435A      2.295801  
     436A      2.302894   437A      2.315843   438A      2.325876  
     439A      2.330288   440A      2.335264   441A      2.344416  
     442A      2.349835   443A      2.354859   444A      2.366442  
     445A      2.380085   446A      2.384548   447A      2.400884  
     448A      2.409599   449A      2.422663   450A      2.425822  
     451A      2.434503   452A      2.439187   453A      2.447189  
     454A      2.466436   455A      2.471590   456A      2.483101  
     457A      2.488368   458A      2.492428   459A      2.497948  
     460A      2.501977   461A      2.522538   462A      2.531203  
     463A      2.544349   464A      2.552790   465A      2.574752  
     466A      2.582430   467A      2.596672   468A      2.611078  
     469A      2.615411   470A      2.627739   471A      2.635864  
     472A      2.645155   473A      2.662565   474A      2.672466  
     475A      2.691857   476A      2.696862   477A      2.710673  
     478A      2.722219   479A      2.729895   480A      2.755404  
     481A      2.776195   482A      2.793818   483A      2.821769  
     484A      2.881402   485A      2.953793   486A      2.970926  
     487A      3.023893   488A      3.081543   489A      3.104607  
     490A      3.160563   491A      3.203269   492A      3.271818  
     493A      3.288788   494A      3.362679   495A      3.371523  
     496A      3.424297   497A      3.428434   498A      3.467886  
     499A      3.477236   500A      3.477678   501A      3.498150  
     502A      3.504166   503A      3.533170   504A      3.541464  
     505A      3.552625   506A      3.570204   507A      3.583947  
     508A      3.595685   509A      3.600922   510A      3.616505  
     511A      3.617180   512A      3.629928   513A      3.649694  
     514A      3.655848   515A      3.659343   516A      3.675824  
     517A      3.688924   518A      3.706745   519A      3.713623  
     520A      3.725158   521A      3.729620   522A      3.737416  
     523A      3.744078   524A      3.754049   525A      3.768402  
     526A      3.776077   527A      3.782789   528A      3.785841  
     529A      3.792534   530A      3.803928   531A      3.808561  
     532A      3.814559   533A      3.822580   534A      3.828761  
     535A      3.841954   536A      3.854154   537A      3.858256  
     538A      3.863345   539A      3.874313   540A      3.885052  
     541A      3.897707   542A      3.905717   543A      3.917587  
     544A      3.919463   545A      3.931752   546A      3.939199  
     547A      3.948300   548A      3.952518   549A      3.954135  
     550A      3.965153   551A      3.974624   552A      3.987333  
     553A      3.991528   554A      3.998106   555A      4.016852  
     556A      4.022096   557A      4.031048   558A      4.036284  
     559A      4.043218   560A      4.051142   561A      4.057700  
     562A      4.066331   563A      4.071048   564A      4.072907  
     565A      4.073731   566A      4.091878   567A      4.095083  
     568A      4.104572   569A      4.115878   570A      4.127140  
     571A      4.130186   572A      4.141007   573A      4.148017  
     574A      4.158559   575A      4.168068   576A      4.173781  
     577A      4.174656   578A      4.183965   579A      4.187983  
     580A      4.196043   581A      4.201823   582A      4.205024  
     583A      4.214749   584A      4.229092   585A      4.229504  
     586A      4.260864   587A      4.263357   588A      4.278435  
     589A      4.283578   590A      4.294227   591A      4.299342  
     592A      4.320871   593A      4.326032   594A      4.331862  
     595A      4.343174   596A      4.350324   597A      4.369666  
     598A      4.373489   599A      4.384538   600A      4.393419  
     601A      4.405720   602A      4.418061   603A      4.422098  
     604A      4.436252   605A      4.444022   606A      4.455035  
     607A      4.479376   608A      4.484443   609A      4.503205  
     610A      4.510484   611A      4.520578   612A      4.528441  
     613A      4.536817   614A      4.548535   615A      4.566404  
     616A      4.575437   617A      4.588955   618A      4.595060  
     619A      4.604033   620A      4.620788   621A      4.640474  
     622A      4.641494   623A      4.667895   624A      4.668830  
     625A      4.682904   626A      4.691938   627A      4.703986  
     628A      4.729290   629A      4.741175   630A      4.743121  
     631A      4.761671   632A      4.774175   633A      4.783391  
     634A      4.792468   635A      4.796232   636A      4.813856  
     637A      4.831591   638A      4.841565   639A      4.851752  
     640A      4.864938   641A      4.880719   642A      4.883249  
     643A      4.896163   644A      4.898061   645A      4.906677  
     646A      4.936775   647A      4.939196   648A      4.950363  
     649A      4.953380   650A      4.965760   651A      4.980844  
     652A      4.989025   653A      4.992268   654A      4.999404  
     655A      5.007901   656A      5.025915   657A      5.028027  
     658A      5.048767   659A      5.051354   660A      5.075032  
     661A      5.092066   662A      5.103372   663A      5.119069  
     664A      5.131212   665A      5.135109   666A      5.160588  
     667A      5.165488   668A      5.173636   669A      5.195644  
     670A      5.209707   671A      5.221315   672A      5.224136  
     673A      5.228072   674A      5.235945   675A      5.254054  
     676A      5.258719   677A      5.267809   678A      5.279433  
     679A      5.293257   680A      5.303432   681A      5.312094  
     682A      5.332026   683A      5.338787   684A      5.352530  
     685A      5.360974   686A      5.371117   687A      5.389573  
     688A      5.400496   689A      5.411930   690A      5.417082  
     691A      5.429656   692A      5.437458   693A      5.441544  
     694A      5.445339   695A      5.448636   696A      5.474206  
     697A      5.494654   698A      5.501892   699A      5.518905  
     700A      5.523054   701A      5.531742   702A      5.547408  
     703A      5.560282   704A      5.567716   705A      5.572512  
     706A      5.593425   707A      5.603091   708A      5.606703  
     709A      5.634747   710A      5.642878   711A      5.652248  
     712A      5.671255   713A      5.682767   714A      5.694823  
     715A      5.704280   716A      5.713503   717A      5.718967  
     718A      5.739274   719A      5.746755   720A      5.750487  
     721A      5.758745   722A      5.776247   723A      5.787142  
     724A      5.806923   725A      5.825848   726A      5.842335  
     727A      5.844373   728A      5.878976   729A      5.891335  
     730A      5.926552   731A      5.952760   732A      5.974320  
     733A      5.991749   734A      6.011755   735A      6.051971  
     736A      6.071310   737A      6.087633   738A      6.088873  
     739A      6.114309   740A      6.127222   741A      6.153660  
     742A      6.169339   743A      6.189310   744A      6.224061  
     745A      6.244173   746A      6.249374   747A      6.266441  
     748A      6.281167   749A      6.300917   750A      6.314658  
     751A      6.334032   752A      6.350533   753A      6.362533  
     754A      6.417330   755A      6.421230   756A      6.437698  
     757A      6.471401   758A      6.479146   759A      6.588278  
     760A      6.654995   761A      6.699379   762A      6.705880  
     763A      6.760903   764A      6.809235   765A      6.831378  
     766A      6.866858   767A      6.964261   768A      6.968891  
     769A      6.982143   770A      7.003142   771A      7.076818  
     772A      7.097135   773A      7.114202   774A      7.219775  
     775A     18.115687   776A     18.222290   777A     18.379032  
     778A     18.912114   779A     19.087080   780A     19.383427  
     781A     19.750266   782A     19.902555  

    Final Occupation by Irrep:
              A 
    DOCC [    33 ]

  Energy converged.

  @DF-RHF Final Energy:  -313.53148298896411

   => Energetics <=

    Nuclear Repulsion Energy =            405.9997160196170967
    One-Electron Energy =               -1227.1476615909321026
    Two-Electron Energy =                 507.6164625823508914
    DFT Exchange-Correlation Energy =       0.0000000000000000
    Empirical Dispersion Energy =           0.0000000000000000
    PCM Polarization Energy =               0.0000000000000000
    EFP Energy =                            0.0000000000000000
    Total Energy =                       -313.5314829889640578


  Saving occupied orbitals to File 180.

*** tstop() called on wr38 at Wed Sep 21 08:43:06 2016
Module time:
	user time   =     965.07 seconds =      16.08 minutes
	system time =      11.30 seconds =       0.19 minutes
	total time  =         89 seconds =       1.48 minutes
Total time:
	user time   =     965.07 seconds =      16.08 minutes
	system time =      11.30 seconds =       0.19 minutes
	total time  =         89 seconds =       1.48 minutes


Properties will be evaluated at   0.000000,   0.000000,   0.000000 Bohr

Properties computed using the SCF density matrix

  Nuclear Dipole Moment: (a.u.)
     X:    -0.3057      Y:     0.4707      Z:    -0.5986

  Electronic Dipole Moment: (a.u.)
     X:     0.3017      Y:    -0.4790      Z:     0.6063

  Dipole Moment: (a.u.)
     X:    -0.0040      Y:    -0.0082      Z:     0.0077     Total:     0.0120

  Dipole Moment: (Debye)
     X:    -0.0102      Y:    -0.0209      Z:     0.0196     Total:     0.0304


  //>>>>>>>>>>>>>>>>>>>>>>>>>>>>>>>>>>>//
  //               DFMP2               //
  //<<<<<<<<<<<<<<<<<<<<<<<<<<<<<<<<<<<//


*** tstart() called on wr38
*** at Wed Sep 21 08:43:07 2016


*** tstop() called on wr38 at Wed Sep 21 08:43:07 2016
Module time:
	user time   =       4.23 seconds =       0.07 minutes
	system time =       0.06 seconds =       0.00 minutes
	total time  =          0 seconds =       0.00 minutes
Total time:
	user time   =     970.28 seconds =      16.17 minutes
	system time =      11.41 seconds =       0.19 minutes
	total time  =         90 seconds =       1.50 minutes
	 --------------------------------------------------------
	                          DF-MP2                         
	      2nd-Order Density-Fitted Moller-Plesset Theory     
	              RMP2 Wavefunction,  12 Threads             
	                                                         
	        Rob Parrish, Justin Turney, Andy Simmonett,      
	           Ed Hohenstein, and C. David Sherrill          
	 --------------------------------------------------------

   => Auxiliary Basis Set <=

  Basis Set: 
    Number of shells: 476
    Number of basis function: 1676
    Number of Cartesian functions: 2078
    Spherical Harmonics?: true
    Max angular momentum: 4

	 --------------------------------------------------------
	                 NBF =   782, NAUX =  1676
	 --------------------------------------------------------
	   CLASS    FOCC     OCC    AOCC    AVIR     VIR    FVIR
	   PAIRS       8      33      25     749     749       0
	 --------------------------------------------------------

DGAS Warning! /src/lib/libfock/apps.cc:80 is not currently checking restricted

         ------------------------------------------------------------
                                     CPHF                           
                                  Rob Parrish                       
         ------------------------------------------------------------

  ==> Geometry <==

    Molecular point group: c1
    Full point group: C1

    Geometry (in Angstrom), charge = 0, multiplicity = 1:

       Center              X                  Y                   Z               Mass       
    ------------   -----------------  -----------------  -----------------  -----------------
           C         -2.978357154423    -0.605801480020    -0.455365842883    12.000000000000
           H         -4.063111368827    -0.657496116222    -0.548525869431     1.007825032070
           H         -2.544724940330    -0.896670204018    -1.413650732240     1.007825032070
           H         -2.676452934300    -1.344503896350     0.286599730204     1.007825032070
           C          2.565791793418     1.246191515424    -0.306467448780    12.000000000000
           H          2.576026696075     1.411820124977    -1.384775452170     1.007825032070
           H          3.425706174097     1.764577235417     0.118428769717     1.007825032070
           H          1.664392729638     1.712855247557     0.087191360001     1.007825032070
           C         -2.530768563922     0.796707040264    -0.059463336668    12.000000000000
           H         -2.951276512288     1.047367036764     0.918441057466     1.007825032070
           H         -2.943449893578     1.518858028538    -0.767941881578     1.007825032070
           C          2.614262266641    -0.249158643971    -0.002418298431    12.000000000000
           H          3.538580857323    -0.652882511279    -0.420198335624     1.007825032070
           H          2.674738579698    -0.408793836178     1.078127181513     1.007825032070
           C         -1.013758355509     0.974390158124    -0.001511503297    12.000000000000
           H         -0.803160803214     2.017825861915     0.244727700245     1.007825032070
           H         -0.595928022472     0.810201611064    -0.998677519242     1.007825032070
           C         -0.318250439544     0.056097034066     1.014938969785    12.000000000000
           H         -1.036278181848    -0.209931485912     1.797147512071     1.007825032070
           H          0.480860357281     0.599069039568     1.523789365894     1.007825032070
           C          0.269206750343    -1.228948700812     0.427475722841    12.000000000000
           H          0.637895232999    -1.847487786329     1.251501015953     1.007825032070
           H         -0.519282004838    -1.804134634976    -0.062367322869     1.007825032070
           C          1.419258965580    -1.031649669495    -0.563559432665    12.000000000000
           H          1.749680407006    -2.023716171319    -0.879244222897     1.007825032070
           H          1.059711997546    -0.534813876473    -1.469121647161     1.007825032070

  Nuclear repulsion =  405.999716019617097
  Reference energy  = -313.531482988964115

  ==> Basis Set <==

  Basis Set: AUG-CC-PVTZ
    Number of shells: 274
    Number of basis function: 782
    Number of Cartesian functions: 890
    Spherical Harmonics?: true
    Max angular momentum: 3

  ==> CGRSolver (by Rob Parrish) <==

   Number of roots    =         1
   Preconditioning    =    JACOBI
   Convergence cutoff =     1E-06
   Maximum iterations =       100

  ==> CPHFRHamiltonian (by Rob Parrish) <== 

  ==> DFJK: Density-Fitted J/K Matrices <==

    J tasked:                  Yes
    K tasked:                  Yes
    wK tasked:                  No
    OpenMP threads:             12
    Integrals threads:          12
    Memory (MB):             42915
    Algorithm:                Core
    Integral Cache:           NONE
    Schwarz Cutoff:          1E-12
    Fitting Condition:       1E-12

   => Auxiliary Basis Set <=

  Basis Set: 
    Number of shells: 492
    Number of basis function: 1660
    Number of Cartesian functions: 2038
    Spherical Harmonics?: true
    Max angular momentum: 4

  ==> CPHF Iterations <==

  => Iterations <=

             Iter  Converged  Remaining    Residual
  CGR           1          0          1   9.453E-02
  CGR           2          0          1   1.361E-02
  CGR           3          0          1   3.912E-03
  CGR           4          0          1   8.925E-04
  CGR           5          0          1   2.312E-04
  CGR           6          0          1   4.577E-05
  CGR           7          0          1   1.267E-05
  CGR           8          0          1   3.451E-06
  CGR           9          1          0   9.543E-07

    CGRSolver converged.

  ==> DFCorrGrad: Density-Fitted Correlated Gradients <==

    OpenMP threads:             12
    Integrals threads:          12
    Memory (MB):             42915
    Schwarz Cutoff:          0E+00
    Fitting Condition:       1E-12

   => Auxiliary Basis Set <=

  Basis Set: 
    Number of shells: 492
    Number of basis function: 1660
    Number of Cartesian functions: 2038
    Spherical Harmonics?: true
    Max angular momentum: 4

	-----------------------------------------------------------
	 ==================> DF-MP2 Energies <==================== 
	-----------------------------------------------------------
	 Reference Energy          =    -313.5314829889641146 [Eh]
	 Singles Energy            =      -0.0000000000000000 [Eh]
	 Same-Spin Energy          =      -0.3177907138642182 [Eh]
	 Opposite-Spin Energy      =      -1.1278512982971156 [Eh]
	 Correlation Energy        =      -1.4456420121613338 [Eh]
	 Total Energy              =    -314.9771250011254438 [Eh]
	-----------------------------------------------------------
	 ================> DF-SCS-MP2 Energies <================== 
	-----------------------------------------------------------
	 SCS Same-Spin Scale       =       0.3333333333333333 [-]
	 SCS Opposite-Spin Scale   =       1.2000000000000000 [-]
	 SCS Same-Spin Energy      =      -0.1059302379547394 [Eh]
	 SCS Opposite-Spin Energy  =      -1.3534215579565387 [Eh]
	 SCS Correlation Energy    =      -1.4593517959112781 [Eh]
	 SCS Total Energy          =    -314.9908347848754033 [Eh]
	-----------------------------------------------------------


  -Total Gradient:
     Atom            X                  Y                   Z
    ------   -----------------  -----------------  -----------------
       1        0.000000111365    -0.000000399592    -0.000000107601
       2        0.000000114751     0.000000027580     0.000000011805
       3       -0.000000187852     0.000000132045     0.000000246162
       4       -0.000000119800     0.000000247442    -0.000000169436
       5       -0.000000082178     0.000000855493    -0.000000162551
       6        0.000000063585    -0.000000135763     0.000000605813
       7       -0.000000505494    -0.000000232340    -0.000000214285
       8        0.000000726069    -0.000000381268    -0.000000337751
       9        0.000000191581     0.000000418393     0.000000202795
      10        0.000000084892    -0.000000073124    -0.000000252520
      11        0.000000195698    -0.000000157967     0.000000214656
      12        0.000000061282    -0.000000939998     0.000000639263
      13       -0.000000475562     0.000000093592     0.000000332720
      14        0.000000047191     0.000000194462    -0.000000903941
      15       -0.000000307523     0.000000209163    -0.000000741029
      16        0.000000002348    -0.000000454192    -0.000000223039
      17       -0.000000113567    -0.000000008232     0.000000717553
      18        0.000001395457     0.000000460318     0.000000866067
      19        0.000000230878     0.000000096348    -0.000000319417
      20       -0.000000888935    -0.000000441404    -0.000000327936
      21       -0.000000831884    -0.000000567437     0.000000329525
      22       -0.000000291505     0.000000342514    -0.000000603352
      23        0.000000662634     0.000000377779     0.000000415760
      24       -0.000000254916     0.000000039477    -0.000001210185
      25       -0.000000084773     0.000000656368    -0.000000001299
      26        0.000000256258    -0.000000359657     0.000000992224


			-----------------------------------------
			 OPTKING 2.0: for geometry optimizations 
			  - R.A. King,  Bethel University        
			-----------------------------------------

	Internal coordinates to be generated automatically.
	Detected frag 1 with atoms:  1 2 3 4 5 6 7 8 9 10 11 12 13 14 15 16 17 18 19 20
	 21 22 23 24 25 26
	---Fragment 1 Bond Connectivity---
	 1 : 2 3 4 9
	 2 : 1
	 3 : 1
	 4 : 1
	 5 : 6 7 8 12
	 6 : 5
	 7 : 5
	 8 : 5
	 9 : 1 10 11 15
	 10 : 9
	 11 : 9
	 12 : 5 13 14 24
	 13 : 12
	 14 : 12
	 15 : 9 16 17 18
	 16 : 15
	 17 : 15
	 18 : 15 19 20 21
	 19 : 18
	 20 : 18
	 21 : 18 22 23 24
	 22 : 21
	 23 : 21
	 24 : 12 21 25 26
	 25 : 24
	 26 : 24

	---Fragment 1 Geometry and Gradient---
	 C          -5.6282793478       -1.1447988881       -0.8605167333
	 H          -7.6781677345       -1.2424875931       -1.0365636700
	 H          -4.8088332207       -1.6944611171       -2.6714127315
	 H          -5.0577630534       -2.5407441487        0.5415949998
	 C           4.8486438036        2.3549606733       -0.5791395468
	 H           4.8679849666        2.6679533851       -2.6168463601
	 H           6.4736464808        3.3345677153        0.2237979410
	 H           3.1452464366        3.2368273232        0.1647677916
	 C          -4.7824594915        1.5055581142       -0.1123694213
	 H          -5.5771043506        1.9792368601        1.7356020678
	 H          -5.5623141847        2.8702257087       -1.4511998422
	 C           4.9402397235       -0.4708416007       -0.0045699217
	 H           6.6869487194       -1.2337691433       -0.7940597758
	 H           5.0545233927       -0.7725083952        2.0373651095
	 C          -1.9157256568        1.8413305454       -0.0028563273
	 H          -1.5177539587        3.8131382629        0.4624683306
	 H          -1.1261407574        1.5310591573       -1.8872270064
	 C          -0.6014061724        0.1060080313        1.9179566945
	 H          -1.9582819612       -0.3967130150        3.3961166182
	 H           0.9086943834        1.1320764195        2.8795445857
	 C           0.5087270313       -2.3223764759        0.8078120446
	 H           1.2054472918       -3.4912459500        2.3649941752
	 H          -0.9813007749       -3.4093203670       -0.1178571599
	 C           2.6820107566       -1.9495353404       -1.0649729873
	 H           3.3064167893       -3.8242693345       -1.6615307852
	 H           2.0025654551       -1.0106517586       -2.7762375690
	             0.0000001114       -0.0000003996       -0.0000001076
	             0.0000001148        0.0000000276        0.0000000118
	            -0.0000001879        0.0000001320        0.0000002462
	            -0.0000001198        0.0000002474       -0.0000001694
	            -0.0000000822        0.0000008555       -0.0000001626
	             0.0000000636       -0.0000001358        0.0000006058
	            -0.0000005055       -0.0000002323       -0.0000002143
	             0.0000007261       -0.0000003813       -0.0000003378
	             0.0000001916        0.0000004184        0.0000002028
	             0.0000000849       -0.0000000731       -0.0000002525
	             0.0000001957       -0.0000001580        0.0000002147
	             0.0000000613       -0.0000009400        0.0000006393
	            -0.0000004756        0.0000000936        0.0000003327
	             0.0000000472        0.0000001945       -0.0000009039
	            -0.0000003075        0.0000002092       -0.0000007410
	             0.0000000023       -0.0000004542       -0.0000002230
	            -0.0000001136       -0.0000000082        0.0000007176
	             0.0000013955        0.0000004603        0.0000008661
	             0.0000002309        0.0000000963       -0.0000003194
	            -0.0000008889       -0.0000004414       -0.0000003279
	            -0.0000008319       -0.0000005674        0.0000003295
	            -0.0000002915        0.0000003425       -0.0000006034
	             0.0000006626        0.0000003778        0.0000004158
	            -0.0000002549        0.0000000395       -0.0000012102
	            -0.0000000848        0.0000006564       -0.0000000013
	             0.0000002563       -0.0000003597        0.0000009922

	Previous optimization step data not found.  Starting new optimization.

	---Fragment 1 Intrafragment Coordinates---
	 - Coordinate -           - BOHR/RAD -       - ANG/DEG -
	 R(1,2)           =         2.059752	       1.089974
	 R(1,3)           =         2.062272	       1.091307
	 R(1,4)           =         2.059143	       1.089651
	 R(1,9)           =         2.880890	       1.524501
	 R(5,6)           =         2.061695	       1.091002
	 R(5,7)           =         2.060333	       1.090281
	 R(5,8)           =         2.057340	       1.088698
	 R(5,12)          =         2.885079	       1.526718
	 R(9,10)          =         2.066599	       1.093597
	 R(9,11)          =         2.064693	       1.092589
	 R(9,15)          =         2.888408	       1.528480
	 R(12,13)         =         2.063091	       1.091741
	 R(12,14)         =         2.067260	       1.093947
	 R(12,24)         =         2.900101	       1.534668
	 R(15,16)         =         2.064687	       1.092586
	 R(15,17)         =         2.066535	       1.093563
	 R(15,18)         =         2.903154	       1.536283
	 R(18,19)         =         2.068525	       1.094616
	 R(18,20)         =         2.063461	       1.091937
	 R(18,21)         =         2.891690	       1.530216
	 R(21,22)         =         2.067968	       1.094321
	 R(21,23)         =         2.063612	       1.092016
	 R(21,24)         =         2.893008	       1.530914
	 R(24,25)         =         2.064072	       1.092260
	 R(24,26)         =         2.066779	       1.093692
	 B(1,9,10)        =         1.907303	     109.280436
	 B(1,9,11)        =         1.905801	     109.194368
	 B(1,9,15)        =         1.991262	     114.090917
	 B(2,1,3)         =         1.883630	     107.924027
	 B(2,1,4)         =         1.877360	     107.564794
	 B(2,1,9)         =         1.936942	     110.978581
	 B(3,1,4)         =         1.882982	     107.886944
	 B(3,1,9)         =         1.935403	     110.890402
	 B(4,1,9)         =         1.944968	     111.438430
	 B(5,12,13)       =         1.889009	     108.232259
	 B(5,12,14)       =         1.919197	     109.961910
	 B(5,12,24)       =         1.984344	     113.694548
	 B(6,5,7)         =         1.881363	     107.794132
	 B(6,5,8)         =         1.875566	     107.461995
	 B(6,5,12)        =         1.923282	     110.195914
	 B(7,5,8)         =         1.884204	     107.956916
	 B(7,5,12)        =         1.942324	     111.286991
	 B(8,5,12)        =         1.954236	     111.969476
	 B(9,15,16)       =         1.886904	     108.111608
	 B(9,15,17)       =         1.904123	     109.098212
	 B(9,15,18)       =         1.987692	     113.886349
	 B(10,9,11)       =         1.857831	     106.445893
	 B(10,9,15)       =         1.897671	     108.728511
	 B(11,9,15)       =         1.899299	     108.821816
	 B(12,24,21)      =         1.997603	     114.454228
	 B(12,24,25)      =         1.910520	     109.464707
	 B(12,24,26)      =         1.904040	     109.093435
	 B(13,12,14)      =         1.851693	     106.094198
	 B(13,12,24)      =         1.907934	     109.316542
	 B(14,12,24)      =         1.906896	     109.257067
	 B(15,18,19)      =         1.897687	     108.729449
	 B(15,18,20)      =         1.920278	     110.023804
	 B(15,18,21)      =         2.006187	     114.946026
	 B(16,15,17)      =         1.849642	     105.976701
	 B(16,15,18)      =         1.911841	     109.540416
	 B(17,15,18)      =         1.918337	     109.912592
	 B(18,21,22)      =         1.891173	     108.356213
	 B(18,21,23)      =         1.914886	     109.714873
	 B(18,21,24)      =         2.013840	     115.384537
	 B(19,18,20)      =         1.842004	     105.539079
	 B(19,18,21)      =         1.898714	     108.788276
	 B(20,18,21)      =         1.891819	     108.393269
	 B(21,24,25)      =         1.872654	     107.295184
	 B(21,24,26)      =         1.925786	     110.339415
	 B(22,21,23)      =         1.858053	     106.458584
	 B(22,21,24)      =         1.883051	     107.890869
	 B(23,21,24)      =         1.896440	     108.658028
	 B(25,24,26)      =         1.847045	     105.827870
	 D(1,9,15,16)     =         3.097399	     177.467892
	 D(1,9,15,17)     =         1.093475	      62.651524
	 D(1,9,15,18)     =        -1.056722	     -60.545693
	 D(2,1,9,10)      =         1.082327	      62.012783
	 D(2,1,9,11)      =        -0.943361	     -54.050632
	 D(2,1,9,15)      =        -3.072605	    -176.047277
	 D(3,1,9,10)      =        -3.107455	    -178.044035
	 D(3,1,9,11)      =         1.150042	      65.892550
	 D(3,1,9,15)      =        -0.979201	     -56.104096
	 D(4,1,9,10)      =        -1.009525	     -57.841529
	 D(4,1,9,11)      =        -3.035214	    -173.904944
	 D(4,1,9,15)      =         1.118728	      64.098411
	 D(5,12,24,21)    =        -1.648786	     -94.468498
	 D(5,12,24,25)    =         2.531769	     145.059707
	 D(5,12,24,26)    =         0.518184	      29.689732
	 D(6,5,12,13)     =         1.057098	      60.567263
	 D(6,5,12,14)     =         3.072579	     176.045830
	 D(6,5,12,24)     =        -1.066291	     -61.093949
	 D(7,5,12,13)     =        -1.028981	     -58.956295
	 D(7,5,12,14)     =         0.986500	      56.522272
	 D(7,5,12,24)     =         3.130815	     179.382494
	 D(8,5,12,13)     =        -3.139574	    -179.884321
	 D(8,5,12,14)     =        -1.124092	     -64.405754
	 D(8,5,12,24)     =         1.020223	      58.454467
	 D(9,15,18,19)    =        -0.443330	     -25.400959
	 D(9,15,18,20)    =        -2.452691	    -140.528849
	 D(9,15,18,21)    =         1.689358	      96.793066
	 D(10,9,15,16)    =        -1.052242	     -60.289036
	 D(10,9,15,17)    =        -3.056166	    -175.105403
	 D(10,9,15,18)    =         1.076822	      61.697380
	 D(11,9,15,16)    =         0.964585	      55.266648
	 D(11,9,15,17)    =        -1.039339	     -59.549720
	 D(11,9,15,18)    =         3.093650	     177.253063
	 D(12,24,21,18)   =         0.996037	      57.068738
	 D(12,24,21,22)   =        -1.120988	     -64.227869
	 D(12,24,21,23)   =        -3.128799	    -179.266983
	 D(13,12,24,21)   =         2.521566	     144.475111
	 D(13,12,24,25)   =         0.418937	      24.003316
	 D(13,12,24,26)   =        -1.594649	     -91.366659
	 D(14,12,24,21)   =         0.502264	      28.777625
	 D(14,12,24,25)   =        -1.600365	     -91.694170
	 D(14,12,24,26)   =         2.669234	     152.935855
	 D(15,18,21,22)   =        -3.035901	    -173.944338
	 D(15,18,21,23)   =        -1.013956	     -58.095391
	 D(15,18,21,24)   =         1.134653	      65.010839
	 D(16,15,18,19)   =         1.671909	      95.793310
	 D(16,15,18,20)   =        -0.337452	     -19.334580
	 D(16,15,18,21)   =        -2.478589	    -142.012665
	 D(17,15,18,19)   =        -2.585767	    -148.153535
	 D(17,15,18,20)   =         1.688058	      96.718575
	 D(17,15,18,21)   =        -0.453079	     -25.959510
	 D(18,21,24,25)   =         3.119550	     178.737031
	 D(18,21,24,26)   =        -1.159302	     -66.423087
	 D(19,18,21,22)   =        -0.903768	     -51.782066
	 D(19,18,21,23)   =         1.118178	      64.066881
	 D(19,18,21,24)   =        -3.016398	    -172.826889
	 D(20,18,21,22)   =         1.090945	      62.506547
	 D(20,18,21,23)   =         3.112891	     178.355494
	 D(20,18,21,24)   =        -1.021686	     -58.538276
	 D(22,21,24,25)   =         1.002525	      57.440424
	 D(22,21,24,26)   =         3.006859	     172.280306
	 D(23,21,24,25)   =        -1.005287	     -57.598689
	 D(23,21,24,26)   =         0.999047	      57.241192
	 R(1,21)          =         6.467832	       3.422630
	 R(5,15)          =         6.808275	       3.602784
	 R(5,18)          =         6.402837	       3.388235

	Current energy   :      -314.9771250011

	Generating empirical Hessian (Schlegel '84) for each fragment.
	Taking RFO optimization step.
	Going to follow RFO solution 1.
	Using RFO vector 1.
	Norm of target step-size    0.00017
	Projected energy change by RFO approximation:         0.0000000007

	Back-transformation to cartesian coordinates...
	Successfully converged to displaced geometry.

	--- Internal Coordinate Step in ANG or DEG, aJ/ANG or AJ/DEG ---
	 ---------------------------------------------------------------------------
	   Coordinate                Previous        Force       Change         New 
	   ----------                --------       ------       ------       ------
	    1 R(1,2)          =      1.089974     0.000001     0.000000     1.089974
	    2 R(1,3)          =      1.091307     0.000002     0.000000     1.091308
	    3 R(1,4)          =      1.089651     0.000002     0.000000     1.089652
	    4 R(1,9)          =      1.524501    -0.000002    -0.000000     1.524501
	    5 R(5,6)          =      1.091002     0.000005     0.000001     1.091003
	    6 R(5,7)          =      1.090281     0.000005     0.000001     1.090282
	    7 R(5,8)          =      1.088698     0.000007     0.000001     1.088699
	    8 R(5,12)         =      1.526718    -0.000002    -0.000000     1.526718
	    9 R(9,10)         =      1.093597     0.000002     0.000000     1.093597
	   10 R(9,11)         =      1.092589     0.000003     0.000001     1.092589
	   11 R(9,15)         =      1.528480     0.000002     0.000000     1.528480
	   12 R(12,13)        =      1.091741     0.000005     0.000001     1.091742
	   13 R(12,14)        =      1.093947     0.000008     0.000001     1.093948
	   14 R(12,24)        =      1.534668     0.000002     0.000001     1.534669
	   15 R(15,16)        =      1.092586     0.000004     0.000001     1.092586
	   16 R(15,17)        =      1.093563     0.000006     0.000001     1.093564
	   17 R(15,18)        =      1.536283    -0.000001     0.000000     1.536283
	   18 R(18,19)        =      1.094616     0.000003     0.000001     1.094617
	   19 R(18,20)        =      1.091937     0.000008     0.000002     1.091938
	   20 R(18,21)        =      1.530216     0.000003     0.000001     1.530217
	   21 R(21,22)        =      1.094321     0.000006     0.000001     1.094323
	   22 R(21,23)        =      1.092016     0.000007     0.000001     1.092018
	   23 R(21,24)        =      1.530914    -0.000000     0.000001     1.530915
	   24 R(24,25)        =      1.092260     0.000005     0.000001     1.092261
	   25 R(24,26)        =      1.093692     0.000009     0.000002     1.093694
	   26 B(1,9,10)       =    109.280436     0.000000    -0.000006   109.280430
	   27 B(1,9,11)       =    109.194368     0.000000     0.000035   109.194403
	   28 B(1,9,15)       =    114.090917    -0.000000    -0.000044   114.090872
	   29 B(2,1,3)        =    107.924027     0.000000     0.000024   107.924051
	   30 B(2,1,4)        =    107.564794     0.000000     0.000009   107.564803
	   31 B(2,1,9)        =    110.978581    -0.000000    -0.000009   110.978572
	   32 B(3,1,4)        =    107.886944    -0.000000    -0.000022   107.886922
	   33 B(3,1,9)        =    110.890402    -0.000000    -0.000002   110.890400
	   34 B(4,1,9)        =    111.438430     0.000000    -0.000000   111.438430
	   35 B(5,12,13)      =    108.232259     0.000000    -0.000103   108.232156
	   36 B(5,12,14)      =    109.961910     0.000000     0.000072   109.961983
	   37 B(5,12,24)      =    113.694548    -0.000000     0.000093   113.694640
	   38 B(6,5,7)        =    107.794132     0.000000     0.000006   107.794138
	   39 B(6,5,8)        =    107.461995    -0.000000    -0.000000   107.461995
	   40 B(6,5,12)       =    110.195914     0.000000     0.000008   110.195921
	   41 B(7,5,8)        =    107.956916     0.000000     0.000029   107.956945
	   42 B(7,5,12)       =    111.286991    -0.000000    -0.000048   111.286943
	   43 B(8,5,12)       =    111.969476     0.000000     0.000007   111.969483
	   44 B(9,15,16)      =    108.111608     0.000000    -0.000055   108.111553
	   45 B(9,15,17)      =    109.098212    -0.000000    -0.000019   109.098194
	   46 B(9,15,18)      =    113.886349    -0.000000    -0.000051   113.886298
	   47 B(10,9,11)      =    106.445893    -0.000000    -0.000003   106.445890
	   48 B(10,9,15)      =    108.728511     0.000000    -0.000038   108.728473
	   49 B(11,9,15)      =    108.821816     0.000000     0.000058   108.821874
	   50 B(12,24,21)     =    114.454228     0.000000     0.000268   114.454496
	   51 B(12,24,25)     =    109.464707     0.000000    -0.000072   109.464635
	   52 B(12,24,26)     =    109.093435    -0.000000     0.000020   109.093455
	   53 B(13,12,14)     =    106.094198     0.000000     0.000037   106.094235
	   54 B(13,12,24)     =    109.316542     0.000000    -0.000093   109.316450
	   55 B(14,12,24)     =    109.257067     0.000000    -0.000012   109.257055
	   56 B(15,18,19)     =    108.729449    -0.000000     0.000005   108.729454
	   57 B(15,18,20)     =    110.023804    -0.000000    -0.000103   110.023701
	   58 B(15,18,21)     =    114.946026     0.000000     0.000287   114.946313
	   59 B(16,15,17)     =    105.976701    -0.000000     0.000030   105.976730
	   60 B(16,15,18)     =    109.540416     0.000000    -0.000026   109.540390
	   61 B(17,15,18)     =    109.912592     0.000000     0.000124   109.912716
	   62 B(18,21,22)     =    108.356213    -0.000000    -0.000146   108.356068
	   63 B(18,21,23)     =    109.714873     0.000000    -0.000059   109.714814
	   64 B(18,21,24)     =    115.384537     0.000000     0.000312   115.384849
	   65 B(19,18,20)     =    105.539079     0.000000    -0.000013   105.539066
	   66 B(19,18,21)     =    108.788276    -0.000000     0.000010   108.788286
	   67 B(20,18,21)     =    108.393269    -0.000000    -0.000209   108.393060
	   68 B(21,24,25)     =    107.295184    -0.000000    -0.000246   107.294939
	   69 B(21,24,26)     =    110.339415    -0.000000     0.000065   110.339480
	   70 B(22,21,23)     =    106.458584     0.000000    -0.000013   106.458571
	   71 B(22,21,24)     =    107.890869    -0.000000    -0.000108   107.890761
	   72 B(23,21,24)     =    108.658028    -0.000000    -0.000010   108.658017
	   73 B(25,24,26)     =    105.827870     0.000000    -0.000067   105.827803
	   74 D(1,9,15,16)    =    177.467892     0.000000     0.001592   177.469484
	   75 D(1,9,15,17)    =     62.651524     0.000000     0.001596    62.653121
	   76 D(1,9,15,18)    =    -60.545693     0.000000     0.001485   -60.544208
	   77 D(2,1,9,10)     =     62.012783     0.000000     0.000192    62.012975
	   78 D(2,1,9,11)     =    -54.050632    -0.000000     0.000179   -54.050453
	   79 D(2,1,9,15)     =   -176.047277    -0.000000     0.000108  -176.047170
	   80 D(3,1,9,10)     =   -178.044035     0.000000     0.000215  -178.043820
	   81 D(3,1,9,11)     =     65.892550     0.000000     0.000202    65.892752
	   82 D(3,1,9,15)     =    -56.104096    -0.000000     0.000131   -56.103964
	   83 D(4,1,9,10)     =    -57.841529     0.000000     0.000187   -57.841343
	   84 D(4,1,9,11)     =   -173.904944    -0.000000     0.000173  -173.904771
	   85 D(4,1,9,15)     =     64.098411    -0.000000     0.000102    64.098513
	   86 D(5,12,24,21)   =    -94.468498     0.000000     0.000994   -94.467504
	   87 D(5,12,24,25)   =    145.059707     0.000000     0.001182   145.060889
	   88 D(5,12,24,26)   =     29.689732     0.000000     0.001290    29.691022
	   89 D(6,5,12,13)    =     60.567263    -0.000000     0.001242    60.568505
	   90 D(6,5,12,14)    =    176.045830     0.000000     0.001268   176.047098
	   91 D(6,5,12,24)    =    -61.093949     0.000000     0.001373   -61.092575
	   92 D(7,5,12,13)    =    -58.956295    -0.000000     0.001260   -58.955035
	   93 D(7,5,12,14)    =     56.522272     0.000000     0.001286    56.523558
	   94 D(7,5,12,24)    =    179.382494     0.000000     0.001391   179.383884
	   95 D(8,5,12,13)    =   -179.884321    -0.000000     0.001252  -179.883069
	   96 D(8,5,12,14)    =    -64.405754     0.000000     0.001278   -64.404476
	   97 D(8,5,12,24)    =     58.454467     0.000000     0.001383    58.455850
	   98 D(9,15,18,19)   =    -25.400959    -0.000000     0.000590   -25.400369
	   99 D(9,15,18,20)   =   -140.528849    -0.000000     0.000659  -140.528190
	  100 D(9,15,18,21)   =     96.793066     0.000000     0.000807    96.793872
	  101 D(10,9,15,16)   =    -60.289036     0.000000     0.001526   -60.287510
	  102 D(10,9,15,17)   =   -175.105403     0.000000     0.001530  -175.103873
	  103 D(10,9,15,18)   =     61.697380    -0.000000     0.001419    61.698798
	  104 D(11,9,15,16)   =     55.266648     0.000000     0.001534    55.268182
	  105 D(11,9,15,17)   =    -59.549720     0.000000     0.001538   -59.548182
	  106 D(11,9,15,18)   =    177.253063     0.000000     0.001426   177.254489
	  107 D(12,24,21,18)  =     57.068738    -0.000000    -0.001728    57.067010
	  108 D(12,24,21,22)  =    -64.227869    -0.000000    -0.001667   -64.229536
	  109 D(12,24,21,23)  =   -179.266983    -0.000000    -0.001590  -179.268573
	  110 D(13,12,24,21)  =    144.475111     0.000000     0.001130   144.476241
	  111 D(13,12,24,25)  =     24.003316     0.000000     0.001318    24.004634
	  112 D(13,12,24,26)  =    -91.366659     0.000000     0.001426   -91.365233
	  113 D(14,12,24,21)  =     28.777625     0.000000     0.001144    28.778769
	  114 D(14,12,24,25)  =    -91.694170     0.000000     0.001332   -91.692838
	  115 D(14,12,24,26)  =    152.935855     0.000000     0.001440   152.937295
	  116 D(15,18,21,22)  =   -173.944338    -0.000000     0.001161  -173.943177
	  117 D(15,18,21,23)  =    -58.095391    -0.000000     0.001032   -58.094358
	  118 D(15,18,21,24)  =     65.010839    -0.000000     0.001201    65.012040
	  119 D(16,15,18,19)  =     95.793310    -0.000000     0.000465    95.793775
	  120 D(16,15,18,20)  =    -19.334580    -0.000000     0.000533   -19.334046
	  121 D(16,15,18,21)  =   -142.012665     0.000000     0.000681  -142.011984
	  122 D(17,15,18,19)  =   -148.153535    -0.000000     0.000556  -148.152978
	  123 D(17,15,18,20)  =     96.718575     0.000000     0.000625    96.719200
	  124 D(17,15,18,21)  =    -25.959510     0.000000     0.000773   -25.958737
	  125 D(18,21,24,25)  =    178.737031    -0.000000    -0.001825   178.735207
	  126 D(18,21,24,26)  =    -66.423087    -0.000000    -0.002006   -66.425093
	  127 D(19,18,21,22)  =    -51.782066     0.000000     0.001375   -51.780692
	  128 D(19,18,21,23)  =     64.066881     0.000000     0.001246    64.068127
	  129 D(19,18,21,24)  =   -172.826889     0.000000     0.001415  -172.825475
	  130 D(20,18,21,22)  =     62.506547    -0.000000     0.001256    62.507803
	  131 D(20,18,21,23)  =    178.355494    -0.000000     0.001127   178.356621
	  132 D(20,18,21,24)  =    -58.538276    -0.000000     0.001296   -58.536981
	  133 D(22,21,24,25)  =     57.440424     0.000000    -0.001763    57.438661
	  134 D(22,21,24,26)  =    172.280306    -0.000000    -0.001945   172.278361
	  135 D(23,21,24,25)  =    -57.598689     0.000000    -0.001687   -57.600376
	  136 D(23,21,24,26)  =     57.241192    -0.000000    -0.001868    57.239324
	  137 R(1,21)         =      3.422630     0.000002     0.000006     3.422635
	  138 R(5,15)         =      3.602784     0.000000    -0.000006     3.602778
	  139 R(5,18)         =      3.388235     0.000001    -0.000010     3.388225
	 ---------------------------------------------------------------------------

  ==> Convergence Check <==

  Measures of convergence in internal coordinates in au.
  Criteria marked as inactive (o), active & met (*), and active & unmet ( ).
  --------------------------------------------------------------------------------------------- ~
   Step     Total Energy     Delta E     MAX Force     RMS Force      MAX Disp      RMS Disp    ~
  --------------------------------------------------------------------------------------------- ~
    Convergence Criteria             o    2.00e-06 *    1.00e-06 *    6.00e-06 *    4.00e-06 *  ~
  --------------------------------------------------------------------------------------------- ~
      1    -314.97712500   -3.15e+02 o    1.07e-06 *    2.73e-07 *    3.50e-05      1.48e-05    ~
  ---------------------------------------------------------------------------------------------

	Writing optimization data to binary file.
	Structure for next step:
	Cartesian Geometry (in Angstrom)
	    C    -2.9783744364  -0.6057948250  -0.4553360693
	    H    -4.0631295705  -0.6574817139  -0.5484918855
	    H    -2.5447469748  -0.8966885793  -1.4136160303
	    H    -2.6764744737  -1.3444840314   0.2866450496
	    C     2.5657859544   1.2461980112  -0.3064552348
	    H     2.5760075532   1.4118269823  -1.3847642764
	    H     3.4257023749   1.7645897638   0.1184317704
	    H     1.6643868441   1.7128556890   0.0872142201
	    C    -2.5307723801   0.7967180555  -0.0594655406
	    H    -2.9512727730   1.0474018173   0.9184365074
	    H    -2.9434518051   1.5188583827  -0.7679568390
	    C     2.6142710330  -0.2491515114  -0.0024066703
	    H     3.5385998216  -0.6528627209  -0.4201786910
	    H     2.6747380095  -0.4087883071   1.0781405167
	    C    -1.0137597807   0.9743886112  -0.0015246851
	    H    -0.8031527178   2.0178219952   0.2447196141
	    H    -0.5959386621   0.8102028186  -0.9986961897
	    C    -0.3182526575   0.0560847739   1.0149166566
	    H    -1.0362804817  -0.2099497321   1.7971239502
	    H     0.4808596457   0.5990532815   1.5237718012
	    C     0.2692087673  -1.2289570417   0.4274467662
	    H     0.6378758448  -1.8475090185   1.2514734812
	    H    -0.5192757097  -1.8041319086  -0.0624191497
	    C     1.4192844008  -1.0316593727  -0.5635624936
	    H     1.7497205845  -2.0237295290  -0.8792237378
	    H     1.0597552219  -0.5348409703  -1.4691433009
			--------------------------
			 OPTKING Finished Execution 
			--------------------------

    Structure for next step:
    Molecular point group: c1
    Full point group: C1

    Geometry (in Angstrom), charge = 0, multiplicity = 1:

    C           -2.978374979345    -0.605794771781    -0.455334518697
    H           -4.063130113506    -0.657481660665    -0.548490334963
    H           -2.544747517839    -0.896688526049    -1.413614479702
    H           -2.676475016717    -1.344483978176     0.286646600139
    C            2.565785411447     1.246198064421    -0.306453684203
    H            2.576007010240     1.411827035493    -1.384762725879
    H            3.425701831920     1.764589817067     0.118433320918
    H            1.664386301113     1.712855742249     0.087215770692
    C           -2.530772923057     0.796718108742    -0.059463990030
    H           -2.951273316034     1.047401870493     0.918438057924
    H           -2.943452348096     1.518858435920    -0.767955288484
    C            2.614270489983    -0.249151458197    -0.002405119754
    H            3.538599278580    -0.652862667668    -0.420177140404
    H            2.674737466532    -0.408788253860     1.078142067219
    C           -1.013760323653     0.974388664408    -0.001523134527
    H           -0.803153260818     2.017822048381     0.244721164706
    H           -0.595939205127     0.810202871856    -0.998694639161
    C           -0.318253200488     0.056084827091     1.014918207133
    H           -1.036281024667    -0.209949678881     1.797125500813
    H            0.480859102690     0.599053334761     1.523773351804
    C            0.269208224282    -1.228956988455     0.427448316735
    H            0.637875301776    -1.847508965298     1.251475031813
    H           -0.519276252713    -1.804131855360    -0.062417599112
    C            1.419283857814    -1.031659319518    -0.563560943030
    H            1.749720041494    -2.023729475825    -0.879222187222
    H            1.059754678929    -0.534840917103    -1.469141750332

gradient() will perform analytic gradient computation.

*** tstart() called on wr38
*** at Wed Sep 21 08:48:35 2016


         ---------------------------------------------------------
                                   SCF
            by Justin Turney, Rob Parrish, and Andy Simmonett
                              RHF Reference
                       12 Threads,  60000 MiB Core
         ---------------------------------------------------------

  ==> Geometry <==

    Molecular point group: c1
    Full point group: C1

    Geometry (in Angstrom), charge = 0, multiplicity = 1:

       Center              X                  Y                   Z               Mass       
    ------------   -----------------  -----------------  -----------------  -----------------
           C         -2.978374979345    -0.605794771781    -0.455334518697    12.000000000000
           H         -4.063130113506    -0.657481660665    -0.548490334963     1.007825032070
           H         -2.544747517839    -0.896688526049    -1.413614479702     1.007825032070
           H         -2.676475016717    -1.344483978176     0.286646600139     1.007825032070
           C          2.565785411447     1.246198064421    -0.306453684203    12.000000000000
           H          2.576007010240     1.411827035493    -1.384762725879     1.007825032070
           H          3.425701831920     1.764589817067     0.118433320918     1.007825032070
           H          1.664386301113     1.712855742249     0.087215770692     1.007825032070
           C         -2.530772923057     0.796718108742    -0.059463990030    12.000000000000
           H         -2.951273316034     1.047401870493     0.918438057924     1.007825032070
           H         -2.943452348096     1.518858435920    -0.767955288484     1.007825032070
           C          2.614270489983    -0.249151458197    -0.002405119754    12.000000000000
           H          3.538599278580    -0.652862667668    -0.420177140404     1.007825032070
           H          2.674737466532    -0.408788253860     1.078142067219     1.007825032070
           C         -1.013760323653     0.974388664408    -0.001523134527    12.000000000000
           H         -0.803153260818     2.017822048381     0.244721164706     1.007825032070
           H         -0.595939205127     0.810202871856    -0.998694639161     1.007825032070
           C         -0.318253200488     0.056084827091     1.014918207133    12.000000000000
           H         -1.036281024667    -0.209949678881     1.797125500813     1.007825032070
           H          0.480859102690     0.599053334761     1.523773351804     1.007825032070
           C          0.269208224282    -1.228956988455     0.427448316735    12.000000000000
           H          0.637875301776    -1.847508965298     1.251475031813     1.007825032070
           H         -0.519276252713    -1.804131855360    -0.062417599112     1.007825032070
           C          1.419283857814    -1.031659319518    -0.563560943030    12.000000000000
           H          1.749720041494    -2.023729475825    -0.879222187222     1.007825032070
           H          1.059754678929    -0.534840917103    -1.469141750332     1.007825032070

  Running in c1 symmetry.

  Rotational constants: A =      0.11580  B =      0.03245  C =      0.02884 [cm^-1]
  Rotational constants: A =   3471.71376  B =    972.76607  C =    864.73450 [MHz]
  Nuclear repulsion =  405.999317903231088

  Charge       = 0
  Multiplicity = 1
  Electrons    = 66
  Nalpha       = 33
  Nbeta        = 33

  ==> Algorithm <==

  SCF Algorithm Type is DF.
  DIIS enabled.
  MOM disabled.
  Fractional occupation disabled.
  Guess Type is READ.
  Energy threshold   = 1.00e-10
  Density threshold  = 1.00e-10
  Integral threshold = 0.00e+00

  ==> Primary Basis <==

  Basis Set: AUG-CC-PVTZ
    Number of shells: 274
    Number of basis function: 782
    Number of Cartesian functions: 890
    Spherical Harmonics?: true
    Max angular momentum: 3

  ==> Pre-Iterations <==

   -------------------------------------------------------
    Irrep   Nso     Nmo     Nalpha   Nbeta   Ndocc  Nsocc
   -------------------------------------------------------
     A        782     782       0       0       0       0
   -------------------------------------------------------
    Total     782     782      33      33      33       0
   -------------------------------------------------------

  ==> Integral Setup <==

  ==> DFJK: Density-Fitted J/K Matrices <==

    J tasked:                  Yes
    K tasked:                  Yes
    wK tasked:                  No
    OpenMP threads:             12
    Integrals threads:          12
    Memory (MB):             42915
    Algorithm:                Core
    Integral Cache:           NONE
    Schwarz Cutoff:          1E-12
    Fitting Condition:       1E-12

   => Auxiliary Basis Set <=

  Basis Set: 
    Number of shells: 492
    Number of basis function: 1660
    Number of Cartesian functions: 2038
    Spherical Harmonics?: true
    Max angular momentum: 4

  Minimum eigenvalue in the overlap matrix is 1.2911291705E-06.
  Using Symmetric Orthogonalization.
  SCF Guess: Reading in previously saved MOs, projecting if necessary.

  Using orbitals from previous SCF, no projection.
  Recomputing DOCC and SOCC from number of alpha and beta electrons from previous calculation.
              A 
    DOCC [    33 ]

  ==> Iterations <==

                           Total Energy        Delta E     RMS |[F,P]|

   @DF-RHF iter   0:  -313.53146586915744   -3.13531e+02   8.09060e-08 
   @DF-RHF iter   1:  -313.53148296527064   -1.70961e-05   1.78920e-08 
   @DF-RHF iter   2:  -313.53148296542139   -1.50749e-10   8.01331e-09 DIIS
   @DF-RHF iter   3:  -313.53148296544583   -2.44427e-11   2.76814e-09 DIIS
   @DF-RHF iter   4:  -313.53148296545038   -4.54747e-12   3.09005e-10 DIIS
   @DF-RHF iter   5:  -313.53148296545095   -5.68434e-13   9.57397e-11 DIIS

  ==> Post-Iterations <==

    Orbital Energies (a.u.)
    -----------------------

    Doubly Occupied:                                                      

       1A    -11.213274     2A    -11.212479     3A    -11.210561  
       4A    -11.210264     5A    -11.209802     6A    -11.209540  
       7A    -11.207033     8A    -11.205814     9A     -1.093925  
      10A     -1.056933    11A     -1.003348    12A     -0.950609  
      13A     -0.891680    14A     -0.827311    15A     -0.791520  
      16A     -0.747586    17A     -0.650707    18A     -0.629540  
      19A     -0.608073    20A     -0.592809    21A     -0.580721  
      22A     -0.558846    23A     -0.538049    24A     -0.528194  
      25A     -0.524167    26A     -0.507431    27A     -0.490294  
      28A     -0.473423    29A     -0.466448    30A     -0.457860  
      31A     -0.440077    32A     -0.436535    33A     -0.432514  

    Virtual:                                                              

      34A      0.029740    35A      0.033736    36A      0.033826  
      37A      0.034969    38A      0.045855    39A      0.047908  
      40A      0.051420    41A      0.053784    42A      0.054100  
      43A      0.068121    44A      0.069003    45A      0.072900  
      46A      0.075166    47A      0.077476    48A      0.081390  
      49A      0.088827    50A      0.097774    51A      0.099877  
      52A      0.114122    53A      0.117720    54A      0.120231  
      55A      0.125231    56A      0.127029    57A      0.132825  
      58A      0.135423    59A      0.137900    60A      0.138650  
      61A      0.140089    62A      0.146712    63A      0.149548  
      64A      0.153497    65A      0.159715    66A      0.161005  
      67A      0.165482    68A      0.168922    69A      0.170430  
      70A      0.176427    71A      0.179716    72A      0.180618  
      73A      0.182861    74A      0.191222    75A      0.195256  
      76A      0.199978    77A      0.211433    78A      0.224937  
      79A      0.225687    80A      0.228310    81A      0.239805  
      82A      0.242724    83A      0.252212    84A      0.262999  
      85A      0.274114    86A      0.276848    87A      0.281118  
      88A      0.288803    89A      0.289385    90A      0.298294  
      91A      0.303007    92A      0.305862    93A      0.308944  
      94A      0.315251    95A      0.322013    96A      0.323693  
      97A      0.328467    98A      0.331514    99A      0.336636  
     100A      0.338816   101A      0.343765   102A      0.345237  
     103A      0.348128   104A      0.354885   105A      0.356250  
     106A      0.360447   107A      0.365601   108A      0.366205  
     109A      0.370430   110A      0.375025   111A      0.377734  
     112A      0.380048   113A      0.382138   114A      0.387003  
     115A      0.392933   116A      0.395906   117A      0.397765  
     118A      0.404531   119A      0.409310   120A      0.411990  
     121A      0.417960   122A      0.420832   123A      0.429280  
     124A      0.437056   125A      0.439010   126A      0.441586  
     127A      0.446110   128A      0.451265   129A      0.454679  
     130A      0.457253   131A      0.459128   132A      0.466265  
     133A      0.468972   134A      0.470900   135A      0.477769  
     136A      0.480224   137A      0.485896   138A      0.489478  
     139A      0.489979   140A      0.494996   141A      0.498509  
     142A      0.505122   143A      0.508884   144A      0.512938  
     145A      0.515387   146A      0.517445   147A      0.522265  
     148A      0.530239   149A      0.532358   150A      0.541569  
     151A      0.544361   152A      0.547974   153A      0.549339  
     154A      0.553017   155A      0.557940   156A      0.564010  
     157A      0.568911   158A      0.571355   159A      0.575584  
     160A      0.581736   161A      0.585452   162A      0.590246  
     163A      0.593912   164A      0.598207   165A      0.602998  
     166A      0.607379   167A      0.609921   168A      0.617699  
     169A      0.623728   170A      0.631176   171A      0.634700  
     172A      0.637790   173A      0.640084   174A      0.642417  
     175A      0.650049   176A      0.656224   177A      0.658473  
     178A      0.664947   179A      0.670422   180A      0.671175  
     181A      0.678728   182A      0.682785   183A      0.684585  
     184A      0.692278   185A      0.697809   186A      0.699355  
     187A      0.706192   188A      0.707896   189A      0.715590  
     190A      0.720182   191A      0.728657   192A      0.736636  
     193A      0.741139   194A      0.745053   195A      0.749775  
     196A      0.760279   197A      0.764690   198A      0.765899  
     199A      0.776421   200A      0.778482   201A      0.801179  
     202A      0.807086   203A      0.819648   204A      0.828581  
     205A      0.830982   206A      0.844744   207A      0.849025  
     208A      0.857781   209A      0.860541   210A      0.865540  
     211A      0.867706   212A      0.873001   213A      0.878235  
     214A      0.886646   215A      0.888945   216A      0.894704  
     217A      0.901501   218A      0.909697   219A      0.915610  
     220A      0.916731   221A      0.922759   222A      0.930177  
     223A      0.932278   224A      0.939505   225A      0.946806  
     226A      0.950833   227A      0.952069   228A      0.962621  
     229A      0.968200   230A      0.973685   231A      0.975896  
     232A      0.982368   233A      0.988623   234A      0.994748  
     235A      0.996984   236A      1.004662   237A      1.007132  
     238A      1.011925   239A      1.016799   240A      1.020791  
     241A      1.024160   242A      1.026507   243A      1.032574  
     244A      1.041648   245A      1.047032   246A      1.052029  
     247A      1.055365   248A      1.061086   249A      1.066853  
     250A      1.071960   251A      1.076707   252A      1.081273  
     253A      1.084324   254A      1.087264   255A      1.094969  
     256A      1.104781   257A      1.108619   258A      1.118476  
     259A      1.126931   260A      1.128566   261A      1.132489  
     262A      1.139385   263A      1.145796   264A      1.150808  
     265A      1.151890   266A      1.158768   267A      1.164909  
     268A      1.166860   269A      1.179440   270A      1.180570  
     271A      1.188371   272A      1.192530   273A      1.199929  
     274A      1.208142   275A      1.211573   276A      1.216384  
     277A      1.222343   278A      1.227439   279A      1.233074  
     280A      1.238069   281A      1.243735   282A      1.250743  
     283A      1.254540   284A      1.257648   285A      1.260221  
[...]
	 Skipping Hessian update for step 7.
	Denominators (dg)(dq) or (dq)(dq) are very small.
	 Skipping Hessian update for step 6.
	Denominators (dg)(dq) or (dq)(dq) are very small.
	 Skipping Hessian update for step 5.
	Denominators (dg)(dq) or (dq)(dq) are very small.
	 Skipping Hessian update for step 4.
	Denominators (dg)(dq) or (dq)(dq) are very small.
	 Skipping Hessian update for step 3.
	Denominators (dg)(dq) or (dq)(dq) are very small.
	 Skipping Hessian update for step 2.
	Steps to be used in Hessian update: 1
	Taking RFO optimization step.
	Going to follow RFO solution 1.
	Rejecting RFO root 1 because normalization gives large value.
	Using RFO vector 2.
	Norm of target step-size    0.00002
	Projected energy change by RFO approximation:         0.0000000000

	Back-transformation to cartesian coordinates...
	Successfully converged to displaced geometry.

	--- Internal Coordinate Step in ANG or DEG, aJ/ANG or AJ/DEG ---
	 ---------------------------------------------------------------------------
	   Coordinate                Previous        Force       Change         New 
	   ----------                --------       ------       ------       ------
	    1 R(1,2)          =      1.089974    -0.000002    -0.000000     1.089974
	    2 R(1,3)          =      1.091307    -0.000004    -0.000000     1.091307
	    3 R(1,4)          =      1.089652    -0.000004    -0.000000     1.089652
	    4 R(1,9)          =      1.524501     0.000000     0.000000     1.524501
	    5 R(5,6)          =      1.091003    -0.000003    -0.000000     1.091002
	    6 R(5,7)          =      1.090282    -0.000002    -0.000000     1.090282
	    7 R(5,8)          =      1.088698    -0.000002     0.000000     1.088698
	    8 R(5,12)         =      1.526718     0.000002     0.000000     1.526718
	    9 R(9,10)         =      1.093597    -0.000003     0.000000     1.093597
	   10 R(9,11)         =      1.092589    -0.000002     0.000000     1.092589
	   11 R(9,15)         =      1.528480    -0.000001     0.000000     1.528480
	   12 R(12,13)        =      1.091741    -0.000003    -0.000000     1.091741
	   13 R(12,14)        =      1.093946    -0.000001     0.000000     1.093947
	   14 R(12,24)        =      1.534668    -0.000001    -0.000000     1.534668
	   15 R(15,16)        =      1.092586    -0.000002     0.000000     1.092586
	   16 R(15,17)        =      1.093562     0.000003     0.000000     1.093562
	   17 R(15,18)        =      1.536283     0.000003     0.000000     1.536283
	   18 R(18,19)        =      1.094617    -0.000005    -0.000000     1.094616
	   19 R(18,20)        =      1.091936     0.000001    -0.000000     1.091935
	   20 R(18,21)        =      1.530217    -0.000005    -0.000000     1.530216
	   21 R(21,22)        =      1.094321    -0.000005    -0.000000     1.094321
	   22 R(21,23)        =      1.092016    -0.000004    -0.000000     1.092016
	   23 R(21,24)        =      1.530914     0.000002     0.000000     1.530914
	   24 R(24,25)        =      1.092260    -0.000004    -0.000000     1.092260
	   25 R(24,26)        =      1.093691     0.000000    -0.000000     1.093691
	   26 B(1,9,10)       =    109.280470    -0.000000     0.000011   109.280481
	   27 B(1,9,11)       =    109.194404    -0.000000    -0.000037   109.194368
	   28 B(1,9,15)       =    114.090809     0.000000     0.000047   114.090855
	   29 B(2,1,3)        =    107.924037    -0.000000    -0.000004   107.924034
	   30 B(2,1,4)        =    107.564800    -0.000000     0.000007   107.564807
	   31 B(2,1,9)        =    110.978644     0.000000    -0.000021   110.978623
	   32 B(3,1,4)        =    107.886904     0.000000     0.000015   107.886919
	   33 B(3,1,9)        =    110.890379    -0.000000    -0.000001   110.890378
	   34 B(4,1,9)        =    111.438412    -0.000000     0.000005   111.438417
	   35 B(5,12,13)      =    108.232233    -0.000000    -0.000005   108.232227
	   36 B(5,12,14)      =    109.961927    -0.000000     0.000005   109.961932
	   37 B(5,12,24)      =    113.694604     0.000000    -0.000005   113.694599
	   38 B(6,5,7)        =    107.794122    -0.000000     0.000001   107.794123
	   39 B(6,5,8)        =    107.461993     0.000000     0.000003   107.461996
	   40 B(6,5,12)       =    110.195919    -0.000000    -0.000003   110.195917
	   41 B(7,5,8)        =    107.956912    -0.000000     0.000003   107.956915
	   42 B(7,5,12)       =    111.286965     0.000000     0.000011   111.286976
	   43 B(8,5,12)       =    111.969510    -0.000000    -0.000014   111.969496
	   44 B(9,15,16)      =    108.111604    -0.000000     0.000020   108.111624
	   45 B(9,15,17)      =    109.098175     0.000000    -0.000007   109.098168
	   46 B(9,15,18)      =    113.886291    -0.000000    -0.000011   113.886280
	   47 B(10,9,11)      =    106.445902     0.000000    -0.000008   106.445893
	   48 B(10,9,15)      =    108.728505    -0.000000     0.000002   108.728507
	   49 B(11,9,15)      =    108.821859    -0.000000    -0.000019   108.821841
	   50 B(12,24,21)     =    114.454321    -0.000000     0.000003   114.454324
	   51 B(12,24,25)     =    109.464652    -0.000000    -0.000001   109.464651
	   52 B(12,24,26)     =    109.093435     0.000000     0.000032   109.093467
	   53 B(13,12,14)     =    106.094217     0.000000    -0.000009   106.094208
	   54 B(13,12,24)     =    109.316487    -0.000000    -0.000008   109.316478
	   55 B(14,12,24)     =    109.257054     0.000000     0.000021   109.257075
	   56 B(15,18,19)     =    108.729519     0.000000     0.000016   108.729535
	   57 B(15,18,20)     =    110.023786     0.000000    -0.000001   110.023785
	   58 B(15,18,21)     =    114.946007    -0.000000    -0.000026   114.945981
	   59 B(16,15,17)     =    105.976717     0.000000     0.000028   105.976744
	   60 B(16,15,18)     =    109.540447     0.000000     0.000038   109.540485
	   61 B(17,15,18)     =    109.912649    -0.000000    -0.000063   109.912586
	   62 B(18,21,22)     =    108.356165     0.000000    -0.000002   108.356163
	   63 B(18,21,23)     =    109.714799     0.000000     0.000011   109.714810
	   64 B(18,21,24)     =    115.384655    -0.000000    -0.000023   115.384632
	   65 B(19,18,20)     =    105.539114    -0.000000    -0.000002   105.539112
	   66 B(19,18,21)     =    108.788249     0.000000     0.000025   108.788274
	   67 B(20,18,21)     =    108.393232     0.000000    -0.000010   108.393223
	   68 B(21,24,25)     =    107.295093     0.000000    -0.000015   107.295078
	   69 B(21,24,26)     =    110.339472    -0.000000    -0.000014   110.339457
	   70 B(22,21,23)     =    106.458591    -0.000000    -0.000001   106.458589
	   71 B(22,21,24)     =    107.890871     0.000000    -0.000005   107.890866
	   72 B(23,21,24)     =    108.658017     0.000000     0.000021   108.658039
	   73 B(25,24,26)     =    105.827855    -0.000000    -0.000006   105.827849
	   74 D(1,9,15,16)    =    177.467858    -0.000000     0.000034   177.467892
	   75 D(1,9,15,17)    =     62.651493    -0.000000    -0.000006    62.651488
	   76 D(1,9,15,18)    =    -60.545729     0.000000     0.000089   -60.545640
	   77 D(2,1,9,10)     =     62.012567    -0.000000     0.000043    62.012611
	   78 D(2,1,9,11)     =    -54.050897     0.000000     0.000068   -54.050829
	   79 D(2,1,9,15)     =   -176.047550     0.000000     0.000087  -176.047464
	   80 D(3,1,9,10)     =   -178.044211    -0.000000     0.000025  -178.044186
	   81 D(3,1,9,11)     =     65.892325    -0.000000     0.000049    65.892374
	   82 D(3,1,9,15)     =    -56.104329     0.000000     0.000068   -56.104261
	   83 D(4,1,9,10)     =    -57.841783    -0.000000     0.000046   -57.841737
	   84 D(4,1,9,11)     =   -173.905247     0.000000     0.000070  -173.905177
	   85 D(4,1,9,15)     =     64.098099     0.000000     0.000089    64.098188
	   86 D(5,12,24,21)   =    -94.467824    -0.000000    -0.000138   -94.467962
	   87 D(5,12,24,25)   =    145.060475    -0.000000    -0.000120   145.060355
	   88 D(5,12,24,26)   =     29.690549    -0.000000    -0.000130    29.690419
	   89 D(6,5,12,13)    =     60.567636     0.000000     0.000165    60.567802
	   90 D(6,5,12,14)    =    176.046221    -0.000000     0.000154   176.046375
	   91 D(6,5,12,24)    =    -61.093522     0.000000     0.000182   -61.093340
	   92 D(7,5,12,13)    =    -58.955896     0.000000     0.000159   -58.955737
	   93 D(7,5,12,14)    =     56.522689    -0.000000     0.000148    56.522837
	   94 D(7,5,12,24)    =    179.382945     0.000000     0.000176   179.383121
	   95 D(8,5,12,13)    =   -179.883924     0.000000     0.000158  -179.883766
	   96 D(8,5,12,14)    =    -64.405339    -0.000000     0.000147   -64.405193
	   97 D(8,5,12,24)    =     58.454917     0.000000     0.000175    58.455092
	   98 D(9,15,18,19)   =    -25.400241     0.000000    -0.000163   -25.400404
	   99 D(9,15,18,20)   =   -140.528202     0.000000    -0.000169  -140.528372
	  100 D(9,15,18,21)   =     96.793789     0.000000    -0.000137    96.793652
	  101 D(10,9,15,16)   =    -60.289104     0.000000     0.000081   -60.289023
	  102 D(10,9,15,17)   =   -175.105469    -0.000000     0.000042  -175.105427
	  103 D(10,9,15,18)   =     61.697308     0.000000     0.000137    61.697445
	  104 D(11,9,15,16)   =     55.266609    -0.000000     0.000063    55.266672
	  105 D(11,9,15,17)   =    -59.549755    -0.000000     0.000023   -59.549732
	  106 D(11,9,15,18)   =    177.253022     0.000000     0.000118   177.253141
	  107 D(12,24,21,18)  =     57.068490     0.000000    -0.000095    57.068394
	  108 D(12,24,21,22)  =    -64.228136     0.000000    -0.000073   -64.228209
	  109 D(12,24,21,23)  =   -179.267252     0.000000    -0.000080  -179.267333
	  110 D(13,12,24,21)  =    144.475821    -0.000000    -0.000122   144.475698
	  111 D(13,12,24,25)  =     24.004120    -0.000000    -0.000104    24.004016
	  112 D(13,12,24,26)  =    -91.365807    -0.000000    -0.000114   -91.365921
	  113 D(14,12,24,21)  =     28.778350    -0.000000    -0.000119    28.778231
	  114 D(14,12,24,25)  =    -91.693351    -0.000000    -0.000100   -91.693451
	  115 D(14,12,24,26)  =    152.936722    -0.000000    -0.000110   152.936612
	  116 D(15,18,21,22)  =   -173.944200    -0.000000     0.000033  -173.944167
	  117 D(15,18,21,23)  =    -58.095312    -0.000000     0.000036   -58.095275
	  118 D(15,18,21,24)  =     65.010932     0.000000     0.000057    65.010988
	  119 D(16,15,18,19)  =     95.794006     0.000000    -0.000118    95.793888
	  120 D(16,15,18,20)  =    -19.333956     0.000000    -0.000123   -19.334079
	  121 D(16,15,18,21)  =   -142.011964     0.000000    -0.000091  -142.012055
	  122 D(17,15,18,19)  =   -148.152770     0.000000    -0.000098  -148.152868
	  123 D(17,15,18,20)  =     96.719269     0.000000    -0.000104    96.719165
	  124 D(17,15,18,21)  =    -25.958740     0.000000    -0.000071   -25.958811
	  125 D(18,21,24,25)  =    178.736707     0.000000    -0.000106   178.736601
	  126 D(18,21,24,26)  =    -66.423450     0.000000    -0.000129   -66.423579
	  127 D(19,18,21,22)  =    -51.781871     0.000000     0.000055   -51.781816
	  128 D(19,18,21,23)  =     64.067017     0.000000     0.000058    64.067075
	  129 D(19,18,21,24)  =   -172.826739     0.000000     0.000078  -172.826661
	  130 D(20,18,21,22)  =     62.506750     0.000000     0.000060    62.506811
	  131 D(20,18,21,23)  =    178.355638     0.000000     0.000064   178.355702
	  132 D(20,18,21,24)  =    -58.538118     0.000000     0.000084   -58.538034
	  133 D(22,21,24,25)  =     57.440082     0.000000    -0.000084    57.439998
	  134 D(22,21,24,26)  =    172.279925    -0.000000    -0.000107   172.279818
	  135 D(23,21,24,25)  =    -57.599035     0.000000    -0.000091   -57.599126
	  136 D(23,21,24,26)  =     57.240808    -0.000000    -0.000114    57.240695
	  137 R(1,21)         =      3.422638    -0.000001    -0.000002     3.422636
	  138 R(5,15)         =      3.602778    -0.000001     0.000000     3.602778
	  139 R(5,18)         =      3.388228     0.000000     0.000001     3.388230
	 ---------------------------------------------------------------------------

  ==> Convergence Check <==

  Measures of convergence in internal coordinates in au.
  Criteria marked as inactive (o), active & met (*), and active & unmet ( ).
  ---------------------------------------------------------------------------------------------
   Step     Total Energy     Delta E     MAX Force     RMS Force      MAX Disp      RMS Disp   
  ---------------------------------------------------------------------------------------------
    Convergence Criteria             o    2.00e-06 *    1.00e-06 *    6.00e-06 *    4.00e-06 *
  ---------------------------------------------------------------------------------------------
     23    -314.97712500    1.65e-09 o    6.66e-07 *    1.79e-07 *    4.14e-06 *    1.34e-06 *  ~
  ---------------------------------------------------------------------------------------------


  **** Optimization is complete! (in 23 steps) ****

  ==> Optimization Summary <==

  Measures of convergence in internal coordinates in au.
  --------------------------------------------------------------------------------------------------------------- ~
   Step         Total Energy             Delta E       MAX Force       RMS Force        MAX Disp        RMS Disp  ~
  --------------------------------------------------------------------------------------------------------------- ~
      1    -314.977125001125   -314.977125001125      0.00000107      0.00000027      0.00003502      0.00001478  ~
      2    -314.977125004187     -0.000000003061      0.00000239      0.00000068      0.00003775      0.00001331  ~
      3    -314.977125008406     -0.000000004220      0.00000146      0.00000037      0.00013647      0.00004060  ~
      4    -314.977125007176      0.000000001230      0.00000280      0.00000063      0.00014083      0.00004204  ~
      5    -314.977125000970      0.000000006207      0.00000173      0.00000039      0.00003226      0.00001174  ~
      6    -314.977125003565     -0.000000002596      0.00000226      0.00000054      0.00011582      0.00003621  ~
      7    -314.977125005679     -0.000000002114      0.00000285      0.00000067      0.00011101      0.00003502  ~
      8    -314.977125006742     -0.000000001063      0.00000132      0.00000035      0.00004367      0.00001281  ~
      9    -314.977125007183     -0.000000000440      0.00000179      0.00000044      0.00005128      0.00001561  ~
     10    -314.977125005397      0.000000001785      0.00000207      0.00000050      0.00043995      0.00013032  ~
     11    -314.977124998587      0.000000006811      0.00000483      0.00000124      0.00043606      0.00012889  ~
     12    -314.977125004353     -0.000000005766      0.00000183      0.00000051      0.00004014      0.00001249  ~
     13    -314.977125007005     -0.000000002652      0.00000042      0.00000011      0.00002314      0.00000812  ~
     14    -314.977125006731      0.000000000274      0.00000131      0.00000027      0.00001433      0.00000414  ~
     15    -314.977125004813      0.000000001919      0.00000089      0.00000021      0.00000622      0.00000255  ~
     16    -314.977125004963     -0.000000000150      0.00000189      0.00000045      0.00006719      0.00002124  ~
     17    -314.977125001904      0.000000003059      0.00000240      0.00000067      0.00006208      0.00002014  ~
     18    -314.977125007966     -0.000000006062      0.00000062      0.00000018      0.00001139      0.00000417  ~
     19    -314.977125006010      0.000000001956      0.00000084      0.00000014      0.00000795      0.00000254  ~
     20    -314.977125004018      0.000000001992      0.00000044      0.00000010      0.00000635      0.00000222  ~
     21    -314.977125006053     -0.000000002035      0.00000095      0.00000028      0.00003046      0.00001082  ~
     22    -314.977125006435     -0.000000000382      0.00000264      0.00000042      0.00002763      0.00000967  ~
     23    -314.977125004781      0.000000001654      0.00000067      0.00000018      0.00000414      0.00000134  ~
  --------------------------------------------------------------------------------------------------------------- ~

	Writing optimization data to binary file.
	Final energy is   -314.9771250047810
	Final (previous) structure:
	Cartesian Geometry (in Angstrom)
	    C    -2.9783653311  -0.6057971942  -0.4553577437
	    H    -4.0631203865  -0.6574903212  -0.5485086044
	    H    -2.5447412860  -0.8966706681  -1.4136450463
	    H    -2.6764560459  -1.3444976335   0.2866080469
	    C     2.5657873801   1.2461942880  -0.3064575462
	    H     2.5760117270   1.4118285620  -1.3847651284
	    H     3.4257043490   1.7645808207   0.1184333190
	    H     1.6643903510   1.7128533224   0.0872121242
	    C    -2.5307695209   0.7967113483  -0.0594644219
	    H    -2.9512712506   1.0473782661   0.9184408200
	    H    -2.9434507058   1.5188608570  -0.7679445639
	    C     2.6142663763  -0.2491571604  -0.0024164299
	    H     3.5385861874  -0.6528737285  -0.4202014605
	    H     2.6747462281  -0.4087980223   1.0781277700
	    C    -1.0137576755   0.9743859436  -0.0015205707
	    H    -0.8031529210   2.0178220029   0.2447117019
	    H    -0.5959340211   0.8101893214  -0.9986866980
	    C    -0.3182518026   0.0560939795   1.0149324748
	    H    -1.0362810130  -0.2099365282   1.7971391039
	    H     0.4808562628   0.5990667763   1.5237841993
	    C     0.2692098323  -1.2289509463   0.4274706894
	    H     0.6378939520  -1.8474900604   1.2514977580
	    H    -0.5192768350  -1.8041363560  -0.0623761140
	    C     1.4192666428  -1.0316528845  -0.5635588919
	    H     1.7496918658  -2.0237207211  -0.8792362812
	    H     1.0597243063  -0.5348236567  -1.4691251168
	Saving final (previous) structure.
			--------------------------
			 OPTKING Finished Execution 
			--------------------------

    Final optimized geometry and variables:
    Molecular point group: c1
    Full point group: C1

    Geometry (in Angstrom), charge = 0, multiplicity = 1:

    C           -2.978365331094    -0.605797194190    -0.455357743668
    H           -4.063120386512    -0.657490321213    -0.548508604356
    H           -2.544741286022    -0.896670668057    -1.413645046341
    H           -2.676456045915    -1.344497633453     0.286608046920
    C            2.565787380084     1.246194287962    -0.306457546173
    H            2.576011727005     1.411828561974    -1.384765128418
    H            3.425704348976     1.764580820668     0.118433318962
    H            1.664390350953     1.712853322426     0.087212124193
    C           -2.530769520879     0.796711348278    -0.059464421882
    H           -2.951271250571     1.047378266105     0.918440819984
    H           -2.943450705826     1.518860856969    -0.767944563926
    C            2.614266376309    -0.249157160420    -0.002416429877
    H            3.538586187385    -0.652873728453    -0.420201460544
    H            2.674746228108    -0.408798022266     1.078127770032
    C           -1.013757675517     0.974385943626    -0.001520570680
    H           -0.803152921024     2.017822002949     0.244711701947
    H           -0.595934021140     0.810189321430    -0.998686698013
    C           -0.318251802593     0.056093979535     1.014932474771
    H           -1.036281012975    -0.209936528222     1.797139103871
    H            0.480856262849     0.599066776256     1.523784199278
    C            0.269209832292    -1.228950946307     0.427470689426
    H            0.637893951975    -1.847490060357     1.251497758005
    H           -0.519276835042    -1.804136355990    -0.062376113977
    C            1.419266642751    -1.031652884489    -0.563558891855
    H            1.749691865774    -2.023720721094    -0.879236281158
    H            1.059724306253    -0.534823656685    -1.469125116844

	Cleaning optimization helper files.

*** Psi4 exiting successfully. Buy a developer a beer!
