    -----------------------------------------------------------------------
          Psi4: An Open-Source Ab Initio Electronic Structure Package
                              Psi4 1.0.0 Driver

                          Git: Rev {master} 6a9a71b dirty

    J. M. Turney, A. C. Simmonett, R. M. Parrish, E. G. Hohenstein,
    F. A. Evangelista, J. T. Fermann, B. J. Mintz, L. A. Burns, J. J. Wilke,
    M. L. Abrams, N. J. Russ, M. L. Leininger, C. L. Janssen, E. T. Seidl,
    W. D. Allen, H. F. Schaefer, R. A. King, E. F. Valeev, C. D. Sherrill,
    and T. D. Crawford, WIREs Comput. Mol. Sci. 2, 556-565 (2012)
    (doi: 10.1002/wcms.93)

                         Additional Contributions by
    A. E. DePrince, U. Bozkaya, A. Yu. Sokolov, D. G. A. Smith, R. Di Remigio,
    R. M. Richard, J. F. Gonthier, H. R. McAlexander, M. Saitow, and
    B. P. Pritchard
    -----------------------------------------------------------------------


    Psi4 started on: Tue Sep 20 22:40:02 2016

    Process ID:  24464
    PSI4DATADIR: /usr/local/hpc5/psi4conda/share/psi4
    Memory level set to 256.000 MB

  ==> Input File <==

--------------------------------------------------------------------------
memory 60 Gb

molecule molecule_19_psi {
0 1
C            3.658296865830     0.147256076630    -0.176561675764
H            3.914213893965    -0.455606895044     0.696400195923
H            4.528191696900     0.752148422438    -0.431470111145
H            3.474907416429    -0.531219790105    -1.008544105327
C           -3.482549900646     1.061980884523    -0.014085027358
H           -3.848591367701     1.782853570870    -0.744759119147
H           -3.262105103908     1.601712187759     0.907956998742
H           -4.289063393909     0.359165643990     0.198450385406
C            2.445187821967     1.024352710282     0.114751868475
H            2.181320660633     1.596026586735    -0.779586247844
H            2.709972974408     1.755558165662     0.881764091366
C           -2.244841900058     0.328695276388    -0.516720505401
H           -2.476137536947    -0.195451825105    -1.448686136046
H           -1.465360136019     1.055835786495    -0.755884281920
C            1.221835252680     0.237176535867     0.581278835273
H            0.447135379491     0.943066957383     0.890652300951
H            1.484302025522    -0.345404159875     1.471404791591
C            0.657089308699    -0.698229921050    -0.481796409676
H            1.432489107012    -1.394772925048    -0.807638812393
H            0.383302856668    -0.111454120088    -1.363583307742
C           -0.545772386120    -1.510921958213    -0.001342979975
H           -0.893973609594    -2.145891862499    -0.821199168714
H           -0.219525254242    -2.185227231531     0.795828491998
C           -1.720103270692    -0.673769951140     0.504124596410
H           -2.534816986832    -1.346487681739     0.787850856526
H           -1.436975795350    -0.141102780102     1.416157736240
}

set globals {
  reference rhf
  g_convergence gau_verytight
  basis aug-cc-pvtz
  freeze_core true
  scf_type df
  mp_type df
}
optimize('mp2')
--------------------------------------------------------------------------
/usr/local/hpc5/psi4conda/lib/python2.7/site-packages/v2rdm_casscf/v2rdm_casscf.so loaded.

  Memory set to  60.000 GiB by Python script.
gradient() will perform analytic gradient computation.

*** tstart() called on wr33
*** at Tue Sep 20 22:40:03 2016


         ---------------------------------------------------------
                                   SCF
            by Justin Turney, Rob Parrish, and Andy Simmonett
                              RHF Reference
                       12 Threads,  60000 MiB Core
         ---------------------------------------------------------

  ==> Geometry <==

    Molecular point group: c1
    Full point group: C1

    Geometry (in Angstrom), charge = 0, multiplicity = 1:

       Center              X                  Y                   Z               Mass       
    ------------   -----------------  -----------------  -----------------  -----------------
           C          3.658296865830     0.147256076630    -0.176561675764    12.000000000000
           H          3.914213893965    -0.455606895044     0.696400195923     1.007825032070
           H          4.528191696900     0.752148422438    -0.431470111145     1.007825032070
           H          3.474907416429    -0.531219790105    -1.008544105327     1.007825032070
           C         -3.482549900646     1.061980884523    -0.014085027358    12.000000000000
           H         -3.848591367701     1.782853570870    -0.744759119147     1.007825032070
           H         -3.262105103908     1.601712187759     0.907956998742     1.007825032070
           H         -4.289063393909     0.359165643990     0.198450385406     1.007825032070
           C          2.445187821967     1.024352710282     0.114751868475    12.000000000000
           H          2.181320660633     1.596026586735    -0.779586247844     1.007825032070
           H          2.709972974408     1.755558165662     0.881764091366     1.007825032070
           C         -2.244841900058     0.328695276388    -0.516720505401    12.000000000000
           H         -2.476137536947    -0.195451825105    -1.448686136046     1.007825032070
           H         -1.465360136019     1.055835786495    -0.755884281920     1.007825032070
           C          1.221835252680     0.237176535867     0.581278835273    12.000000000000
           H          0.447135379491     0.943066957383     0.890652300951     1.007825032070
           H          1.484302025522    -0.345404159875     1.471404791591     1.007825032070
           C          0.657089308699    -0.698229921050    -0.481796409676    12.000000000000
           H          1.432489107012    -1.394772925048    -0.807638812393     1.007825032070
           H          0.383302856668    -0.111454120088    -1.363583307742     1.007825032070
           C         -0.545772386120    -1.510921958213    -0.001342979975    12.000000000000
           H         -0.893973609594    -2.145891862499    -0.821199168714     1.007825032070
           H         -0.219525254242    -2.185227231531     0.795828491998     1.007825032070
           C         -1.720103270692    -0.673769951140     0.504124596410    12.000000000000
           H         -2.534816986832    -1.346487681739     0.787850856526     1.007825032070
           H         -1.436975795350    -0.141102780102     1.416157736240     1.007825032070

  Running in c1 symmetry.

  Rotational constants: A =      0.13438  B =      0.02562  C =      0.02332 [cm^-1]
  Rotational constants: A =   4028.49812  B =    768.15749  C =    699.22072 [MHz]
  Nuclear repulsion =  394.676974612178014

  Charge       = 0
  Multiplicity = 1
  Electrons    = 66
  Nalpha       = 33
  Nbeta        = 33

  ==> Algorithm <==

  SCF Algorithm Type is DF.
  DIIS enabled.
  MOM disabled.
  Fractional occupation disabled.
  Guess Type is SAD.
  Energy threshold   = 1.00e-10
  Density threshold  = 1.00e-10
  Integral threshold = 0.00e+00

  ==> Primary Basis <==

  Basis Set: AUG-CC-PVTZ
    Number of shells: 274
    Number of basis function: 782
    Number of Cartesian functions: 890
    Spherical Harmonics?: true
    Max angular momentum: 3

  ==> Pre-Iterations <==

   -------------------------------------------------------
    Irrep   Nso     Nmo     Nalpha   Nbeta   Ndocc  Nsocc
   -------------------------------------------------------
     A        782     782       0       0       0       0
   -------------------------------------------------------
    Total     782     782      33      33      33       0
   -------------------------------------------------------

  ==> Integral Setup <==

  ==> DFJK: Density-Fitted J/K Matrices <==

    J tasked:                  Yes
    K tasked:                  Yes
    wK tasked:                  No
    OpenMP threads:             12
    Integrals threads:          12
    Memory (MB):             42915
    Algorithm:                Core
    Integral Cache:           NONE
    Schwarz Cutoff:          1E-12
    Fitting Condition:       1E-12

   => Auxiliary Basis Set <=

  Basis Set: 
    Number of shells: 492
    Number of basis function: 1660
    Number of Cartesian functions: 2038
    Spherical Harmonics?: true
    Max angular momentum: 4

  Minimum eigenvalue in the overlap matrix is 2.3134522443E-06.
  Using Symmetric Orthogonalization.
  SCF Guess: Superposition of Atomic Densities via on-the-fly atomic UHF.

  ==> Iterations <==

                           Total Energy        Delta E     RMS |[F,P]|

   @DF-RHF iter   0:  -316.97668613365738   -3.16977e+02   7.04706e-03 
   @DF-RHF iter   1:  -313.31254853137477    3.66414e+00   6.59549e-04 
   @DF-RHF iter   2:  -313.51110962912605   -1.98561e-01   2.36636e-04 DIIS
   @DF-RHF iter   3:  -313.53651030884464   -2.54007e-02   1.02838e-04 DIIS
   @DF-RHF iter   4:  -313.54148403179374   -4.97372e-03   1.39276e-05 DIIS
   @DF-RHF iter   5:  -313.54161131734043   -1.27286e-04   4.15232e-06 DIIS
   @DF-RHF iter   6:  -313.54162011896994   -8.80163e-06   9.58453e-07 DIIS
   @DF-RHF iter   7:  -313.54162058505892   -4.66089e-07   1.94653e-07 DIIS
   @DF-RHF iter   8:  -313.54162060754254   -2.24836e-08   4.58912e-08 DIIS
   @DF-RHF iter   9:  -313.54162060865031   -1.10776e-09   1.33563e-08 DIIS
   @DF-RHF iter  10:  -313.54162060874523   -9.49285e-11   3.57848e-09 DIIS
   @DF-RHF iter  11:  -313.54162060875444   -9.20863e-12   8.37313e-10 DIIS
   @DF-RHF iter  12:  -313.54162060875558   -1.13687e-12   2.55206e-10 DIIS
   @DF-RHF iter  13:  -313.54162060875456    1.02318e-12   6.83126e-11 DIIS

  ==> Post-Iterations <==

    Orbital Energies (a.u.)
    -----------------------

    Doubly Occupied:                                                      

       1A    -11.213101     2A    -11.212177     3A    -11.210739  
       4A    -11.210089     5A    -11.209256     6A    -11.208728  
       7A    -11.207179     8A    -11.206530     9A     -1.095210  
      10A     -1.059428    11A     -1.008815    12A     -0.944916  
      13A     -0.887867    14A     -0.830065    15A     -0.791199  
      16A     -0.751231    17A     -0.647243    18A     -0.627434  
      19A     -0.610979    20A     -0.593202    21A     -0.580772  
      22A     -0.562715    23A     -0.546062    24A     -0.533505  
      25A     -0.507854    26A     -0.499965    27A     -0.491763  
      28A     -0.473707    29A     -0.467465    30A     -0.462460  
      31A     -0.443707    32A     -0.439867    33A     -0.434189  

    Virtual:                                                              

      34A      0.030383    35A      0.033338    36A      0.033497  
      37A      0.034880    38A      0.046766    39A      0.048029  
      40A      0.050726    41A      0.053239    42A      0.055792  
      43A      0.064272    44A      0.068133    45A      0.069601  
      46A      0.074753    47A      0.077608    48A      0.082703  
      49A      0.090120    50A      0.096735    51A      0.103447  
      52A      0.113530    53A      0.114799    54A      0.115274  
      55A      0.124802    56A      0.127922    57A      0.130688  
      58A      0.132332    59A      0.141285    60A      0.142988  
      61A      0.146927    62A      0.149424    63A      0.152302  
      64A      0.153644    65A      0.155462    66A      0.159499  
      67A      0.161790    68A      0.166211    69A      0.170751  
      70A      0.175607    71A      0.180287    72A      0.180530  
      73A      0.184862    74A      0.189885    75A      0.192638  
      76A      0.196758    77A      0.215115    78A      0.227294  
      79A      0.232258    80A      0.237115    81A      0.242913  
      82A      0.249379    83A      0.250737    84A      0.257991  
      85A      0.261624    86A      0.268827    87A      0.279678  
      88A      0.284085    89A      0.287389    90A      0.292273  
      91A      0.296340    92A      0.303838    93A      0.307595  
      94A      0.312831    95A      0.314869    96A      0.322238  
      97A      0.322810    98A      0.328973    99A      0.330982  
     100A      0.335826   101A      0.340190   102A      0.344768  
     103A      0.346992   104A      0.349981   105A      0.352073  
     106A      0.358719   107A      0.361892   108A      0.366474  
     109A      0.369113   110A      0.373585   111A      0.375308  
     112A      0.376955   113A      0.378365   114A      0.386053  
     115A      0.388291   116A      0.391896   117A      0.398122  
     118A      0.400916   119A      0.404110   120A      0.406800  
     121A      0.411906   122A      0.415375   123A      0.424373  
     124A      0.428235   125A      0.433681   126A      0.437020  
     127A      0.441567   128A      0.444826   129A      0.448413  
     130A      0.452231   131A      0.454836   132A      0.458506  
     133A      0.462725   134A      0.468306   135A      0.471408  
     136A      0.472157   137A      0.476068   138A      0.480907  
     139A      0.486220   140A      0.489075   141A      0.492817  
     142A      0.494336   143A      0.499010   144A      0.502131  
     145A      0.504722   146A      0.510480   147A      0.513314  
     148A      0.518932   149A      0.521878   150A      0.525221  
     151A      0.527818   152A      0.536301   153A      0.539120  
     154A      0.540760   155A      0.543678   156A      0.547660  
     157A      0.551063   158A      0.554507   159A      0.563035  
     160A      0.566156   161A      0.568297   162A      0.579303  
     163A      0.579695   164A      0.586285   165A      0.593925  
     166A      0.595954   167A      0.602094   168A      0.607543  
     169A      0.612097   170A      0.614554   171A      0.622343  
     172A      0.626605   173A      0.630593   174A      0.632367  
     175A      0.637193   176A      0.640021   177A      0.646988  
     178A      0.654432   179A      0.654902   180A      0.664721  
     181A      0.666384   182A      0.678508   183A      0.681692  
     184A      0.684977   185A      0.686840   186A      0.693495  
     187A      0.700061   188A      0.709828   189A      0.714560  
     190A      0.721888   191A      0.726481   192A      0.729533  
     193A      0.739506   194A      0.744724   195A      0.747945  
     196A      0.749941   197A      0.762763   198A      0.777727  
     199A      0.781910   200A      0.784784   201A      0.797493  
     202A      0.801774   203A      0.814719   204A      0.826078  
     205A      0.833665   206A      0.836722   207A      0.842590  
     208A      0.846514   209A      0.853775   210A      0.856362  
     211A      0.868465   212A      0.870181   213A      0.880648  
     214A      0.882080   215A      0.890900   216A      0.895224  
     217A      0.898152   218A      0.902885   219A      0.907617  
     220A      0.916766   221A      0.919782   222A      0.922692  
     223A      0.923609   224A      0.930600   225A      0.932131  
     226A      0.939091   227A      0.940963   228A      0.949492  
     229A      0.953483   230A      0.956785   231A      0.963784  
     232A      0.970715   233A      0.973703   234A      0.979409  
     235A      0.985689   236A      0.993477   237A      0.997424  
     238A      0.998421   239A      1.001442   240A      1.006427  
     241A      1.007517   242A      1.016616   243A      1.020790  
     244A      1.024721   245A      1.031604   246A      1.034336  
     247A      1.040115   248A      1.047647   249A      1.052538  
     250A      1.058000   251A      1.064350   252A      1.072003  
     253A      1.080427   254A      1.083341   255A      1.087305  
     256A      1.091892   257A      1.092885   258A      1.104742  
     259A      1.105360   260A      1.106621   261A      1.114058  
     262A      1.120315   263A      1.122635   264A      1.133368  
     265A      1.138982   266A      1.143507   267A      1.146827  
     268A      1.151807   269A      1.153276   270A      1.164741  
     271A      1.170341   272A      1.175405   273A      1.180117  
     274A      1.184762   275A      1.195553   276A      1.200624  
     277A      1.204802   278A      1.208886   279A      1.210050  
     280A      1.216036   281A      1.221295   282A      1.226106  
     283A      1.234312   284A      1.239973   285A      1.243756  
     286A      1.250920   287A      1.254366   288A      1.264139  
     289A      1.266844   290A      1.276676   291A      1.279108  
     292A      1.282062   293A      1.285069   294A      1.294533  
     295A      1.299433   296A      1.309149   297A      1.319914  
     298A      1.322440   299A      1.326018   300A      1.332470  
     301A      1.336368   302A      1.343002   303A      1.346793  
     304A      1.356183   305A      1.360028   306A      1.368770  
     307A      1.374291   308A      1.376211   309A      1.384482  
     310A      1.394146   311A      1.397495   312A      1.409562  
     313A      1.424784   314A      1.430043   315A      1.435662  
     316A      1.450596   317A      1.452588   318A      1.461311  
     319A      1.463256   320A      1.473092   321A      1.475896  
     322A      1.490944   323A      1.501221   324A      1.505497  
     325A      1.507978   326A      1.513192   327A      1.520162  
     328A      1.525999   329A      1.542677   330A      1.546155  
     331A      1.555089   332A      1.555847   333A      1.573284  
     334A      1.573913   335A      1.580204   336A      1.584417  
     337A      1.592550   338A      1.600136   339A      1.605632  
     340A      1.620042   341A      1.625763   342A      1.631728  
     343A      1.638096   344A      1.650409   345A      1.654503  
     346A      1.662051   347A      1.664182   348A      1.676351  
     349A      1.682731   350A      1.688535   351A      1.692800  
     352A      1.694947   353A      1.696229   354A      1.702574  
     355A      1.709774   356A      1.711408   357A      1.721322  
     358A      1.728291   359A      1.731742   360A      1.735551  
     361A      1.746131   362A      1.749091   363A      1.757457  
     364A      1.759460   365A      1.771595   366A      1.778060  
     367A      1.781173   368A      1.791056   369A      1.792751  
     370A      1.806440   371A      1.814998   372A      1.822625  
     373A      1.827581   374A      1.828419   375A      1.835544  
     376A      1.839248   377A      1.849045   378A      1.851891  
     379A      1.862833   380A      1.865256   381A      1.868073  
     382A      1.873943   383A      1.884519   384A      1.892426  
     385A      1.896818   386A      1.898123   387A      1.906032  
     388A      1.910140   389A      1.914715   390A      1.925629  
     391A      1.930915   392A      1.933963   393A      1.943091  
     394A      1.952944   395A      1.964179   396A      1.971788  
     397A      1.974601   398A      1.987018   399A      1.994366  
     400A      2.001168   401A      2.002438   402A      2.011178  
     403A      2.016806   404A      2.026011   405A      2.031550  
     406A      2.041980   407A      2.045847   408A      2.052246  
     409A      2.062362   410A      2.068257   411A      2.076853  
     412A      2.080351   413A      2.093126   414A      2.094666  
     415A      2.099163   416A      2.110080   417A      2.111420  
     418A      2.119416   419A      2.133636   420A      2.149684  
     421A      2.152542   422A      2.158256   423A      2.159736  
     424A      2.173634   425A      2.181828   426A      2.193809  
     427A      2.198779   428A      2.204879   429A      2.208733  
     430A      2.230638   431A      2.234930   432A      2.239713  
     433A      2.255028   434A      2.263419   435A      2.271686  
     436A      2.276388   437A      2.286210   438A      2.292297  
     439A      2.302230   440A      2.308978   441A      2.319740  
     442A      2.329756   443A      2.341426   444A      2.355520  
     445A      2.363734   446A      2.364682   447A      2.369661  
     448A      2.380286   449A      2.384166   450A      2.400480  
     451A      2.403707   452A      2.412718   453A      2.422758  
     454A      2.429907   455A      2.449353   456A      2.459152  
     457A      2.465116   458A      2.467583   459A      2.478280  
     460A      2.489782   461A      2.500926   462A      2.516234  
     463A      2.517261   464A      2.544316   465A      2.557388  
     466A      2.565275   467A      2.572378   468A      2.583152  
     469A      2.593811   470A      2.616600   471A      2.624465  
     472A      2.637724   473A      2.662505   474A      2.680666  
     475A      2.693681   476A      2.705920   477A      2.725569  
     478A      2.731156   479A      2.739860   480A      2.749810  
     481A      2.759457   482A      2.781272   483A      2.822309  
     484A      2.883288   485A      2.908919   486A      2.917839  
     487A      2.996131   488A      3.014489   489A      3.045985  
     490A      3.095571   491A      3.160813   492A      3.223337  
     493A      3.272765   494A      3.297953   495A      3.336944  
     496A      3.406542   497A      3.431240   498A      3.444583  
     499A      3.455753   500A      3.472207   501A      3.484270  
     502A      3.495258   503A      3.507167   504A      3.519106  
     505A      3.534777   506A      3.550662   507A      3.557502  
     508A      3.573352   509A      3.583018   510A      3.593968  
     511A      3.605068   512A      3.608534   513A      3.622781  
     514A      3.625418   515A      3.635186   516A      3.648587  
     517A      3.652992   518A      3.674856   519A      3.675894  
     520A      3.691337   521A      3.699861   522A      3.711828  
     523A      3.718144   524A      3.728889   525A      3.740212  
     526A      3.750013   527A      3.758413   528A      3.773522  
     529A      3.774911   530A      3.781589   531A      3.786648  
     532A      3.797426   533A      3.806287   534A      3.821947  
     535A      3.823874   536A      3.838773   537A      3.844833  
     538A      3.848890   539A      3.859122   540A      3.870124  
     541A      3.887435   542A      3.888369   543A      3.896669  
     544A      3.900836   545A      3.915880   546A      3.923425  
     547A      3.930793   548A      3.939537   549A      3.950419  
     550A      3.961113   551A      3.962884   552A      3.971525  
     553A      3.976967   554A      3.989201   555A      3.992011  
     556A      3.997667   557A      4.000070   558A      4.003842  
     559A      4.021579   560A      4.022963   561A      4.031620  
     562A      4.038701   563A      4.040004   564A      4.045600  
     565A      4.050293   566A      4.062435   567A      4.071216  
     568A      4.076570   569A      4.085257   570A      4.097583  
     571A      4.098434   572A      4.106390   573A      4.112611  
     574A      4.120908   575A      4.134496   576A      4.143514  
     577A      4.151701   578A      4.162337   579A      4.171690  
     580A      4.183162   581A      4.185127   582A      4.193161  
     583A      4.203514   584A      4.217236   585A      4.220340  
     586A      4.231830   587A      4.238301   588A      4.254763  
     589A      4.259377   590A      4.276202   591A      4.288359  
     592A      4.294239   593A      4.302239   594A      4.310885  
     595A      4.316432   596A      4.325039   597A      4.327117  
     598A      4.347975   599A      4.362862   600A      4.367439  
     601A      4.378285   602A      4.383401   603A      4.393845  
     604A      4.401897   605A      4.421463   606A      4.430149  
     607A      4.435359   608A      4.453668   609A      4.478124  
     610A      4.497617   611A      4.500870   612A      4.518727  
     613A      4.526948   614A      4.539283   615A      4.549250  
     616A      4.561292   617A      4.590901   618A      4.597554  
     619A      4.599964   620A      4.625731   621A      4.645118  
     622A      4.651848   623A      4.668022   624A      4.679205  
     625A      4.681537   626A      4.694280   627A      4.703152  
     628A      4.720698   629A      4.728904   630A      4.734824  
     631A      4.740903   632A      4.751221   633A      4.761195  
     634A      4.771633   635A      4.785748   636A      4.790043  
     637A      4.802542   638A      4.815424   639A      4.820829  
     640A      4.830692   641A      4.848020   642A      4.858469  
     643A      4.862354   644A      4.863577   645A      4.872519  
     646A      4.882919   647A      4.903191   648A      4.913749  
     649A      4.918032   650A      4.922193   651A      4.928035  
     652A      4.955467   653A      4.968839   654A      4.984797  
     655A      5.007063   656A      5.015641   657A      5.019570  
     658A      5.050262   659A      5.052753   660A      5.065237  
     661A      5.084884   662A      5.088304   663A      5.089791  
     664A      5.115642   665A      5.116384   666A      5.137405  
     667A      5.143189   668A      5.165623   669A      5.173449  
     670A      5.201662   671A      5.209051   672A      5.219074  
     673A      5.228246   674A      5.234088   675A      5.248799  
     676A      5.255010   677A      5.262332   678A      5.274838  
     679A      5.293051   680A      5.308624   681A      5.318403  
     682A      5.320332   683A      5.323090   684A      5.355358  
     685A      5.362433   686A      5.369752   687A      5.377579  
     688A      5.390499   689A      5.412248   690A      5.415948  
     691A      5.423576   692A      5.427502   693A      5.435211  
     694A      5.445104   695A      5.459738   696A      5.465280  
     697A      5.470974   698A      5.473657   699A      5.498771  
     700A      5.511298   701A      5.523989   702A      5.539512  
     703A      5.545013   704A      5.564519   705A      5.585611  
     706A      5.592660   707A      5.609313   708A      5.622034  
     709A      5.631134   710A      5.633927   711A      5.649648  
     712A      5.661227   713A      5.663444   714A      5.685693  
     715A      5.696039   716A      5.698793   717A      5.708547  
     718A      5.733875   719A      5.736826   720A      5.747068  
     721A      5.758939   722A      5.778437   723A      5.791321  
     724A      5.820521   725A      5.826481   726A      5.844184  
     727A      5.849794   728A      5.865073   729A      5.872228  
     730A      5.901071   731A      5.921123   732A      5.937537  
     733A      5.962429   734A      5.998475   735A      6.023110  
     736A      6.034979   737A      6.041220   738A      6.054738  
     739A      6.077696   740A      6.115405   741A      6.150621  
     742A      6.157154   743A      6.179496   744A      6.197949  
     745A      6.218222   746A      6.224072   747A      6.231979  
     748A      6.262348   749A      6.271885   750A      6.297638  
     751A      6.301984   752A      6.314911   753A      6.343856  
     754A      6.352844   755A      6.375639   756A      6.392883  
     757A      6.413839   758A      6.430869   759A      6.592154  
     760A      6.608898   761A      6.662553   762A      6.688450  
     763A      6.742873   764A      6.754621   765A      6.796201  
     766A      6.812341   767A      6.875450   768A      6.906279  
     769A      6.950582   770A      6.974942   771A      6.994068  
     772A      7.052912   773A      7.101136   774A      7.135749  
     775A     17.939472   776A     18.107006   777A     18.277108  
     778A     18.424189   779A     18.571727   780A     18.712377  
     781A     19.334974   782A     19.781384  

    Final Occupation by Irrep:
              A 
    DOCC [    33 ]

  Energy converged.

  @DF-RHF Final Energy:  -313.54162060875456

   => Energetics <=

    Nuclear Repulsion Energy =            394.6769746121780145
    One-Electron Energy =               -1204.4983484901874817
    Two-Electron Energy =                 496.2797532692549680
    DFT Exchange-Correlation Energy =       0.0000000000000000
    Empirical Dispersion Energy =           0.0000000000000000
    PCM Polarization Energy =               0.0000000000000000
    EFP Energy =                            0.0000000000000000
    Total Energy =                       -313.5416206087544992


  Saving occupied orbitals to File 180.

*** tstop() called on wr33 at Tue Sep 20 22:41:39 2016
Module time:
	user time   =    1021.55 seconds =      17.03 minutes
	system time =      11.90 seconds =       0.20 minutes
	total time  =         96 seconds =       1.60 minutes
Total time:
	user time   =    1021.55 seconds =      17.03 minutes
	system time =      11.90 seconds =       0.20 minutes
	total time  =         96 seconds =       1.60 minutes


Properties will be evaluated at   0.000000,   0.000000,   0.000000 Bohr

Properties computed using the SCF density matrix

  Nuclear Dipole Moment: (a.u.)
     X:     0.1212      Y:     0.9316      Z:    -0.1077

  Electronic Dipole Moment: (a.u.)
     X:    -0.1139      Y:    -0.9285      Z:     0.0974

  Dipole Moment: (a.u.)
     X:     0.0073      Y:     0.0031      Z:    -0.0103     Total:     0.0130

  Dipole Moment: (Debye)
     X:     0.0186      Y:     0.0079      Z:    -0.0262     Total:     0.0331


  //>>>>>>>>>>>>>>>>>>>>>>>>>>>>>>>>>>>//
  //               DFMP2               //
  //<<<<<<<<<<<<<<<<<<<<<<<<<<<<<<<<<<<//


*** tstart() called on wr33
*** at Tue Sep 20 22:41:39 2016


*** tstop() called on wr33 at Tue Sep 20 22:41:39 2016
Module time:
	user time   =       4.04 seconds =       0.07 minutes
	system time =       0.14 seconds =       0.00 minutes
	total time  =          0 seconds =       0.00 minutes
Total time:
	user time   =    1025.75 seconds =      17.10 minutes
	system time =      12.05 seconds =       0.20 minutes
	total time  =         96 seconds =       1.60 minutes
	 --------------------------------------------------------
	                          DF-MP2                         
	      2nd-Order Density-Fitted Moller-Plesset Theory     
	              RMP2 Wavefunction,  12 Threads             
	                                                         
	        Rob Parrish, Justin Turney, Andy Simmonett,      
	           Ed Hohenstein, and C. David Sherrill          
	 --------------------------------------------------------

   => Auxiliary Basis Set <=

  Basis Set: 
    Number of shells: 476
    Number of basis function: 1676
    Number of Cartesian functions: 2078
    Spherical Harmonics?: true
    Max angular momentum: 4

	 --------------------------------------------------------
	                 NBF =   782, NAUX =  1676
	 --------------------------------------------------------
	   CLASS    FOCC     OCC    AOCC    AVIR     VIR    FVIR
	   PAIRS       8      33      25     749     749       0
	 --------------------------------------------------------

DGAS Warning! /src/lib/libfock/apps.cc:80 is not currently checking restricted

         ------------------------------------------------------------
                                     CPHF                           
                                  Rob Parrish                       
         ------------------------------------------------------------

  ==> Geometry <==

    Molecular point group: c1
    Full point group: C1

    Geometry (in Angstrom), charge = 0, multiplicity = 1:

       Center              X                  Y                   Z               Mass       
    ------------   -----------------  -----------------  -----------------  -----------------
           C          3.658296865830     0.147256076630    -0.176561675764    12.000000000000
           H          3.914213893965    -0.455606895044     0.696400195923     1.007825032070
           H          4.528191696900     0.752148422438    -0.431470111145     1.007825032070
           H          3.474907416429    -0.531219790105    -1.008544105327     1.007825032070
           C         -3.482549900646     1.061980884523    -0.014085027358    12.000000000000
           H         -3.848591367701     1.782853570870    -0.744759119147     1.007825032070
           H         -3.262105103908     1.601712187759     0.907956998742     1.007825032070
           H         -4.289063393909     0.359165643990     0.198450385406     1.007825032070
           C          2.445187821967     1.024352710282     0.114751868475    12.000000000000
           H          2.181320660633     1.596026586735    -0.779586247844     1.007825032070
           H          2.709972974408     1.755558165662     0.881764091366     1.007825032070
           C         -2.244841900058     0.328695276388    -0.516720505401    12.000000000000
           H         -2.476137536947    -0.195451825105    -1.448686136046     1.007825032070
           H         -1.465360136019     1.055835786495    -0.755884281920     1.007825032070
           C          1.221835252680     0.237176535867     0.581278835273    12.000000000000
           H          0.447135379491     0.943066957383     0.890652300951     1.007825032070
           H          1.484302025522    -0.345404159875     1.471404791591     1.007825032070
           C          0.657089308699    -0.698229921050    -0.481796409676    12.000000000000
           H          1.432489107012    -1.394772925048    -0.807638812393     1.007825032070
           H          0.383302856668    -0.111454120088    -1.363583307742     1.007825032070
           C         -0.545772386120    -1.510921958213    -0.001342979975    12.000000000000
           H         -0.893973609594    -2.145891862499    -0.821199168714     1.007825032070
           H         -0.219525254242    -2.185227231531     0.795828491998     1.007825032070
           C         -1.720103270692    -0.673769951140     0.504124596410    12.000000000000
           H         -2.534816986832    -1.346487681739     0.787850856526     1.007825032070
           H         -1.436975795350    -0.141102780102     1.416157736240     1.007825032070

  Nuclear repulsion =  394.676974612178014
  Reference energy  = -313.541620608754556

  ==> Basis Set <==

  Basis Set: AUG-CC-PVTZ
    Number of shells: 274
    Number of basis function: 782
    Number of Cartesian functions: 890
    Spherical Harmonics?: true
    Max angular momentum: 3

  ==> CGRSolver (by Rob Parrish) <==

   Number of roots    =         1
   Preconditioning    =    JACOBI
   Convergence cutoff =     1E-06
   Maximum iterations =       100

  ==> CPHFRHamiltonian (by Rob Parrish) <== 

  ==> DFJK: Density-Fitted J/K Matrices <==

    J tasked:                  Yes
    K tasked:                  Yes
    wK tasked:                  No
    OpenMP threads:             12
    Integrals threads:          12
    Memory (MB):             42915
    Algorithm:                Core
    Integral Cache:           NONE
    Schwarz Cutoff:          1E-12
    Fitting Condition:       1E-12

   => Auxiliary Basis Set <=

  Basis Set: 
    Number of shells: 492
    Number of basis function: 1660
    Number of Cartesian functions: 2038
    Spherical Harmonics?: true
    Max angular momentum: 4

  ==> CPHF Iterations <==

  => Iterations <=

             Iter  Converged  Remaining    Residual
  CGR           1          0          1   9.083E-02
  CGR           2          0          1   1.294E-02
  CGR           3          0          1   3.717E-03
  CGR           4          0          1   8.608E-04
  CGR           5          0          1   1.797E-04
  CGR           6          0          1   4.383E-05
  CGR           7          0          1   1.294E-05
  CGR           8          0          1   2.857E-06
  CGR           9          1          0   8.110E-07

    CGRSolver converged.

  ==> DFCorrGrad: Density-Fitted Correlated Gradients <==

    OpenMP threads:             12
    Integrals threads:          12
    Memory (MB):             42915
    Schwarz Cutoff:          0E+00
    Fitting Condition:       1E-12

   => Auxiliary Basis Set <=

  Basis Set: 
    Number of shells: 492
    Number of basis function: 1660
    Number of Cartesian functions: 2038
    Spherical Harmonics?: true
    Max angular momentum: 4

	-----------------------------------------------------------
	 ==================> DF-MP2 Energies <==================== 
	-----------------------------------------------------------
	 Reference Energy          =    -313.5416206087545561 [Eh]
	 Singles Energy            =      -0.0000000000000004 [Eh]
	 Same-Spin Energy          =      -0.3164250851881645 [Eh]
	 Opposite-Spin Energy      =      -1.1254512834530948 [Eh]
	 Correlation Energy        =      -1.4418763686412597 [Eh]
	 Total Energy              =    -314.9834969773958164 [Eh]
	-----------------------------------------------------------
	 ================> DF-SCS-MP2 Energies <================== 
	-----------------------------------------------------------
	 SCS Same-Spin Scale       =       0.3333333333333333 [-]
	 SCS Opposite-Spin Scale   =       1.2000000000000000 [-]
	 SCS Same-Spin Energy      =      -0.1054750283960548 [Eh]
	 SCS Opposite-Spin Energy  =      -1.3505415401437137 [Eh]
	 SCS Correlation Energy    =      -1.4560165685397690 [Eh]
	 SCS Total Energy          =    -314.9976371772943367 [Eh]
	-----------------------------------------------------------


  -Total Gradient:
     Atom            X                  Y                   Z
    ------   -----------------  -----------------  -----------------
       1       -0.000000218775     0.000000141570     0.000000041463
       2        0.000000037562    -0.000000094034     0.000000090903
       3        0.000000076798     0.000000084204    -0.000000024614
       4       -0.000000017093    -0.000000107460    -0.000000107726
       5        0.000000290193    -0.000000002821    -0.000000195123
       6       -0.000000106454     0.000000277833    -0.000000253144
       7        0.000000056849     0.000000283824     0.000000463276
       8       -0.000000409276    -0.000000330161     0.000000114395
       9        0.000000072926    -0.000000340993     0.000000000581
      10       -0.000000009185     0.000000151160    -0.000000211271
      11        0.000000076543     0.000000115301     0.000000135522
      12       -0.000000541936    -0.000000193977     0.000000660500
      13       -0.000000258652    -0.000000304939    -0.000000809753
      14        0.000000538107     0.000000529762    -0.000000220473
      15        0.000000063337    -0.000000108404    -0.000000558267
      16       -0.000000383923     0.000000332543     0.000000204805
      17        0.000000216658    -0.000000203902     0.000000415248
      18       -0.000000049472    -0.000000074903     0.000000818911
      19        0.000000245131    -0.000000248839    -0.000000041425
      20       -0.000000196718     0.000000455830    -0.000000693369
      21        0.000000381682     0.000000423877     0.000000144306
      22       -0.000000345357    -0.000000415371    -0.000000563456
      23        0.000000161572    -0.000000374587     0.000000503846
      24        0.000000423855    -0.000000001029    -0.000000816294
      25       -0.000000495540    -0.000000475790     0.000000055447
      26        0.000000391167     0.000000481303     0.000000845710


			-----------------------------------------
			 OPTKING 2.0: for geometry optimizations 
			  - R.A. King,  Bethel University        
			-----------------------------------------

	Internal coordinates to be generated automatically.
	Detected frag 1 with atoms:  1 2 3 4 5 6 7 8 9 10 11 12 13 14 15 16 17 18 19 20
	 21 22 23 24 25 26
	---Fragment 1 Bond Connectivity---
	 1 : 2 3 4 9
	 2 : 1
	 3 : 1
	 4 : 1
	 5 : 6 7 8 12
	 6 : 5
	 7 : 5
	 8 : 5
	 9 : 1 10 11 15
	 10 : 9
	 11 : 9
	 12 : 5 13 14 24
	 13 : 12
	 14 : 12
	 15 : 9 16 17 18
	 16 : 15
	 17 : 15
	 18 : 15 19 20 21
	 19 : 18
	 20 : 18
	 21 : 18 22 23 24
	 22 : 21
	 23 : 21
	 24 : 12 21 25 26
	 25 : 24
	 26 : 24

	---Fragment 1 Geometry and Gradient---
	 C           6.9131791892        0.2782736562       -0.3336532128
	 H           7.3967922851       -0.8609722559        1.3160056492
	 H           8.5570421843        1.4213545297       -0.8153603446
	 H           6.5666233542       -1.0038599197       -1.9058721520
	 C          -6.5810655563        2.0068530301       -0.0266168443
	 H          -7.2727836823        3.3691049840       -1.4073907702
	 H          -6.1644852631        3.0267973786        1.7157900681
	 H          -8.1051551811        0.6787247035        0.3750168794
	 C           4.6207353270        1.9357460859        0.2168496047
	 H           4.1220986566        3.0160531497       -1.4732045054
	 H           5.1211067492        3.3175241435        1.6662926465
	 C          -4.2421364027        0.6211440535       -0.9764602425
	 H          -4.6792218122       -0.3693504216       -2.7376200496
	 H          -2.7691293431        1.9952404778       -1.4284142810
	 C           2.3089340071        0.4481986979        1.0984578055
	 H           0.8449634116        1.7821382744        1.6830889284
	 H           2.8049243267       -0.6527192673        2.7805520867
	 C           1.2417188383       -1.3194633286       -0.9104632661
	 H           2.7070121006       -2.6357388459       -1.5262161697
	 H           0.7243374251       -0.2106177633       -2.5767990110
	 C          -1.0313603407       -2.8552287092       -0.0025378644
	 H          -1.6893652922       -4.0551479309       -1.5518415294
	 H          -0.4148426098       -4.1294810057        1.5038978986
	 C          -3.2505241019       -1.2732406842        0.9526574241
	 H          -4.7901099021       -2.5444929598        1.4888223524
	 H          -2.7154907128       -0.2666456110        2.6761502825
	            -0.0000002188        0.0000001416        0.0000000415
	             0.0000000376       -0.0000000940        0.0000000909
	             0.0000000768        0.0000000842       -0.0000000246
	            -0.0000000171       -0.0000001075       -0.0000001077
	             0.0000002902       -0.0000000028       -0.0000001951
	            -0.0000001065        0.0000002778       -0.0000002531
	             0.0000000568        0.0000002838        0.0000004633
	            -0.0000004093       -0.0000003302        0.0000001144
	             0.0000000729       -0.0000003410        0.0000000006
	            -0.0000000092        0.0000001512       -0.0000002113
	             0.0000000765        0.0000001153        0.0000001355
	            -0.0000005419       -0.0000001940        0.0000006605
	            -0.0000002587       -0.0000003049       -0.0000008098
	             0.0000005381        0.0000005298       -0.0000002205
	             0.0000000633       -0.0000001084       -0.0000005583
	            -0.0000003839        0.0000003325        0.0000002048
	             0.0000002167       -0.0000002039        0.0000004152
	            -0.0000000495       -0.0000000749        0.0000008189
	             0.0000002451       -0.0000002488       -0.0000000414
	            -0.0000001967        0.0000004558       -0.0000006934
	             0.0000003817        0.0000004239        0.0000001443
	            -0.0000003454       -0.0000004154       -0.0000005635
	             0.0000001616       -0.0000003746        0.0000005038
	             0.0000004239       -0.0000000010       -0.0000008163
	            -0.0000004955       -0.0000004758        0.0000000554
	             0.0000003912        0.0000004813        0.0000008457

	Previous optimization step data not found.  Starting new optimization.

	---Fragment 1 Intrafragment Coordinates---
	 - Coordinate -           - BOHR/RAD -       - ANG/DEG -
	 R(1,2)           =         2.062314	       1.091329
	 R(1,3)           =         2.059359	       1.089766
	 R(1,4)           =         2.058116	       1.089108
	 R(1,9)           =         2.881938	       1.525056
	 R(5,6)           =         2.059306	       1.089738
	 R(5,7)           =         2.061506	       1.090902
	 R(5,8)           =         2.061088	       1.090681
	 R(5,12)          =         2.879754	       1.523900
	 R(9,10)          =         2.066878	       1.093745
	 R(9,11)          =         2.064114	       1.092282
	 R(9,15)          =         2.886946	       1.527706
	 R(12,13)         =         2.067319	       1.093978
	 R(12,14)         =         2.064498	       1.092485
	 R(12,24)         =         2.879841	       1.523946
	 R(15,16)         =         2.065042	       1.092773
	 R(15,17)         =         2.070620	       1.095725
	 R(15,18)         =         2.880858	       1.524484
	 R(18,19)         =         2.063690	       1.092058
	 R(18,20)         =         2.067341	       1.093989
	 R(18,21)         =         2.889601	       1.529111
	 R(21,22)         =         2.067152	       1.093890
	 R(21,23)         =         2.067163	       1.093895
	 R(21,24)         =         2.887866	       1.528193
	 R(24,25)         =         2.067336	       1.093987
	 R(24,26)         =         2.066379	       1.093481
	 B(1,9,10)        =         1.913797	     109.652496
	 B(1,9,11)        =         1.903194	     109.045005
	 B(1,9,15)        =         1.981190	     113.513833
	 B(2,1,3)         =         1.882357	     107.851119
	 B(2,1,4)         =         1.882217	     107.843118
	 B(2,1,9)         =         1.929907	     110.575553
	 B(3,1,4)         =         1.877073	     107.548372
	 B(3,1,9)         =         1.939505	     111.125437
	 B(4,1,9)         =         1.950086	     111.731718
	 B(5,12,13)       =         1.917518	     109.865678
	 B(5,12,14)       =         1.908618	     109.355735
	 B(5,12,24)       =         1.955460	     112.039629
	 B(6,5,7)         =         1.883159	     107.897059
	 B(6,5,8)         =         1.884454	     107.971264
	 B(6,5,12)        =         1.949776	     111.713919
	 B(7,5,8)         =         1.879199	     107.670184
	 B(7,5,12)        =         1.931280	     110.654184
	 B(8,5,12)        =         1.933485	     110.780551
	 B(9,15,16)       =         1.897906	     108.742006
	 B(9,15,17)       =         1.907334	     109.282191
	 B(9,15,18)       =         1.982161	     113.569439
	 B(10,9,11)       =         1.857483	     106.425909
	 B(10,9,15)       =         1.902687	     109.015954
	 B(11,9,15)       =         1.901401	     108.942279
	 B(12,24,21)      =         1.986006	     113.789737
	 B(12,24,25)      =         1.898431	     108.772076
	 B(12,24,26)      =         1.904379	     109.112896
	 B(13,12,14)      =         1.857977	     106.454233
	 B(13,12,24)      =         1.905295	     109.165380
	 B(14,12,24)      =         1.916433	     109.803549
	 B(15,18,19)      =         1.913885	     109.657504
	 B(15,18,20)      =         1.902522	     109.006505
	 B(15,18,21)      =         1.980586	     113.479213
	 B(16,15,17)      =         1.858006	     106.455877
	 B(16,15,18)      =         1.908322	     109.338781
	 B(17,15,18)      =         1.906029	     109.207418
	 B(18,21,22)      =         1.900133	     108.869602
	 B(18,21,23)      =         1.898619	     108.782863
	 B(18,21,24)      =         2.001234	     114.662289
	 B(19,18,20)      =         1.853866	     106.218697
	 B(19,18,21)      =         1.889464	     108.258334
	 B(20,18,21)      =         1.919262	     109.965609
	 B(21,24,25)      =         1.897793	     108.735552
	 B(21,24,26)      =         1.921715	     110.106166
	 B(22,21,23)      =         1.858034	     106.457506
	 B(22,21,24)      =         1.897876	     108.740275
	 B(23,21,24)      =         1.902679	     109.015476
	 B(25,24,26)      =         1.850486	     106.025038
	 D(1,9,15,16)     =         3.014294	     172.706309
	 D(1,9,15,17)     =         0.992772	      56.881626
	 D(1,9,15,18)     =        -1.140032	     -65.319012
	 D(2,1,9,10)      =        -3.108145	    -178.083572
	 D(2,1,9,11)      =         1.147607	      65.753045
	 D(2,1,9,15)      =        -0.975564	     -55.895686
	 D(3,1,9,10)      =         1.085184	      62.176460
	 D(3,1,9,11)      =        -0.942250	     -53.986922
	 D(3,1,9,15)      =        -3.065420	    -175.635653
	 D(4,1,9,10)      =        -1.011489	     -57.954042
	 D(4,1,9,11)      =        -3.038922	    -174.117425
	 D(4,1,9,15)      =         1.121092	      64.233844
	 D(5,12,24,21)    =         3.061633	     175.418664
	 D(5,12,24,25)    =         0.943304	      54.047350
	 D(5,12,24,26)    =        -1.067955	     -61.189317
	 D(6,5,12,13)     =        -1.028428	     -58.924572
	 D(6,5,12,14)     =         1.004816	      57.571736
	 D(6,5,12,24)     =         3.133758	     179.551120
	 D(7,5,12,13)     =        -3.127001	    -179.163983
	 D(7,5,12,14)     =        -1.093757	     -62.667676
	 D(7,5,12,24)     =         1.035185	      59.311709
	 D(8,5,12,13)     =         1.073294	      61.495233
	 D(8,5,12,14)     =         3.106538	     177.991541
	 D(8,5,12,24)     =        -1.047705	     -60.029075
	 D(9,15,18,19)    =         1.001112	      57.359496
	 D(9,15,18,20)    =        -1.021651	     -58.536316
	 D(9,15,18,21)    =         3.116291	     178.550344
	 D(10,9,15,16)    =        -1.130160	     -64.753386
	 D(10,9,15,17)    =         3.131503	     179.421931
	 D(10,9,15,18)    =         0.998700	      57.221293
	 D(11,9,15,16)    =         0.890123	      51.000277
	 D(11,9,15,17)    =        -1.131399	     -64.824407
	 D(11,9,15,18)    =         3.018983	     172.974956
	 D(12,24,21,18)   =         0.988169	      56.617924
	 D(12,24,21,22)   =        -1.143086	     -65.493990
	 D(12,24,21,23)   =         3.121094	     178.825486
	 D(13,12,24,21)   =         0.933627	      53.492872
	 D(13,12,24,25)   =        -1.184702	     -67.878442
	 D(13,12,24,26)   =         3.087224	     176.884891
	 D(14,12,24,21)   =        -1.097085	     -62.858333
	 D(14,12,24,25)   =         3.067771	     175.770353
	 D(14,12,24,26)   =         1.056512	      60.533686
	 D(15,18,21,22)   =         3.132890	     179.501367
	 D(15,18,21,23)   =        -1.132264	     -64.873959
	 D(15,18,21,24)   =         1.002861	      57.459720
	 D(16,15,18,19)   =         3.124176	     179.002110
	 D(16,15,18,20)   =         1.101413	      63.106299
	 D(16,15,18,21)   =        -1.043830	     -59.807041
	 D(17,15,18,19)   =        -1.132414	     -64.882561
	 D(17,15,18,20)   =         3.128007	     179.221628
	 D(17,15,18,21)   =         0.982765	      56.308288
	 D(18,21,24,25)   =         3.106853	     178.009569
	 D(18,21,24,26)   =        -1.155961	     -66.231676
	 D(19,18,21,22)   =        -1.021471	     -58.525957
	 D(19,18,21,23)   =         0.996561	      57.098717
	 D(19,18,21,24)   =         3.131686	     179.432396
	 D(20,18,21,22)   =         0.996892	      57.117711
	 D(20,18,21,23)   =         3.014923	     172.742386
	 D(20,18,21,24)   =        -1.133136	     -64.923935
	 D(22,21,24,25)   =         0.975598	      55.897655
	 D(22,21,24,26)   =         2.995970	     171.656411
	 D(23,21,24,25)   =        -1.043408	     -59.782869
	 D(23,21,24,26)   =         0.976964	      55.975886
	 R(12,15)         =         6.873989	       3.637558

	Current energy   :      -314.9834969774

	Generating empirical Hessian (Schlegel '84) for each fragment.
	Taking RFO optimization step.
	Going to follow RFO solution 1.
	Using RFO vector 1.
	Norm of target step-size    0.00009
	Projected energy change by RFO approximation:        -0.0000000001

	Back-transformation to cartesian coordinates...
	Successfully converged to displaced geometry.

	--- Internal Coordinate Step in ANG or DEG, aJ/ANG or AJ/DEG ---
	 ---------------------------------------------------------------------------
	   Coordinate                Previous        Force       Change         New 
	   ----------                --------       ------       ------       ------
	    1 R(1,2)          =      1.091329    -0.000001    -0.000000     1.091329
	    2 R(1,3)          =      1.089766    -0.000001    -0.000000     1.089766
	    3 R(1,4)          =      1.089108    -0.000001    -0.000000     1.089108
	    4 R(1,9)          =      1.525056     0.000001     0.000000     1.525056
	    5 R(5,6)          =      1.089738    -0.000003    -0.000001     1.089737
	    6 R(5,7)          =      1.090902    -0.000004    -0.000001     1.090901
	    7 R(5,8)          =      1.090681    -0.000004    -0.000001     1.090680
	    8 R(5,12)         =      1.523900    -0.000002    -0.000000     1.523900
	    9 R(9,10)         =      1.093745    -0.000002    -0.000000     1.093744
	   10 R(9,11)         =      1.092282    -0.000002    -0.000000     1.092282
	   11 R(9,15)         =      1.527706    -0.000000    -0.000000     1.527706
	   12 R(12,13)        =      1.093978    -0.000007    -0.000001     1.093977
	   13 R(12,14)        =      1.092485    -0.000006    -0.000001     1.092484
	   14 R(12,24)        =      1.523946    -0.000004    -0.000001     1.523945
	   15 R(15,16)        =      1.092773    -0.000005    -0.000001     1.092772
	   16 R(15,17)        =      1.095725    -0.000004    -0.000001     1.095724
	   17 R(15,18)        =      1.524484     0.000000     0.000000     1.524484
	   18 R(18,19)        =      1.092058    -0.000003    -0.000001     1.092057
	   19 R(18,20)        =      1.093989    -0.000007    -0.000001     1.093988
	   20 R(18,21)        =      1.529111     0.000001     0.000000     1.529111
	   21 R(21,22)        =      1.093890    -0.000006    -0.000001     1.093889
	   22 R(21,23)        =      1.093895    -0.000005    -0.000001     1.093894
	   23 R(21,24)        =      1.528193    -0.000001    -0.000000     1.528193
	   24 R(24,25)        =      1.093987    -0.000006    -0.000001     1.093986
	   25 R(24,26)        =      1.093481    -0.000009    -0.000002     1.093479
	   26 B(1,9,10)       =    109.652496     0.000000     0.000009   109.652505
	   27 B(1,9,11)       =    109.045005    -0.000000     0.000012   109.045017
	   28 B(1,9,15)       =    113.513833     0.000000     0.000018   113.513851
	   29 B(2,1,3)        =    107.851119    -0.000000    -0.000002   107.851118
	   30 B(2,1,4)        =    107.843118     0.000000     0.000008   107.843125
	   31 B(2,1,9)        =    110.575553    -0.000000    -0.000009   110.575543
	   32 B(3,1,4)        =    107.548372    -0.000000    -0.000005   107.548367
	   33 B(3,1,9)        =    111.125437     0.000000     0.000018   111.125455
	   34 B(4,1,9)        =    111.731718    -0.000000    -0.000009   111.731708
	   35 B(5,12,13)      =    109.865678     0.000000     0.000007   109.865684
	   36 B(5,12,14)      =    109.355735     0.000000     0.000059   109.355795
	   37 B(5,12,24)      =    112.039629    -0.000000    -0.000017   112.039612
	   38 B(6,5,7)        =    107.897059     0.000000     0.000015   107.897073
	   39 B(6,5,8)        =    107.971264    -0.000000     0.000000   107.971264
	   40 B(6,5,12)       =    111.713919     0.000000     0.000016   111.713935
	   41 B(7,5,8)        =    107.670184     0.000000     0.000009   107.670193
	   42 B(7,5,12)       =    110.654184    -0.000000    -0.000029   110.654155
	   43 B(8,5,12)       =    110.780551    -0.000000    -0.000009   110.780542
	   44 B(9,15,16)      =    108.742006    -0.000000    -0.000040   108.741966
	   45 B(9,15,17)      =    109.282191     0.000000     0.000066   109.282258
	   46 B(9,15,18)      =    113.569439     0.000000     0.000033   113.569472
	   47 B(10,9,11)      =    106.425909     0.000000    -0.000001   106.425909
	   48 B(10,9,15)      =    109.015954    -0.000000    -0.000038   109.015916
	   49 B(11,9,15)      =    108.942279    -0.000000    -0.000001   108.942278
	   50 B(12,24,21)     =    113.789737    -0.000000    -0.000126   113.789611
	   51 B(12,24,25)     =    108.772076     0.000000     0.000053   108.772129
	   52 B(12,24,26)     =    109.112896     0.000000    -0.000015   109.112881
	   53 B(13,12,14)     =    106.454233     0.000000     0.000031   106.454264
	   54 B(13,12,24)     =    109.165380    -0.000000    -0.000097   109.165284
	   55 B(14,12,24)     =    109.803549     0.000000     0.000019   109.803568
	   56 B(15,18,19)     =    109.657504    -0.000000     0.000008   109.657512
	   57 B(15,18,20)     =    109.006505    -0.000000    -0.000003   109.006502
	   58 B(15,18,21)     =    113.479213     0.000000     0.000014   113.479227
	   59 B(16,15,17)     =    106.455877     0.000000     0.000002   106.455880
	   60 B(16,15,18)     =    109.338781    -0.000000    -0.000048   109.338733
	   61 B(17,15,18)     =    109.207418    -0.000000    -0.000016   109.207402
	   62 B(18,21,22)     =    108.869602    -0.000000    -0.000082   108.869520
	   63 B(18,21,23)     =    108.782863    -0.000000    -0.000002   108.782860
	   64 B(18,21,24)     =    114.662289     0.000000     0.000087   114.662376
	   65 B(19,18,20)     =    106.218697    -0.000000    -0.000018   106.218679
	   66 B(19,18,21)     =    108.258334     0.000000     0.000014   108.258348
	   67 B(20,18,21)     =    109.965609    -0.000000    -0.000017   109.965591
	   68 B(21,24,25)     =    108.735552     0.000000     0.000042   108.735594
	   69 B(21,24,26)     =    110.106166     0.000000     0.000092   110.106258
	   70 B(22,21,23)     =    106.457506     0.000000    -0.000038   106.457469
	   71 B(22,21,24)     =    108.740275    -0.000000    -0.000003   108.740273
	   72 B(23,21,24)     =    109.015476    -0.000000     0.000029   109.015505
	   73 B(25,24,26)     =    106.025038    -0.000000    -0.000041   106.024996
	   74 D(1,9,15,16)    =    172.706309     0.000000    -0.000382   172.705926
	   75 D(1,9,15,17)    =     56.881626    -0.000000    -0.000399    56.881226
	   76 D(1,9,15,18)    =    -65.319012    -0.000000    -0.000451   -65.319463
	   77 D(2,1,9,10)     =   -178.083572     0.000000    -0.000053  -178.083626
	   78 D(2,1,9,11)     =     65.753045    -0.000000    -0.000065    65.752980
	   79 D(2,1,9,15)     =    -55.895686    -0.000000    -0.000084   -55.895770
	   80 D(3,1,9,10)     =     62.176460     0.000000    -0.000057    62.176404
	   81 D(3,1,9,11)     =    -53.986922    -0.000000    -0.000068   -53.986990
	   82 D(3,1,9,15)     =   -175.635653    -0.000000    -0.000087  -175.635741
	   83 D(4,1,9,10)     =    -57.954042     0.000000    -0.000056   -57.954098
	   84 D(4,1,9,11)     =   -174.117425    -0.000000    -0.000067  -174.117492
	   85 D(4,1,9,15)     =     64.233844    -0.000000    -0.000087    64.233758
	   86 D(5,12,24,21)   =    175.418664    -0.000000    -0.001122   175.417542
	   87 D(5,12,24,25)   =     54.047350    -0.000000    -0.001130    54.046220
	   88 D(5,12,24,26)   =    -61.189317    -0.000000    -0.001102   -61.190419
	   89 D(6,5,12,13)    =    -58.924572    -0.000000     0.000182   -58.924390
	   90 D(6,5,12,14)    =     57.571736     0.000000     0.000257    57.571992
	   91 D(6,5,12,24)    =    179.551120     0.000000     0.000311   179.551431
	   92 D(7,5,12,13)    =   -179.163983    -0.000000     0.000172  -179.163811
	   93 D(7,5,12,14)    =    -62.667676     0.000000     0.000247   -62.667429
	   94 D(7,5,12,24)    =     59.311709     0.000000     0.000301    59.312010
	   95 D(8,5,12,13)    =     61.495233    -0.000000     0.000186    61.495419
	   96 D(8,5,12,14)    =    177.991541     0.000000     0.000261   177.991802
	   97 D(8,5,12,24)    =    -60.029075     0.000000     0.000315   -60.028759
	   98 D(9,15,18,19)   =     57.359496     0.000000    -0.000178    57.359317
	   99 D(9,15,18,20)   =    -58.536316     0.000000    -0.000159   -58.536475
	  100 D(9,15,18,21)   =    178.550344     0.000000    -0.000145   178.550200
	  101 D(10,9,15,16)   =    -64.753386     0.000000    -0.000387   -64.753773
	  102 D(10,9,15,17)   =    179.421931    -0.000000    -0.000404   179.421527
	  103 D(10,9,15,18)   =     57.221293    -0.000000    -0.000455    57.220838
	  104 D(11,9,15,16)   =     51.000277    -0.000000    -0.000409    50.999867
	  105 D(11,9,15,17)   =    -64.824407    -0.000000    -0.000426   -64.824833
	  106 D(11,9,15,18)   =    172.974956    -0.000000    -0.000478   172.974478
	  107 D(12,24,21,18)  =     56.617924    -0.000000    -0.000866    56.617058
	  108 D(12,24,21,22)  =    -65.493990    -0.000000    -0.000817   -65.494807
	  109 D(12,24,21,23)  =    178.825486    -0.000000    -0.000787   178.824699
	  110 D(13,12,24,21)  =     53.492872    -0.000000    -0.001052    53.491820
	  111 D(13,12,24,25)  =    -67.878442    -0.000000    -0.001061   -67.879502
	  112 D(13,12,24,26)  =    176.884891    -0.000000    -0.001032   176.883859
	  113 D(14,12,24,21)  =    -62.858333    -0.000000    -0.001044   -62.859377
	  114 D(14,12,24,25)  =    175.770353    -0.000000    -0.001053   175.769301
	  115 D(14,12,24,26)  =     60.533686     0.000000    -0.001024    60.532662
	  116 D(15,18,21,22)  =    179.501367     0.000000     0.000766   179.502132
	  117 D(15,18,21,23)  =    -64.873959    -0.000000     0.000675   -64.873284
	  118 D(15,18,21,24)  =     57.459720     0.000000     0.000771    57.460492
	  119 D(16,15,18,19)  =    179.002110    -0.000000    -0.000242   179.001868
	  120 D(16,15,18,20)  =     63.106299     0.000000    -0.000223    63.106076
	  121 D(16,15,18,21)  =    -59.807041     0.000000    -0.000209   -59.807250
	  122 D(17,15,18,19)  =    -64.882561    -0.000000    -0.000275   -64.882836
	  123 D(17,15,18,20)  =    179.221628    -0.000000    -0.000256   179.221372
	  124 D(17,15,18,21)  =     56.308288    -0.000000    -0.000242    56.308046
	  125 D(18,21,24,25)  =    178.009569    -0.000000    -0.000852   178.008717
	  126 D(18,21,24,26)  =    -66.231676    -0.000000    -0.000826   -66.232502
	  127 D(19,18,21,22)  =    -58.525957     0.000000     0.000795   -58.525163
	  128 D(19,18,21,23)  =     57.098717    -0.000000     0.000704    57.099421
	  129 D(19,18,21,24)  =    179.432396     0.000000     0.000801   179.433197
	  130 D(20,18,21,22)  =     57.117711     0.000000     0.000772    57.118483
	  131 D(20,18,21,23)  =    172.742386    -0.000000     0.000681   172.743067
	  132 D(20,18,21,24)  =    -64.923935     0.000000     0.000778   -64.923157
	  133 D(22,21,24,25)  =     55.897655    -0.000000    -0.000803    55.896852
	  134 D(22,21,24,26)  =    171.656411     0.000000    -0.000777   171.655634
	  135 D(23,21,24,25)  =    -59.782869    -0.000000    -0.000772   -59.783642
	  136 D(23,21,24,26)  =     55.975886     0.000000    -0.000747    55.975140
	  137 R(12,15)        =      3.637558    -0.000000    -0.000001     3.637557
	 ---------------------------------------------------------------------------

  ==> Convergence Check <==

  Measures of convergence in internal coordinates in au.
  Criteria marked as inactive (o), active & met (*), and active & unmet ( ).
  --------------------------------------------------------------------------------------------- ~
   Step     Total Energy     Delta E     MAX Force     RMS Force      MAX Disp      RMS Disp    ~
  --------------------------------------------------------------------------------------------- ~
    Convergence Criteria             o    2.00e-06 *    1.00e-06 *    6.00e-06 *    4.00e-06 *  ~
  --------------------------------------------------------------------------------------------- ~
      1    -314.98349698   -3.15e+02 o    1.04e-06 *    2.30e-07 *    1.97e-05      7.33e-06    ~
  ---------------------------------------------------------------------------------------------

	Writing optimization data to binary file.
	Structure for next step:
	Cartesian Geometry (in Angstrom)
	    C     3.6583018491   0.1472508547  -0.1765675566
	    H     3.9142216087  -0.4556096215   0.6963949761
	    H     4.5281961907   0.7521414177  -0.4314811540
	    H     3.4749085074  -0.5312270873  -1.0085471459
	    C    -3.4825613148   1.0619708934  -0.0140940974
	    H    -3.8485987315   1.7828443942  -0.7447685286
	    H    -3.2621398678   1.6016969610   0.9079556041
	    H    -4.2890689568   0.3591440471   0.1984209303
	    C     2.4451944465   1.0243493889   0.1147482088
	    H     2.1813248102   1.5960214833  -0.7795898445
	    H     2.7099825064   1.7555559847   0.8817579154
	    C    -2.2448352084   0.3287053356  -0.5167127331
	    H    -2.4761059155  -0.1954340577  -1.4486872699
	    H    -1.4653569640   1.0558557807  -0.7558522740
	    C     1.2218422213   0.2371757116   0.5812802583
	    H     0.4471477873   0.9430677018   0.8906608041
	    H     1.4843114646  -0.3454093105   1.4714017027
	    C     0.6570846122  -0.6982241367  -0.4817946918
	    H     1.4324796443  -1.3947665133  -0.8076480062
	    H     0.3832915861  -0.1114438764  -1.3635749519
	    C    -0.5457746249  -1.5109162118  -0.0013348428
	    H    -0.8939744401  -2.1458898990  -0.8211871072
	    H    -0.2195246057  -2.1852171295   0.7958377692
	    C    -1.7201074156  -0.6737660686   0.5041306102
	    H    -2.5348235878  -1.3464832698   0.7878470564
	    H    -1.4369869837  -0.1411050692   1.4161676285
			--------------------------
			 OPTKING Finished Execution 
			--------------------------

    Structure for next step:
    Molecular point group: c1
    Full point group: C1

    Geometry (in Angstrom), charge = 0, multiplicity = 1:

    C            3.658301582013     0.147250265899    -0.176568178092
    H            3.914221341544    -0.455610210285     0.696394354628
    H            4.528195923559     0.752140828902    -0.431481775486
    H            3.474908240254    -0.531227676091    -1.008547767370
    C           -3.482561581935     1.061970304582    -0.014094718865
    H           -3.848598998631     1.782843805425    -0.744769150107
    H           -3.262140134892     1.601696372176     0.907954982554
    H           -4.289069223895     0.359143458368     0.198420308831
    C            2.445194179409     1.024348800164     0.114747587288
    H            2.181324543067     1.596020894555    -0.779590465979
    H            2.709982239288     1.755555395901     0.881757293939
    C           -2.244835475553     0.328704746822    -0.516713354569
    H           -2.476106182658    -0.195434646480    -1.448687891427
    H           -1.465357231113     1.055855191893    -0.755852895507
    C            1.221841954164     0.237175122798     0.581279636766
    H            0.447147520140     0.943067113049     0.890660182572
    H            1.484311197461    -0.345409899291     1.471401081237
    C            0.657084345075    -0.698224725480    -0.481795313313
    H            1.432479377209    -1.394767102072    -0.807648627667
    H            0.383291319011    -0.111444465132    -1.363575573449
    C           -0.545774891981    -1.510916800542    -0.001335464320
    H           -0.893974707191    -2.145890487774    -0.821187728753
    H           -0.219524872783    -2.185217718254     0.795837147715
    C           -1.720107682768    -0.673766657406     0.504129988663
    H           -2.534823854906    -1.346483858569     0.787846434901
    H           -1.436987250791    -0.141105657959     1.416167006973

gradient() will perform analytic gradient computation.

*** tstart() called on wr33
*** at Tue Sep 20 22:47:27 2016


         ---------------------------------------------------------
                                   SCF
            by Justin Turney, Rob Parrish, and Andy Simmonett
                              RHF Reference
                       12 Threads,  60000 MiB Core
         ---------------------------------------------------------

  ==> Geometry <==

    Molecular point group: c1
    Full point group: C1

    Geometry (in Angstrom), charge = 0, multiplicity = 1:

       Center              X                  Y                   Z               Mass       
    ------------   -----------------  -----------------  -----------------  -----------------
           C          3.658301582013     0.147250265899    -0.176568178092    12.000000000000
           H          3.914221341544    -0.455610210285     0.696394354628     1.007825032070
           H          4.528195923559     0.752140828902    -0.431481775486     1.007825032070
           H          3.474908240254    -0.531227676091    -1.008547767370     1.007825032070
           C         -3.482561581935     1.061970304582    -0.014094718865    12.000000000000
           H         -3.848598998631     1.782843805425    -0.744769150107     1.007825032070
           H         -3.262140134892     1.601696372176     0.907954982554     1.007825032070
           H         -4.289069223895     0.359143458368     0.198420308831     1.007825032070
           C          2.445194179409     1.024348800164     0.114747587288    12.000000000000
           H          2.181324543067     1.596020894555    -0.779590465979     1.007825032070
           H          2.709982239288     1.755555395901     0.881757293939     1.007825032070
           C         -2.244835475553     0.328704746822    -0.516713354569    12.000000000000
           H         -2.476106182658    -0.195434646480    -1.448687891427     1.007825032070
           H         -1.465357231113     1.055855191893    -0.755852895507     1.007825032070
           C          1.221841954164     0.237175122798     0.581279636766    12.000000000000
           H          0.447147520140     0.943067113049     0.890660182572     1.007825032070
           H          1.484311197461    -0.345409899291     1.471401081237     1.007825032070
           C          0.657084345075    -0.698224725480    -0.481795313313    12.000000000000
           H          1.432479377209    -1.394767102072    -0.807648627667     1.007825032070
           H          0.383291319011    -0.111444465132    -1.363575573449     1.007825032070
           C         -0.545774891981    -1.510916800542    -0.001335464320    12.000000000000
           H         -0.893974707191    -2.145890487774    -0.821187728753     1.007825032070
           H         -0.219524872783    -2.185217718254     0.795837147715     1.007825032070
           C         -1.720107682768    -0.673766657406     0.504129988663    12.000000000000
           H         -2.534823854906    -1.346483858569     0.787846434901     1.007825032070
           H         -1.436987250791    -0.141105657959     1.416167006973     1.007825032070

  Running in c1 symmetry.

  Rotational constants: A =      0.13438  B =      0.02562  C =      0.02332 [cm^-1]
  Rotational constants: A =   4028.52515  B =    768.15499  C =    699.21942 [MHz]
  Nuclear repulsion =  394.676976489611718

  Charge       = 0
  Multiplicity = 1
  Electrons    = 66
  Nalpha       = 33
  Nbeta        = 33

  ==> Algorithm <==

  SCF Algorithm Type is DF.
  DIIS enabled.
  MOM disabled.
  Fractional occupation disabled.
  Guess Type is READ.
  Energy threshold   = 1.00e-10
  Density threshold  = 1.00e-10
  Integral threshold = 0.00e+00

  ==> Primary Basis <==

  Basis Set: AUG-CC-PVTZ
    Number of shells: 274
    Number of basis function: 782
    Number of Cartesian functions: 890
    Spherical Harmonics?: true
    Max angular momentum: 3

  ==> Pre-Iterations <==

   -------------------------------------------------------
    Irrep   Nso     Nmo     Nalpha   Nbeta   Ndocc  Nsocc
   -------------------------------------------------------
     A        782     782       0       0       0       0
   -------------------------------------------------------
    Total     782     782      33      33      33       0
   -------------------------------------------------------

  ==> Integral Setup <==

  ==> DFJK: Density-Fitted J/K Matrices <==

    J tasked:                  Yes
    K tasked:                  Yes
    wK tasked:                  No
    OpenMP threads:             12
    Integrals threads:          12
    Memory (MB):             42915
    Algorithm:                Core
    Integral Cache:           NONE
    Schwarz Cutoff:          1E-12
    Fitting Condition:       1E-12

   => Auxiliary Basis Set <=

  Basis Set: 
    Number of shells: 492
    Number of basis function: 1660
    Number of Cartesian functions: 2038
    Spherical Harmonics?: true
    Max angular momentum: 4

  Minimum eigenvalue in the overlap matrix is 2.3134045624E-06.
  Using Symmetric Orthogonalization.
  SCF Guess: Reading in previously saved MOs, projecting if necessary.

  Using orbitals from previous SCF, no projection.
  Recomputing DOCC and SOCC from number of alpha and beta electrons from previous calculation.
              A 
    DOCC [    33 ]

  ==> Iterations <==

                           Total Energy        Delta E     RMS |[F,P]|

   @DF-RHF iter   0:  -313.54163450997640   -3.13542e+02   4.91249e-08 
   @DF-RHF iter   1:  -313.54162077334337    1.37366e-05   1.16556e-08 
   @DF-RHF iter   2:  -313.54162077341965   -7.62839e-11   4.87020e-09 DIIS
   @DF-RHF iter   3:  -313.54162077343000   -1.03455e-11   2.00677e-09 DIIS
   @DF-RHF iter   4:  -313.54162077343284   -2.84217e-12   2.26752e-10 DIIS
   @DF-RHF iter   5:  -313.54162077343284    0.00000e+00   7.54270e-11 DIIS

  ==> Post-Iterations <==

    Orbital Energies (a.u.)
    -----------------------

    Doubly Occupied:                                                      

       1A    -11.213100     2A    -11.212177     3A    -11.210739  
       4A    -11.210088     5A    -11.209255     6A    -11.208728  
       7A    -11.207179     8A    -11.206530     9A     -1.095210  
      10A     -1.059428    11A     -1.008815    12A     -0.944917  
      13A     -0.887867    14A     -0.830065    15A     -0.791199  
      16A     -0.751232    17A     -0.647243    18A     -0.627434  
      19A     -0.610979    20A     -0.593202    21A     -0.580772  
      22A     -0.562716    23A     -0.546062    24A     -0.533505  
      25A     -0.507853    26A     -0.499965    27A     -0.491764  
      28A     -0.473707    29A     -0.467465    30A     -0.462461  
      31A     -0.443707    32A     -0.439867    33A     -0.434189  

    Virtual:                                                              

      34A      0.030383    35A      0.033338    36A      0.033497  
      37A      0.034880    38A      0.046766    39A      0.048029  
      40A      0.050726    41A      0.053239    42A      0.055792  
      43A      0.064272    44A      0.068133    45A      0.069601  
      46A      0.074753    47A      0.077608    48A      0.082703  
      49A      0.090120    50A      0.096735    51A      0.103448  
      52A      0.113530    53A      0.114799    54A      0.115273  
      55A      0.124802    56A      0.127922    57A      0.130688  
      58A      0.132332    59A      0.141285    60A      0.142988  
      61A      0.146927    62A      0.149424    63A      0.152302  
      64A      0.153644    65A      0.155462    66A      0.159499  
      67A      0.161791    68A      0.166211    69A      0.170751  
      70A      0.175607    71A      0.180287    72A      0.180530  
      73A      0.184862    74A      0.189886    75A      0.192638  
      76A      0.196758    77A      0.215115    78A      0.227294  
      79A      0.232258    80A      0.237115    81A      0.242913  
      82A      0.249379    83A      0.250737    84A      0.257991  
      85A      0.261624    86A      0.268827    87A      0.279678  
      88A      0.284085    89A      0.287389    90A      0.292273  
      91A      0.296340    92A      0.303838    93A      0.307596  
      94A      0.312831    95A      0.314868    96A      0.322238  
      97A      0.322811    98A      0.328973    99A      0.330982  
     100A      0.335826   101A      0.340190   102A      0.344768  
     103A      0.346992   104A      0.349981   105A      0.352073  
     106A      0.358719   107A      0.361892   108A      0.366474  
     109A      0.369114   110A      0.373585   111A      0.375308  
     112A      0.376956   113A      0.378365   114A      0.386053  
     115A      0.388291   116A      0.391896   117A      0.398122  
     118A      0.400916   119A      0.404110   120A      0.406800  
     121A      0.411906   122A      0.415376   123A      0.424372  
     124A      0.428235   125A      0.433682   126A      0.437020  
     127A      0.441567   128A      0.444827   129A      0.448413  
     130A      0.452231   131A      0.454836   132A      0.458506  
     133A      0.462725   134A      0.468305   135A      0.471409  
     136A      0.472157   137A      0.476069   138A      0.480907  
     139A      0.486220   140A      0.489075   141A      0.492816  
     142A      0.494336   143A      0.499010   144A      0.502131  
     145A      0.504722   146A      0.510481   147A      0.513313  
     148A      0.518932   149A      0.521878   150A      0.525220  
     151A      0.527818   152A      0.536301   153A      0.539120  
     154A      0.540759   155A      0.543679   156A      0.547660  
     157A      0.551063   158A      0.554507   159A      0.563036  
     160A      0.566156   161A      0.568297   162A      0.579303  
     163A      0.579695   164A      0.586284   165A      0.593925  
     166A      0.595954   167A      0.602095   168A      0.607542  
     169A      0.612097   170A      0.614554   171A      0.622343  
     172A      0.626605   173A      0.630593   174A      0.632367  
     175A      0.637193   176A      0.640021   177A      0.646989  
     178A      0.654431   179A      0.654901   180A      0.664721  
     181A      0.666384   182A      0.678508   183A      0.681692  
     184A      0.684977   185A      0.686841   186A      0.693495  
     187A      0.700062   188A      0.709829   189A      0.714560  
     190A      0.721887   191A      0.726480   192A      0.729532  
     193A      0.739506   194A      0.744724   195A      0.747945  
     196A      0.749940   197A      0.762763   198A      0.777728  
     199A      0.781909   200A      0.784783   201A      0.797493  
     202A      0.801774   203A      0.814720   204A      0.826078  
     205A      0.833664   206A      0.836722   207A      0.842590  
     208A      0.846513   209A      0.853775   210A      0.856361  
     211A      0.868465   212A      0.870181   213A      0.880648  
     214A      0.882080   215A      0.890900   216A      0.895224  
     217A      0.898151   218A      0.902885   219A      0.907617  
     220A      0.916766   221A      0.919781   222A      0.922691  
     223A      0.923609   224A      0.930600   225A      0.932132  
     226A      0.939091   227A      0.940962   228A      0.949492  
     229A      0.953482   230A      0.956784   231A      0.963785  
     232A      0.970715   233A      0.973703   234A      0.979409  
     235A      0.985688   236A      0.993477   237A      0.997424  
     238A      0.998421   239A      1.001444   240A      1.006427  
     241A      1.007516   242A      1.016616   243A      1.020791  
     244A      1.024719   245A      1.031604   246A      1.034335  
     247A      1.040115   248A      1.047647   249A      1.052538  
     250A      1.057999   251A      1.064349   252A      1.072003  
     253A      1.080427   254A      1.083341   255A      1.087305  
     256A      1.091892   257A      1.092885   258A      1.104742  
     259A      1.105359   260A      1.106620   261A      1.114059  
     262A      1.120315   263A      1.122636   264A      1.133369  
     265A      1.138983   266A      1.143508   267A      1.146827  
     268A      1.151806   269A      1.153276   270A      1.164740  
     271A      1.170341   272A      1.175405   273A      1.180117  
     274A      1.184762   275A      1.195553   276A      1.200624  
     277A      1.204802   278A      1.208886   279A      1.210051  
     280A      1.216036   281A      1.221295   282A      1.226105  
     283A      1.234312   284A      1.239973   285A      1.243755  
     286A      1.250921   287A      1.254366   288A      1.264139  
     289A      1.266845   290A      1.276675   291A      1.279107  
     292A      1.282062   293A      1.285068   294A      1.294533  
     295A      1.299433   296A      1.309150   297A      1.319914  
     298A      1.322440   299A      1.326019   300A      1.332470  
[...]
	 D(8,5,12,13)     =         1.073296	      61.495319
	 D(8,5,12,14)     =         3.106541	     177.991686
	 D(8,5,12,24)     =        -1.047702	     -60.028875
	 D(9,15,18,19)    =         1.001105	      57.359089
	 D(9,15,18,20)    =        -1.021658	     -58.536701
	 D(9,15,18,21)    =         3.116285	     178.549952
	 D(10,9,15,16)    =        -1.130163	     -64.753566
	 D(10,9,15,17)    =         3.131500	     179.421744
	 D(10,9,15,18)    =         0.998696	      57.221047
	 D(11,9,15,16)    =         0.890119	      51.000083
	 D(11,9,15,17)    =        -1.131403	     -64.824607
	 D(11,9,15,18)    =         3.018978	     172.974696
	 D(12,24,21,18)   =         0.988168	      56.617845
	 D(12,24,21,22)   =        -1.143087	     -65.494064
	 D(12,24,21,23)   =         3.121093	     178.825428
	 D(13,12,24,21)   =         0.933612	      53.492024
	 D(13,12,24,25)   =        -1.184716	     -67.879226
	 D(13,12,24,26)   =         3.087211	     176.884144
	 D(14,12,24,21)   =        -1.097100	     -62.859204
	 D(14,12,24,25)   =         3.067757	     175.769545
	 D(14,12,24,26)   =         1.056499	      60.532916
	 D(15,18,21,22)   =         3.132896	     179.501732
	 D(15,18,21,23)   =        -1.132259	     -64.873683
	 D(15,18,21,24)   =         1.002867	      57.460042
	 D(16,15,18,19)   =         3.124168	     179.001653
	 D(16,15,18,20)   =         1.101405	      63.105863
	 D(16,15,18,21)   =        -1.043838	     -59.807484
	 D(17,15,18,19)   =        -1.132422	     -64.883024
	 D(17,15,18,20)   =         3.128000	     179.221186
	 D(17,15,18,21)   =         0.982757	      56.307840
	 D(18,21,24,25)   =         3.106851	     178.009457
	 D(18,21,24,26)   =        -1.155963	     -66.231789
	 D(19,18,21,22)   =        -1.021464	     -58.525587
	 D(19,18,21,23)   =         0.996566	      57.098998
	 D(19,18,21,24)   =         3.131692	     179.432723
	 D(20,18,21,22)   =         0.996898	      57.118043
	 D(20,18,21,23)   =         3.014928	     172.742627
	 D(20,18,21,24)   =        -1.133131	     -64.923647
	 D(22,21,24,25)   =         0.975596	      55.897548
	 D(22,21,24,26)   =         2.995968	     171.656302
	 D(23,21,24,25)   =        -1.043409	     -59.782960
	 D(23,21,24,26)   =         0.976962	      55.975794
	 R(12,15)         =         6.874001	       3.637565

	Current energy   :      -314.9834969735

	Energy change for the previous step:
		Projected    :        -0.0000000000
		Actual       :         0.0000000043

	Performing BFGS update.
	Previous computed or guess Hessian on step 1.
	Denominators (dg)(dq) or (dq)(dq) are very small.
	 Skipping Hessian update for step 4.
	Denominators (dg)(dq) or (dq)(dq) are very small.
	 Skipping Hessian update for step 3.
	Denominators (dg)(dq) or (dq)(dq) are very small.
	 Skipping Hessian update for step 2.
	Steps to be used in Hessian update: 1
	Taking RFO optimization step.
	Going to follow RFO solution 1.
	Using RFO vector 1.
	Norm of target step-size    0.00002
	Projected energy change by RFO approximation:        -0.0000000000

	Back-transformation to cartesian coordinates...
	Successfully converged to displaced geometry.

	--- Internal Coordinate Step in ANG or DEG, aJ/ANG or AJ/DEG ---
	 ---------------------------------------------------------------------------
	   Coordinate                Previous        Force       Change         New 
	   ----------                --------       ------       ------       ------
	    1 R(1,2)          =      1.091330     0.000001    -0.000000     1.091330
	    2 R(1,3)          =      1.089766     0.000000    -0.000000     1.089766
	    3 R(1,4)          =      1.089108     0.000001    -0.000000     1.089108
	    4 R(1,9)          =      1.525056    -0.000001    -0.000000     1.525056
	    5 R(5,6)          =      1.089737     0.000002     0.000000     1.089738
	    6 R(5,7)          =      1.090902     0.000003     0.000000     1.090902
	    7 R(5,8)          =      1.090680     0.000003     0.000000     1.090680
	    8 R(5,12)         =      1.523900     0.000002     0.000000     1.523900
	    9 R(9,10)         =      1.093745     0.000000    -0.000000     1.093745
	   10 R(9,11)         =      1.092283    -0.000001    -0.000000     1.092282
	   11 R(9,15)         =      1.527706    -0.000000    -0.000000     1.527706
	   12 R(12,13)        =      1.093977     0.000006     0.000000     1.093978
	   13 R(12,14)        =      1.092485     0.000005     0.000000     1.092485
	   14 R(12,24)        =      1.523945     0.000003     0.000000     1.523946
	   15 R(15,16)        =      1.092773     0.000002    -0.000000     1.092773
	   16 R(15,17)        =      1.095725     0.000001    -0.000000     1.095725
	   17 R(15,18)        =      1.524485    -0.000003    -0.000000     1.524484
	   18 R(18,19)        =      1.092058     0.000004     0.000000     1.092058
	   19 R(18,20)        =      1.093989     0.000007     0.000000     1.093990
	   20 R(18,21)        =      1.529111    -0.000001    -0.000000     1.529111
	   21 R(21,22)        =      1.093890     0.000006     0.000000     1.093890
	   22 R(21,23)        =      1.093895     0.000005     0.000000     1.093895
	   23 R(21,24)        =      1.528193     0.000000    -0.000000     1.528193
	   24 R(24,25)        =      1.093987     0.000004     0.000000     1.093987
	   25 R(24,26)        =      1.093480     0.000006     0.000000     1.093480
	   26 B(1,9,10)       =    109.652503     0.000000     0.000009   109.652513
	   27 B(1,9,11)       =    109.044998     0.000000     0.000001   109.044998
	   28 B(1,9,15)       =    113.513851    -0.000000    -0.000012   113.513840
	   29 B(2,1,3)        =    107.851111     0.000000    -0.000001   107.851110
	   30 B(2,1,4)        =    107.843115    -0.000000    -0.000001   107.843115
	   31 B(2,1,9)        =    110.575580    -0.000000    -0.000016   110.575564
	   32 B(3,1,4)        =    107.548368    -0.000000    -0.000002   107.548366
	   33 B(3,1,9)        =    111.125415    -0.000000     0.000007   111.125423
	   34 B(4,1,9)        =    111.731726     0.000000     0.000012   111.731738
	   35 B(5,12,13)      =    109.865659    -0.000000     0.000008   109.865667
	   36 B(5,12,14)      =    109.355798    -0.000000    -0.000027   109.355771
	   37 B(5,12,24)      =    112.039579     0.000000     0.000014   112.039594
	   38 B(6,5,7)        =    107.897069    -0.000000    -0.000001   107.897068
	   39 B(6,5,8)        =    107.971260     0.000000    -0.000003   107.971258
	   40 B(6,5,12)       =    111.713934    -0.000000    -0.000004   111.713929
	   41 B(7,5,8)        =    107.670184    -0.000000     0.000002   107.670187
	   42 B(7,5,12)       =    110.654172     0.000000     0.000006   110.654178
	   43 B(8,5,12)       =    110.780543    -0.000000    -0.000001   110.780542
	   44 B(9,15,16)      =    108.742002     0.000000    -0.000003   108.741999
	   45 B(9,15,17)      =    109.282227    -0.000000    -0.000017   109.282210
	   46 B(9,15,18)      =    113.569407     0.000000     0.000037   113.569444
	   47 B(10,9,11)      =    106.425905    -0.000000    -0.000004   106.425901
	   48 B(10,9,15)      =    109.015928     0.000000     0.000017   109.015945
	   49 B(11,9,15)      =    108.942289     0.000000    -0.000011   108.942278
	   50 B(12,24,21)     =    113.789672     0.000000    -0.000001   113.789671
	   51 B(12,24,25)     =    108.772100    -0.000000    -0.000001   108.772100
	   52 B(12,24,26)     =    109.112892     0.000000     0.000006   109.112897
	   53 B(13,12,14)     =    106.454262    -0.000000    -0.000001   106.454261
	   54 B(13,12,24)     =    109.165327     0.000000     0.000029   109.165356
	   55 B(14,12,24)     =    109.803583    -0.000000    -0.000023   109.803559
	   56 B(15,18,19)     =    109.657481     0.000000     0.000022   109.657503
	   57 B(15,18,20)     =    109.006517    -0.000000    -0.000031   109.006487
	   58 B(15,18,21)     =    113.479275    -0.000000    -0.000042   113.479233
	   59 B(16,15,17)     =    106.455868    -0.000000    -0.000036   106.455832
	   60 B(16,15,18)     =    109.338748    -0.000000     0.000002   109.338751
	   61 B(17,15,18)     =    109.207460     0.000000     0.000012   109.207472
	   62 B(18,21,22)     =    108.869532     0.000000    -0.000001   108.869531
	   63 B(18,21,23)     =    108.782820     0.000000     0.000017   108.782836
	   64 B(18,21,24)     =    114.662395    -0.000000    -0.000039   114.662356
	   65 B(19,18,20)     =    106.218684     0.000000     0.000030   106.218714
	   66 B(19,18,21)     =    108.258326    -0.000000     0.000017   108.258343
	   67 B(20,18,21)     =    109.965574     0.000000     0.000009   109.965583
	   68 B(21,24,25)     =    108.735522    -0.000000     0.000009   108.735531
	   69 B(21,24,26)     =    110.106281    -0.000000    -0.000034   110.106247
	   70 B(22,21,23)     =    106.457482    -0.000000     0.000010   106.457492
	   71 B(22,21,24)     =    108.740293    -0.000000    -0.000006   108.740288
	   72 B(23,21,24)     =    109.015480     0.000000     0.000022   109.015502
	   73 B(25,24,26)     =    106.024997     0.000000     0.000023   106.025020
	   74 D(1,9,15,16)    =    172.706126    -0.000000    -0.000217   172.705909
	   75 D(1,9,15,17)    =     56.881436     0.000000    -0.000162    56.881274
	   76 D(1,9,15,18)    =    -65.319261    -0.000000    -0.000190   -65.319451
	   77 D(2,1,9,10)     =   -178.083724    -0.000000    -0.000095  -178.083819
	   78 D(2,1,9,11)     =     65.752898    -0.000000    -0.000095    65.752803
	   79 D(2,1,9,15)     =    -55.895853     0.000000    -0.000074   -55.895928
	   80 D(3,1,9,10)     =     62.176315    -0.000000    -0.000088    62.176228
	   81 D(3,1,9,11)     =    -53.987063    -0.000000    -0.000089   -53.987151
	   82 D(3,1,9,15)     =   -175.635814     0.000000    -0.000067  -175.635882
	   83 D(4,1,9,10)     =    -57.954172    -0.000000    -0.000098   -57.954270
	   84 D(4,1,9,11)     =   -174.117550    -0.000000    -0.000099  -174.117649
	   85 D(4,1,9,15)     =     64.233698     0.000000    -0.000078    64.233621
	   86 D(5,12,24,21)   =    175.417722     0.000000     0.000330   175.418052
	   87 D(5,12,24,25)   =     54.046472     0.000000     0.000319    54.046790
	   88 D(5,12,24,26)   =    -61.190158     0.000000     0.000289   -61.189869
	   89 D(6,5,12,13)    =    -58.924485     0.000000    -0.000025   -58.924509
	   90 D(6,5,12,14)    =     57.571883    -0.000000    -0.000037    57.571845
	   91 D(6,5,12,24)    =    179.551322    -0.000000    -0.000076   179.551245
	   92 D(7,5,12,13)    =   -179.163911     0.000000    -0.000025  -179.163936
	   93 D(7,5,12,14)    =    -62.667543    -0.000000    -0.000038   -62.667581
	   94 D(7,5,12,24)    =     59.311895    -0.000000    -0.000077    59.311818
	   95 D(8,5,12,13)    =     61.495319     0.000000    -0.000032    61.495287
	   96 D(8,5,12,14)    =    177.991686    -0.000000    -0.000044   177.991642
	   97 D(8,5,12,24)    =    -60.028875    -0.000000    -0.000083   -60.028958
	   98 D(9,15,18,19)   =     57.359089    -0.000000     0.000053    57.359142
	   99 D(9,15,18,20)   =    -58.536701    -0.000000     0.000022   -58.536679
	  100 D(9,15,18,21)   =    178.549952    -0.000000     0.000062   178.550015
	  101 D(10,9,15,16)   =    -64.753566    -0.000000    -0.000200   -64.753766
	  102 D(10,9,15,17)   =    179.421744     0.000000    -0.000146   179.421598
	  103 D(10,9,15,18)   =     57.221047    -0.000000    -0.000174    57.220873
	  104 D(11,9,15,16)   =     51.000083    -0.000000    -0.000202    50.999881
	  105 D(11,9,15,17)   =    -64.824607     0.000000    -0.000147   -64.824754
	  106 D(11,9,15,18)   =    172.974696    -0.000000    -0.000175   172.974520
	  107 D(12,24,21,18)  =     56.617845     0.000000    -0.000024    56.617821
	  108 D(12,24,21,22)  =    -65.494064     0.000000     0.000008   -65.494056
	  109 D(12,24,21,23)  =    178.825428     0.000000    -0.000012   178.825416
	  110 D(13,12,24,21)  =     53.492024     0.000000     0.000290    53.492314
	  111 D(13,12,24,25)  =    -67.879226     0.000000     0.000279   -67.878947
	  112 D(13,12,24,26)  =    176.884144     0.000000     0.000249   176.884393
	  113 D(14,12,24,21)  =    -62.859204     0.000000     0.000288   -62.858916
	  114 D(14,12,24,25)  =    175.769545     0.000000     0.000278   175.769823
	  115 D(14,12,24,26)  =     60.532916    -0.000000     0.000247    60.533163
	  116 D(15,18,21,22)  =    179.501732    -0.000000     0.000148   179.501880
	  117 D(15,18,21,23)  =    -64.873683     0.000000     0.000168   -64.873516
	  118 D(15,18,21,24)  =     57.460042     0.000000     0.000182    57.460225
	  119 D(16,15,18,19)  =    179.001653     0.000000     0.000077   179.001730
	  120 D(16,15,18,20)  =     63.105863     0.000000     0.000046    63.105909
	  121 D(16,15,18,21)  =    -59.807484     0.000000     0.000086   -59.807398
	  122 D(17,15,18,19)  =    -64.883024     0.000000     0.000041   -64.882983
	  123 D(17,15,18,20)  =    179.221186     0.000000     0.000010   179.221197
	  124 D(17,15,18,21)  =     56.307840    -0.000000     0.000050    56.307890
	  125 D(18,21,24,25)  =    178.009457     0.000000    -0.000019   178.009438
	  126 D(18,21,24,26)  =    -66.231789    -0.000000    -0.000004   -66.231793
	  127 D(19,18,21,22)  =    -58.525587    -0.000000     0.000160   -58.525426
	  128 D(19,18,21,23)  =     57.098998    -0.000000     0.000180    57.099178
	  129 D(19,18,21,24)  =    179.432723     0.000000     0.000195   179.432918
	  130 D(20,18,21,22)  =     57.118043     0.000000     0.000211    57.118254
	  131 D(20,18,21,23)  =    172.742627     0.000000     0.000231   172.742858
	  132 D(20,18,21,24)  =    -64.923647     0.000000     0.000245   -64.923402
	  133 D(22,21,24,25)  =     55.897548     0.000000     0.000013    55.897561
	  134 D(22,21,24,26)  =    171.656302     0.000000     0.000028   171.656329
	  135 D(23,21,24,25)  =    -59.782960     0.000000    -0.000007   -59.782967
	  136 D(23,21,24,26)  =     55.975794    -0.000000     0.000007    55.975801
	  137 R(12,15)        =      3.637565     0.000000     0.000001     3.637566
	 ---------------------------------------------------------------------------

  ==> Convergence Check <==

  Measures of convergence in internal coordinates in au.
  Criteria marked as inactive (o), active & met (*), and active & unmet ( ).
  ---------------------------------------------------------------------------------------------
   Step     Total Energy     Delta E     MAX Force     RMS Force      MAX Disp      RMS Disp   
  ---------------------------------------------------------------------------------------------
    Convergence Criteria             o    2.00e-06 *    1.00e-06 *    6.00e-06 *    4.00e-06 *
  ---------------------------------------------------------------------------------------------
      5    -314.98349697    4.32e-09 o    8.14e-07 *    1.85e-07 *    5.75e-06 *    1.85e-06 *  ~
  ---------------------------------------------------------------------------------------------


  **** Optimization is complete! (in 5 steps) ****

  ==> Optimization Summary <==

  Measures of convergence in internal coordinates in au.
  --------------------------------------------------------------------------------------------------------------- ~
   Step         Total Energy             Delta E       MAX Force       RMS Force        MAX Disp        RMS Disp  ~
  --------------------------------------------------------------------------------------------------------------- ~
      1    -314.983496977396   -314.983496977396      0.00000104      0.00000023      0.00001973      0.00000733  ~
      2    -314.983496975180      0.000000002216      0.00000070      0.00000014      0.00002045      0.00000737  ~
      3    -314.983496974652      0.000000000528      0.00000167      0.00000033      0.00001982      0.00000628  ~
      4    -314.983496977801     -0.000000003149      0.00000175      0.00000043      0.00001181      0.00000439  ~
      5    -314.983496973480      0.000000004321      0.00000081      0.00000018      0.00000575      0.00000185  ~
  --------------------------------------------------------------------------------------------------------------- ~

	Writing optimization data to binary file.
	Final energy is   -314.9834969734797
	Final (previous) structure:
	Cartesian Geometry (in Angstrom)
	    C     3.6583037081   0.1472444194  -0.1765611509
	    H     3.9142193431  -0.4556157971   0.6964036308
	    H     4.5282012099   0.7521319296  -0.4314735136
	    H     3.4749103734  -0.5312348972  -1.0085405091
	    C    -3.4825662583   1.0619674257  -0.0140882715
	    H    -3.8486113879   1.7828379905  -0.7447621133
	    H    -3.2621365109   1.6016974105   0.9079575302
	    H    -4.2890715639   0.3591406297   0.1984372812
	    C     2.4451988107   1.0243484478   0.1147492930
	    H     2.1813348376   1.5960212815  -0.7795908758
	    H     2.7099876506   1.7555550407   0.8817596425
	    C    -2.2448444116   0.3287008015  -0.5167161485
	    H    -2.4761248318  -0.1954438551  -1.4486860052
	    H    -1.4653693556   1.0558512828  -0.7558680448
	    C     1.2218412640   0.2371802314   0.5812778284
	    H     0.4471462606   0.9430759612   0.8906518746
	    H     1.4843045669  -0.3454024067   1.4714038865
	    C     0.6570876712  -0.6982215889  -0.4817978396
	    H     1.4324848222  -1.3947646955  -0.8076468021
	    H     0.3832976837  -0.1114424556  -1.3635812783
	    C    -0.5457733005  -1.5109138026  -0.0013421745
	    H    -0.8939741946  -2.1458838736  -0.8211979307
	    H    -0.2195238603  -2.1852190741   0.7958282621
	    C    -1.7201049731  -0.6737641838   0.5041276400
	    H    -2.5348168863  -1.3464834713   0.7878526837
	    H    -1.4369798887  -0.1410979200   1.4161611909
	Saving final (previous) structure.
			--------------------------
			 OPTKING Finished Execution 
			--------------------------

    Final optimized geometry and variables:
    Molecular point group: c1
    Full point group: C1

    Geometry (in Angstrom), charge = 0, multiplicity = 1:

    C            3.658303708093     0.147244419414    -0.176561150940
    H            3.914219343056    -0.455615797118     0.696403630766
    H            4.528201209940     0.752131929599    -0.431473513575
    H            3.474910373424    -0.531234897220    -1.008540509098
    C           -3.482566258306     1.061967425688    -0.014088271537
    H           -3.848611387903     1.782837990490    -0.744762113307
    H           -3.262136510851     1.601697410490     0.907957530226
    H           -4.289071563860     0.359140629652     0.198437281155
    C            2.445198810671     1.024348447762     0.114749293039
    H            2.181334837552     1.596021281472    -0.779590875846
    H            2.709987650628     1.755555040657     0.881759642485
    C           -2.244844411599     0.328700801484    -0.516716148497
    H           -2.476124831761    -0.195443855113    -1.448686005221
    H           -1.465369355589     1.055851282844    -0.755868044756
    C            1.221841264011     0.237180231394     0.581277828448
    H            0.447146260555     0.943075961220     0.890651874560
    H            1.484304566867    -0.345402406675     1.471403886521
    C            0.657087671218    -0.698221588874    -0.481797839551
    H            1.432484822175    -1.394764695514    -0.807646802099
    H            0.383297683695    -0.111442455647    -1.363581278347
    C           -0.545773300518    -1.510913802646    -0.001342174526
    H           -0.893974194595    -2.145883873610    -0.821197930677
    H           -0.219523860293    -2.185219074086     0.795828262140
    C           -1.720104973126    -0.673764183816     0.504127639981
    H           -2.534816886275    -1.346483471251     0.787852683679
    H           -1.436979888696    -0.141097920033     1.416161190855

	Cleaning optimization helper files.

*** Psi4 exiting successfully. Buy a developer a beer!
