    -----------------------------------------------------------------------
          Psi4: An Open-Source Ab Initio Electronic Structure Package
                              Psi4 1.0.0 Driver

                          Git: Rev {master} 6a9a71b dirty

    J. M. Turney, A. C. Simmonett, R. M. Parrish, E. G. Hohenstein,
    F. A. Evangelista, J. T. Fermann, B. J. Mintz, L. A. Burns, J. J. Wilke,
    M. L. Abrams, N. J. Russ, M. L. Leininger, C. L. Janssen, E. T. Seidl,
    W. D. Allen, H. F. Schaefer, R. A. King, E. F. Valeev, C. D. Sherrill,
    and T. D. Crawford, WIREs Comput. Mol. Sci. 2, 556-565 (2012)
    (doi: 10.1002/wcms.93)

                         Additional Contributions by
    A. E. DePrince, U. Bozkaya, A. Yu. Sokolov, D. G. A. Smith, R. Di Remigio,
    R. M. Richard, J. F. Gonthier, H. R. McAlexander, M. Saitow, and
    B. P. Pritchard
    -----------------------------------------------------------------------


    Psi4 started on: Wed Sep 21 09:02:44 2016

    Process ID:  45234
    PSI4DATADIR: /usr/local/hpc5/psi4conda/share/psi4
    Memory level set to 256.000 MB

  ==> Input File <==

--------------------------------------------------------------------------
memory 60 Gb

molecule molecule_91_psi {
0 1
C            2.341577435331    -1.121853332969    -0.958621666275
H            2.519824155773    -0.415013001286    -1.770505537937
H            1.301659034781    -1.443212577636    -1.017376221023
H            2.966790214928    -1.997616580364    -1.132381943305
C           -2.720850038853    -0.894197877298     0.986736034589
H           -3.030622314436    -1.932505713845     1.107679634115
H           -3.558551509098    -0.259632677917     1.279088760651
H           -1.905528725385    -0.702486050334     1.682594824296
C            2.652910179718    -0.488783908995     0.392789488631
H            3.721805734128    -0.269880576435     0.449737529243
H            2.442910890202    -1.211708917088     1.186006511943
C           -2.314228236199    -0.598894339505    -0.454560318409
H           -1.528351619877    -1.292025640774    -0.769429083052
H           -3.170731881417    -0.799868379813    -1.100768531593
C            1.868727851153     0.791523855506     0.679181352850
H            2.141487062272     1.555259935952    -0.056145443668
H            2.187112888339     1.174548705562     1.650977862542
C            0.343958953353     0.603506034477     0.672757074855
H           -0.108492293035     1.196758448312     1.472233327758
H            0.116276807614    -0.441706800948     0.901103494985
C           -0.313076580956     1.005315367759    -0.645317705779
H           -0.061471564679     2.050754548712    -0.847700330452
H            0.118676922349     0.423300138033    -1.463502322604
C           -1.832090308412     0.843350793061    -0.674277630873
H           -2.282084701954     1.492516846443     0.083778892230
H           -2.191351127968     1.205960060615    -1.639753347637
}

set globals {
  reference rhf
  g_convergence gau_verytight
  basis aug-cc-pvtz
  freeze_core true
  scf_type df
  mp_type df
}
optimize('mp2')
--------------------------------------------------------------------------
/usr/local/hpc5/psi4conda/lib/python2.7/site-packages/v2rdm_casscf/v2rdm_casscf.so loaded.

  Memory set to  60.000 GiB by Python script.
gradient() will perform analytic gradient computation.

*** tstart() called on wr37
*** at Wed Sep 21 09:02:44 2016


         ---------------------------------------------------------
                                   SCF
            by Justin Turney, Rob Parrish, and Andy Simmonett
                              RHF Reference
                       12 Threads,  60000 MiB Core
         ---------------------------------------------------------

  ==> Geometry <==

    Molecular point group: c1
    Full point group: C1

    Geometry (in Angstrom), charge = 0, multiplicity = 1:

       Center              X                  Y                   Z               Mass       
    ------------   -----------------  -----------------  -----------------  -----------------
           C          2.341577435331    -1.121853332969    -0.958621666275    12.000000000000
           H          2.519824155773    -0.415013001286    -1.770505537937     1.007825032070
           H          1.301659034781    -1.443212577636    -1.017376221023     1.007825032070
           H          2.966790214928    -1.997616580364    -1.132381943305     1.007825032070
           C         -2.720850038853    -0.894197877298     0.986736034589    12.000000000000
           H         -3.030622314436    -1.932505713845     1.107679634115     1.007825032070
           H         -3.558551509098    -0.259632677917     1.279088760651     1.007825032070
           H         -1.905528725385    -0.702486050334     1.682594824296     1.007825032070
           C          2.652910179718    -0.488783908995     0.392789488631    12.000000000000
           H          3.721805734128    -0.269880576435     0.449737529243     1.007825032070
           H          2.442910890202    -1.211708917088     1.186006511943     1.007825032070
           C         -2.314228236199    -0.598894339505    -0.454560318409    12.000000000000
           H         -1.528351619877    -1.292025640774    -0.769429083052     1.007825032070
           H         -3.170731881417    -0.799868379813    -1.100768531593     1.007825032070
           C          1.868727851153     0.791523855506     0.679181352850    12.000000000000
           H          2.141487062272     1.555259935952    -0.056145443668     1.007825032070
           H          2.187112888339     1.174548705562     1.650977862542     1.007825032070
           C          0.343958953353     0.603506034477     0.672757074855    12.000000000000
           H         -0.108492293035     1.196758448312     1.472233327758     1.007825032070
           H          0.116276807614    -0.441706800948     0.901103494985     1.007825032070
           C         -0.313076580956     1.005315367759    -0.645317705779    12.000000000000
           H         -0.061471564679     2.050754548712    -0.847700330452     1.007825032070
           H          0.118676922349     0.423300138033    -1.463502322604     1.007825032070
           C         -1.832090308412     0.843350793061    -0.674277630873    12.000000000000
           H         -2.282084701954     1.492516846443     0.083778892230     1.007825032070
           H         -2.191351127968     1.205960060615    -1.639753347637     1.007825032070

  Running in c1 symmetry.

  Rotational constants: A =      0.10098  B =      0.03025  C =      0.02930 [cm^-1]
  Rotational constants: A =   3027.19701  B =    906.74824  C =    878.34983 [MHz]
  Nuclear repulsion =  401.424553443483433

  Charge       = 0
  Multiplicity = 1
  Electrons    = 66
  Nalpha       = 33
  Nbeta        = 33

  ==> Algorithm <==

  SCF Algorithm Type is DF.
  DIIS enabled.
  MOM disabled.
  Fractional occupation disabled.
  Guess Type is SAD.
  Energy threshold   = 1.00e-10
  Density threshold  = 1.00e-10
  Integral threshold = 0.00e+00

  ==> Primary Basis <==

  Basis Set: AUG-CC-PVTZ
    Number of shells: 274
    Number of basis function: 782
    Number of Cartesian functions: 890
    Spherical Harmonics?: true
    Max angular momentum: 3

  ==> Pre-Iterations <==

   -------------------------------------------------------
    Irrep   Nso     Nmo     Nalpha   Nbeta   Ndocc  Nsocc
   -------------------------------------------------------
     A        782     782       0       0       0       0
   -------------------------------------------------------
    Total     782     782      33      33      33       0
   -------------------------------------------------------

  ==> Integral Setup <==

  ==> DFJK: Density-Fitted J/K Matrices <==

    J tasked:                  Yes
    K tasked:                  Yes
    wK tasked:                  No
    OpenMP threads:             12
    Integrals threads:          12
    Memory (MB):             42915
    Algorithm:                Core
    Integral Cache:           NONE
    Schwarz Cutoff:          1E-12
    Fitting Condition:       1E-12

   => Auxiliary Basis Set <=

  Basis Set: 
    Number of shells: 492
    Number of basis function: 1660
    Number of Cartesian functions: 2038
    Spherical Harmonics?: true
    Max angular momentum: 4

  Minimum eigenvalue in the overlap matrix is 1.5996482299E-06.
  Using Symmetric Orthogonalization.
  SCF Guess: Superposition of Atomic Densities via on-the-fly atomic UHF.

  ==> Iterations <==

                           Total Energy        Delta E     RMS |[F,P]|

   @DF-RHF iter   0:  -316.98087930310169   -3.16981e+02   7.00791e-03 
   @DF-RHF iter   1:  -313.27777728359422    3.70310e+00   7.44549e-04 
   @DF-RHF iter   2:  -313.49702085745218   -2.19244e-01   2.90466e-04 DIIS
   @DF-RHF iter   3:  -313.52780355139430   -3.07827e-02   1.07174e-04 DIIS
   @DF-RHF iter   4:  -313.53346515134342   -5.66160e-03   1.61726e-05 DIIS
   @DF-RHF iter   5:  -313.53365596526896   -1.90814e-04   4.17810e-06 DIIS
   @DF-RHF iter   6:  -313.53366732802226   -1.13628e-05   1.33424e-06 DIIS
   @DF-RHF iter   7:  -313.53366835314819   -1.02513e-06   2.86088e-07 DIIS
   @DF-RHF iter   8:  -313.53366841575144   -6.26032e-08   7.48878e-08 DIIS
   @DF-RHF iter   9:  -313.53366842002288   -4.27144e-09   2.13084e-08 DIIS
   @DF-RHF iter  10:  -313.53366842032403   -3.01156e-10   6.61860e-09 DIIS
   @DF-RHF iter  11:  -313.53366842035064   -2.66027e-11   1.51422e-09 DIIS
   @DF-RHF iter  12:  -313.53366842035257   -1.93268e-12   4.00729e-10 DIIS
   @DF-RHF iter  13:  -313.53366842035302   -4.54747e-13   1.35151e-10 DIIS
   @DF-RHF iter  14:  -313.53366842035337   -3.41061e-13   3.08962e-11 DIIS

  ==> Post-Iterations <==

    Orbital Energies (a.u.)
    -----------------------

    Doubly Occupied:                                                      

       1A    -11.213464     2A    -11.212963     3A    -11.210585  
       4A    -11.210249     5A    -11.209866     6A    -11.209298  
       7A    -11.207310     8A    -11.206133     9A     -1.093291  
      10A     -1.058837    11A     -1.004633    12A     -0.950475  
      13A     -0.888323    14A     -0.827241    15A     -0.778431  
      16A     -0.767650    17A     -0.643181    18A     -0.625166  
      19A     -0.615553    20A     -0.595170    21A     -0.577187  
      22A     -0.559696    23A     -0.542981    24A     -0.530693  
      25A     -0.512234    26A     -0.503108    27A     -0.494680  
      28A     -0.475813    29A     -0.465203    30A     -0.460417  
      31A     -0.442010    32A     -0.440485    33A     -0.429091  

    Virtual:                                                              

      34A      0.028845    35A      0.032860    36A      0.034341  
      37A      0.034961    38A      0.046783    39A      0.048441  
      40A      0.049004    41A      0.053613    42A      0.054984  
      43A      0.068771    44A      0.069426    45A      0.070659  
      46A      0.073050    47A      0.075429    48A      0.088018  
      49A      0.095117    50A      0.100280    51A      0.104731  
      52A      0.113945    53A      0.117154    54A      0.121205  
      55A      0.122774    56A      0.127599    57A      0.131074  
      58A      0.133048    59A      0.133605    60A      0.140587  
      61A      0.143695    62A      0.144363    63A      0.147515  
      64A      0.153426    65A      0.156470    66A      0.162035  
      67A      0.167524    68A      0.169083    69A      0.172942  
      70A      0.177148    71A      0.177967    72A      0.181170  
      73A      0.186063    74A      0.193958    75A      0.195813  
      76A      0.201080    77A      0.209535    78A      0.220536  
      79A      0.229596    80A      0.230871    81A      0.231533  
      82A      0.244436    83A      0.253112    84A      0.259878  
      85A      0.266977    86A      0.276637    87A      0.279819  
      88A      0.284708    89A      0.292802    90A      0.295983  
      91A      0.304849    92A      0.306619    93A      0.311122  
      94A      0.311257    95A      0.316871    96A      0.320087  
      97A      0.321823    98A      0.327366    99A      0.331832  
     100A      0.335316   101A      0.340904   102A      0.346853  
     103A      0.350064   104A      0.352089   105A      0.357211  
     106A      0.358900   107A      0.365628   108A      0.368554  
     109A      0.371620   110A      0.375188   111A      0.377158  
     112A      0.380642   113A      0.383654   114A      0.385727  
     115A      0.387412   116A      0.398061   117A      0.398818  
     118A      0.405047   119A      0.406220   120A      0.412537  
     121A      0.417415   122A      0.422232   123A      0.429222  
     124A      0.431619   125A      0.433850   126A      0.438044  
     127A      0.441157   128A      0.442161   129A      0.452226  
     130A      0.457761   131A      0.459100   132A      0.463798  
     133A      0.470898   134A      0.471921   135A      0.473250  
     136A      0.476107   137A      0.479889   138A      0.482772  
     139A      0.486556   140A      0.490266   141A      0.495779  
     142A      0.499779   143A      0.503781   144A      0.508508  
     145A      0.512629   146A      0.518840   147A      0.521432  
     148A      0.526654   149A      0.531461   150A      0.535657  
     151A      0.539425   152A      0.547104   153A      0.549384  
     154A      0.550894   155A      0.554582   156A      0.556407  
     157A      0.562056   158A      0.566525   159A      0.570744  
     160A      0.572589   161A      0.580921   162A      0.582367  
     163A      0.587449   164A      0.588627   165A      0.598865  
     166A      0.601369   167A      0.606736   168A      0.614851  
     169A      0.616776   170A      0.621163   171A      0.629288  
     172A      0.632388   173A      0.638021   174A      0.642156  
     175A      0.648185   176A      0.650165   177A      0.653834  
     178A      0.660290   179A      0.665999   180A      0.672504  
     181A      0.677192   182A      0.680644   183A      0.684885  
     184A      0.692777   185A      0.694611   186A      0.701856  
     187A      0.705188   188A      0.713018   189A      0.716115  
     190A      0.720408   191A      0.729375   192A      0.732624  
     193A      0.737932   194A      0.745097   195A      0.753867  
     196A      0.762335   197A      0.769346   198A      0.775962  
     199A      0.784675   200A      0.797794   201A      0.802403  
     202A      0.813235   203A      0.817603   204A      0.822614  
     205A      0.827180   206A      0.836190   207A      0.847868  
     208A      0.850272   209A      0.855641   210A      0.861341  
     211A      0.868731   212A      0.873849   213A      0.880868  
     214A      0.885357   215A      0.891578   216A      0.894602  
     217A      0.895426   218A      0.909002   219A      0.910581  
     220A      0.915285   221A      0.921288   222A      0.926347  
     223A      0.932502   224A      0.934798   225A      0.941968  
     226A      0.949044   227A      0.952449   228A      0.957884  
     229A      0.961911   230A      0.969905   231A      0.973197  
     232A      0.978567   233A      0.985654   234A      0.989451  
     235A      0.991924   236A      0.995704   237A      0.998554  
     238A      1.006399   239A      1.008955   240A      1.015997  
     241A      1.017058   242A      1.027466   243A      1.028858  
     244A      1.038964   245A      1.045669   246A      1.054321  
     247A      1.056877   248A      1.058062   249A      1.061445  
     250A      1.069943   251A      1.071318   252A      1.082016  
     253A      1.085455   254A      1.095902   255A      1.096556  
     256A      1.102447   257A      1.106901   258A      1.112320  
     259A      1.122115   260A      1.128020   261A      1.129312  
     262A      1.134220   263A      1.139714   264A      1.148393  
     265A      1.151083   266A      1.154732   267A      1.162412  
     268A      1.166980   269A      1.173135   270A      1.177011  
     271A      1.186824   272A      1.189555   273A      1.197024  
     274A      1.197638   275A      1.207338   276A      1.212481  
     277A      1.214978   278A      1.217383   279A      1.228840  
     280A      1.238402   281A      1.242491   282A      1.246860  
     283A      1.250604   284A      1.257452   285A      1.260909  
     286A      1.266201   287A      1.269649   288A      1.269960  
     289A      1.275584   290A      1.289381   291A      1.296739  
     292A      1.297397   293A      1.300212   294A      1.316843  
     295A      1.322023   296A      1.323841   297A      1.331994  
     298A      1.333706   299A      1.340353   300A      1.348663  
     301A      1.352049   302A      1.358085   303A      1.364037  
     304A      1.366924   305A      1.373334   306A      1.376584  
     307A      1.387695   308A      1.393452   309A      1.407177  
     310A      1.411150   311A      1.412602   312A      1.416812  
     313A      1.427389   314A      1.434733   315A      1.438869  
     316A      1.452223   317A      1.459948   318A      1.462745  
     319A      1.478544   320A      1.479369   321A      1.494334  
     322A      1.501005   323A      1.512090   324A      1.518538  
     325A      1.524021   326A      1.531353   327A      1.538617  
     328A      1.541289   329A      1.552644   330A      1.561448  
     331A      1.563494   332A      1.570428   333A      1.574221  
     334A      1.581959   335A      1.590148   336A      1.597832  
     337A      1.605041   338A      1.608999   339A      1.615171  
     340A      1.617502   341A      1.630524   342A      1.640293  
     343A      1.645729   344A      1.654113   345A      1.663881  
     346A      1.674090   347A      1.679770   348A      1.683524  
     349A      1.687712   350A      1.698304   351A      1.704447  
     352A      1.712209   353A      1.712753   354A      1.720395  
     355A      1.726297   356A      1.732989   357A      1.736926  
     358A      1.738223   359A      1.747219   360A      1.751762  
     361A      1.756643   362A      1.761257   363A      1.767300  
     364A      1.773647   365A      1.776039   366A      1.787439  
     367A      1.794829   368A      1.797882   369A      1.804520  
     370A      1.809586   371A      1.812774   372A      1.821890  
     373A      1.822089   374A      1.833173   375A      1.842053  
     376A      1.847417   377A      1.859596   378A      1.865073  
     379A      1.866685   380A      1.869275   381A      1.873988  
     382A      1.883710   383A      1.886615   384A      1.899310  
     385A      1.902837   386A      1.909022   387A      1.917952  
     388A      1.927190   389A      1.934245   390A      1.940243  
     391A      1.947315   392A      1.950091   393A      1.955382  
     394A      1.964006   395A      1.974089   396A      1.982256  
     397A      1.990533   398A      1.993599   399A      1.999660  
     400A      2.008935   401A      2.010154   402A      2.013098  
     403A      2.030723   404A      2.035440   405A      2.038503  
     406A      2.048158   407A      2.052964   408A      2.067986  
     409A      2.077044   410A      2.080512   411A      2.083318  
     412A      2.087218   413A      2.101039   414A      2.104294  
     415A      2.110187   416A      2.120256   417A      2.128929  
     418A      2.144929   419A      2.151638   420A      2.155793  
     421A      2.162570   422A      2.167319   423A      2.180415  
     424A      2.189236   425A      2.202419   426A      2.209991  
     427A      2.213447   428A      2.225607   429A      2.232998  
     430A      2.241232   431A      2.248041   432A      2.256574  
     433A      2.270822   434A      2.275264   435A      2.284203  
     436A      2.290485   437A      2.304080   438A      2.316759  
     439A      2.319534   440A      2.321937   441A      2.337037  
     442A      2.347049   443A      2.349166   444A      2.361468  
     445A      2.367964   446A      2.374781   447A      2.379873  
     448A      2.387438   449A      2.394478   450A      2.398603  
     451A      2.406369   452A      2.420780   453A      2.427942  
     454A      2.439615   455A      2.464988   456A      2.470465  
     457A      2.481754   458A      2.492010   459A      2.496303  
     460A      2.506105   461A      2.515719   462A      2.526538  
     463A      2.544061   464A      2.557872   465A      2.561620  
     466A      2.571973   467A      2.578623   468A      2.589216  
     469A      2.590215   470A      2.607877   471A      2.611733  
     472A      2.631343   473A      2.640880   474A      2.659265  
     475A      2.668011   476A      2.680165   477A      2.716551  
     478A      2.727893   479A      2.737615   480A      2.769231  
     481A      2.795590   482A      2.814048   483A      2.833556  
     484A      2.865148   485A      2.913021   486A      2.977998  
     487A      3.008106   488A      3.071627   489A      3.106490  
     490A      3.147303   491A      3.210849   492A      3.247673  
     493A      3.289155   494A      3.352212   495A      3.380580  
     496A      3.415839   497A      3.438689   498A      3.448518  
     499A      3.458792   500A      3.474520   501A      3.493449  
     502A      3.517712   503A      3.531257   504A      3.541815  
     505A      3.559108   506A      3.560420   507A      3.572811  
     508A      3.580386   509A      3.599100   510A      3.606193  
     511A      3.610677   512A      3.623033   513A      3.634968  
     514A      3.645203   515A      3.656950   516A      3.669226  
     517A      3.678276   518A      3.689839   519A      3.696900  
     520A      3.712603   521A      3.719161   522A      3.722918  
     523A      3.737663   524A      3.751993   525A      3.760589  
     526A      3.766148   527A      3.768766   528A      3.773301  
     529A      3.786374   530A      3.794999   531A      3.803076  
     532A      3.814532   533A      3.816611   534A      3.829241  
     535A      3.838807   536A      3.848855   537A      3.859367  
     538A      3.865721   539A      3.871237   540A      3.875463  
     541A      3.875993   542A      3.890940   543A      3.897010  
     544A      3.911352   545A      3.917318   546A      3.925934  
     547A      3.932842   548A      3.944069   549A      3.946752  
     550A      3.949219   551A      3.952299   552A      3.965986  
     553A      3.977066   554A      3.986486   555A      3.993906  
     556A      4.003458   557A      4.005297   558A      4.021506  
     559A      4.022241   560A      4.030446   561A      4.044155  
     562A      4.049086   563A      4.053428   564A      4.059555  
     565A      4.067413   566A      4.074478   567A      4.089737  
     568A      4.093822   569A      4.101792   570A      4.104458  
     571A      4.112259   572A      4.120028   573A      4.127277  
     574A      4.133904   575A      4.147057   576A      4.149492  
     577A      4.160993   578A      4.173550   579A      4.187479  
     580A      4.196185   581A      4.202108   582A      4.210316  
     583A      4.217038   584A      4.232882   585A      4.249664  
     586A      4.254522   587A      4.258538   588A      4.269568  
     589A      4.280439   590A      4.283893   591A      4.290679  
     592A      4.303930   593A      4.311582   594A      4.321760  
     595A      4.332813   596A      4.348369   597A      4.351525  
     598A      4.361527   599A      4.372791   600A      4.382102  
     601A      4.389810   602A      4.398431   603A      4.412645  
     604A      4.430664   605A      4.440657   606A      4.442635  
     607A      4.454438   608A      4.469052   609A      4.484791  
     610A      4.487478   611A      4.511390   612A      4.531704  
     613A      4.536696   614A      4.548467   615A      4.563013  
     616A      4.565609   617A      4.584561   618A      4.599768  
     619A      4.615142   620A      4.632371   621A      4.636353  
     622A      4.650786   623A      4.659133   624A      4.670564  
     625A      4.691958   626A      4.706095   627A      4.708344  
     628A      4.710761   629A      4.724575   630A      4.739925  
     631A      4.746844   632A      4.761042   633A      4.773276  
     634A      4.777911   635A      4.795346   636A      4.810719  
     637A      4.823123   638A      4.833263   639A      4.840536  
     640A      4.852560   641A      4.855455   642A      4.865558  
     643A      4.884579   644A      4.892930   645A      4.898070  
     646A      4.920715   647A      4.926958   648A      4.941480  
     649A      4.947027   650A      4.957986   651A      4.963002  
     652A      4.970186   653A      4.989207   654A      4.997598  
     655A      5.002264   656A      5.010226   657A      5.019509  
     658A      5.034949   659A      5.050610   660A      5.062210  
     661A      5.077309   662A      5.095696   663A      5.104142  
     664A      5.130879   665A      5.134102   666A      5.148658  
     667A      5.157776   668A      5.158226   669A      5.171981  
     670A      5.177944   671A      5.179062   672A      5.201774  
     673A      5.216456   674A      5.222393   675A      5.229021  
     676A      5.249357   677A      5.265423   678A      5.275032  
     679A      5.279135   680A      5.300763   681A      5.315269  
     682A      5.324567   683A      5.332484   684A      5.347794  
     685A      5.353211   686A      5.378919   687A      5.381048  
     688A      5.389607   689A      5.398375   690A      5.404445  
     691A      5.410179   692A      5.429524   693A      5.436509  
     694A      5.451877   695A      5.454900   696A      5.463386  
     697A      5.477405   698A      5.487981   699A      5.494147  
     700A      5.510460   701A      5.518303   702A      5.525797  
     703A      5.541755   704A      5.561756   705A      5.578312  
     706A      5.599245   707A      5.617970   708A      5.620872  
     709A      5.630948   710A      5.638041   711A      5.662406  
     712A      5.666342   713A      5.684743   714A      5.686637  
     715A      5.694373   716A      5.699181   717A      5.720370  
     718A      5.731221   719A      5.742304   720A      5.746193  
     721A      5.754867   722A      5.775283   723A      5.792376  
     724A      5.815286   725A      5.826140   726A      5.841295  
     727A      5.857067   728A      5.875922   729A      5.888778  
     730A      5.914018   731A      5.961152   732A      5.968029  
     733A      5.988524   734A      6.029402   735A      6.052484  
     736A      6.054781   737A      6.066244   738A      6.090894  
     739A      6.119266   740A      6.128266   741A      6.165368  
     742A      6.171410   743A      6.185635   744A      6.210144  
     745A      6.244262   746A      6.256330   747A      6.267312  
     748A      6.302193   749A      6.305764   750A      6.319752  
     751A      6.329237   752A      6.338041   753A      6.360873  
     754A      6.381751   755A      6.413166   756A      6.429856  
     757A      6.459143   758A      6.474307   759A      6.627920  
     760A      6.655976   761A      6.667099   762A      6.691951  
     763A      6.765179   764A      6.807650   765A      6.826569  
     766A      6.868039   767A      6.917088   768A      6.939603  
     769A      6.980143   770A      6.986503   771A      7.050573  
     772A      7.060090   773A      7.082115   774A      7.151404  
     775A     18.002576   776A     18.083999   777A     18.443169  
     778A     18.596998   779A     19.104683   780A     19.346914  
     781A     19.742195   782A     20.011697  

    Final Occupation by Irrep:
              A 
    DOCC [    33 ]

  Energy converged.

  @DF-RHF Final Energy:  -313.53366842035337

   => Energetics <=

    Nuclear Repulsion Energy =            401.4245534434834326
    One-Electron Energy =               -1217.9936029135733406
    Two-Electron Energy =                 503.0353810497367704
    DFT Exchange-Correlation Energy =       0.0000000000000000
    Empirical Dispersion Energy =           0.0000000000000000
    PCM Polarization Energy =               0.0000000000000000
    EFP Energy =                            0.0000000000000000
    Total Energy =                       -313.5336684203531377


  Saving occupied orbitals to File 180.

*** tstop() called on wr37 at Wed Sep 21 09:03:56 2016
Module time:
	user time   =     777.10 seconds =      12.95 minutes
	system time =      10.31 seconds =       0.17 minutes
	total time  =         72 seconds =       1.20 minutes
Total time:
	user time   =     777.10 seconds =      12.95 minutes
	system time =      10.31 seconds =       0.17 minutes
	total time  =         72 seconds =       1.20 minutes


Properties will be evaluated at   0.000000,   0.000000,   0.000000 Bohr

Properties computed using the SCF density matrix

  Nuclear Dipole Moment: (a.u.)
     X:    -0.3006      Y:    -1.5623      Z:     0.0147

  Electronic Dipole Moment: (a.u.)
     X:     0.3211      Y:     1.5781      Z:    -0.0189

  Dipole Moment: (a.u.)
     X:     0.0205      Y:     0.0158      Z:    -0.0043     Total:     0.0262

  Dipole Moment: (Debye)
     X:     0.0521      Y:     0.0401      Z:    -0.0108     Total:     0.0666


  //>>>>>>>>>>>>>>>>>>>>>>>>>>>>>>>>>>>//
  //               DFMP2               //
  //<<<<<<<<<<<<<<<<<<<<<<<<<<<<<<<<<<<//


*** tstart() called on wr37
*** at Wed Sep 21 09:03:56 2016


*** tstop() called on wr37 at Wed Sep 21 09:03:56 2016
Module time:
	user time   =       3.34 seconds =       0.06 minutes
	system time =       0.15 seconds =       0.00 minutes
	total time  =          0 seconds =       0.00 minutes
Total time:
	user time   =     781.38 seconds =      13.02 minutes
	system time =      10.50 seconds =       0.17 minutes
	total time  =         72 seconds =       1.20 minutes
	 --------------------------------------------------------
	                          DF-MP2                         
	      2nd-Order Density-Fitted Moller-Plesset Theory     
	              RMP2 Wavefunction,  12 Threads             
	                                                         
	        Rob Parrish, Justin Turney, Andy Simmonett,      
	           Ed Hohenstein, and C. David Sherrill          
	 --------------------------------------------------------

   => Auxiliary Basis Set <=

  Basis Set: 
    Number of shells: 476
    Number of basis function: 1676
    Number of Cartesian functions: 2078
    Spherical Harmonics?: true
    Max angular momentum: 4

	 --------------------------------------------------------
	                 NBF =   782, NAUX =  1676
	 --------------------------------------------------------
	   CLASS    FOCC     OCC    AOCC    AVIR     VIR    FVIR
	   PAIRS       8      33      25     749     749       0
	 --------------------------------------------------------

DGAS Warning! /src/lib/libfock/apps.cc:80 is not currently checking restricted

         ------------------------------------------------------------
                                     CPHF                           
                                  Rob Parrish                       
         ------------------------------------------------------------

  ==> Geometry <==

    Molecular point group: c1
    Full point group: C1

    Geometry (in Angstrom), charge = 0, multiplicity = 1:

       Center              X                  Y                   Z               Mass       
    ------------   -----------------  -----------------  -----------------  -----------------
           C          2.341577435331    -1.121853332969    -0.958621666275    12.000000000000
           H          2.519824155773    -0.415013001286    -1.770505537937     1.007825032070
           H          1.301659034781    -1.443212577636    -1.017376221023     1.007825032070
           H          2.966790214928    -1.997616580364    -1.132381943305     1.007825032070
           C         -2.720850038853    -0.894197877298     0.986736034589    12.000000000000
           H         -3.030622314436    -1.932505713845     1.107679634115     1.007825032070
           H         -3.558551509098    -0.259632677917     1.279088760651     1.007825032070
           H         -1.905528725385    -0.702486050334     1.682594824296     1.007825032070
           C          2.652910179718    -0.488783908995     0.392789488631    12.000000000000
           H          3.721805734128    -0.269880576435     0.449737529243     1.007825032070
           H          2.442910890202    -1.211708917088     1.186006511943     1.007825032070
           C         -2.314228236199    -0.598894339505    -0.454560318409    12.000000000000
           H         -1.528351619877    -1.292025640774    -0.769429083052     1.007825032070
           H         -3.170731881417    -0.799868379813    -1.100768531593     1.007825032070
           C          1.868727851153     0.791523855506     0.679181352850    12.000000000000
           H          2.141487062272     1.555259935952    -0.056145443668     1.007825032070
           H          2.187112888339     1.174548705562     1.650977862542     1.007825032070
           C          0.343958953353     0.603506034477     0.672757074855    12.000000000000
           H         -0.108492293035     1.196758448312     1.472233327758     1.007825032070
           H          0.116276807614    -0.441706800948     0.901103494985     1.007825032070
           C         -0.313076580956     1.005315367759    -0.645317705779    12.000000000000
           H         -0.061471564679     2.050754548712    -0.847700330452     1.007825032070
           H          0.118676922349     0.423300138033    -1.463502322604     1.007825032070
           C         -1.832090308412     0.843350793061    -0.674277630873    12.000000000000
           H         -2.282084701954     1.492516846443     0.083778892230     1.007825032070
           H         -2.191351127968     1.205960060615    -1.639753347637     1.007825032070

  Nuclear repulsion =  401.424553443483433
  Reference energy  = -313.533668420353365

  ==> Basis Set <==

  Basis Set: AUG-CC-PVTZ
    Number of shells: 274
    Number of basis function: 782
    Number of Cartesian functions: 890
    Spherical Harmonics?: true
    Max angular momentum: 3

  ==> CGRSolver (by Rob Parrish) <==

   Number of roots    =         1
   Preconditioning    =    JACOBI
   Convergence cutoff =     1E-06
   Maximum iterations =       100

  ==> CPHFRHamiltonian (by Rob Parrish) <== 

  ==> DFJK: Density-Fitted J/K Matrices <==

    J tasked:                  Yes
    K tasked:                  Yes
    wK tasked:                  No
    OpenMP threads:             12
    Integrals threads:          12
    Memory (MB):             42915
    Algorithm:                Core
    Integral Cache:           NONE
    Schwarz Cutoff:          1E-12
    Fitting Condition:       1E-12

   => Auxiliary Basis Set <=

  Basis Set: 
    Number of shells: 492
    Number of basis function: 1660
    Number of Cartesian functions: 2038
    Spherical Harmonics?: true
    Max angular momentum: 4

  ==> CPHF Iterations <==

  => Iterations <=

             Iter  Converged  Remaining    Residual
  CGR           1          0          1   9.281E-02
  CGR           2          0          1   1.341E-02
  CGR           3          0          1   3.784E-03
  CGR           4          0          1   8.377E-04
  CGR           5          0          1   2.064E-04
  CGR           6          0          1   4.423E-05
  CGR           7          0          1   1.284E-05
  CGR           8          0          1   3.304E-06
  CGR           9          1          0   8.245E-07

    CGRSolver converged.

  ==> DFCorrGrad: Density-Fitted Correlated Gradients <==

    OpenMP threads:             12
    Integrals threads:          12
    Memory (MB):             42915
    Schwarz Cutoff:          0E+00
    Fitting Condition:       1E-12

   => Auxiliary Basis Set <=

  Basis Set: 
    Number of shells: 492
    Number of basis function: 1660
    Number of Cartesian functions: 2038
    Spherical Harmonics?: true
    Max angular momentum: 4

	-----------------------------------------------------------
	 ==================> DF-MP2 Energies <==================== 
	-----------------------------------------------------------
	 Reference Energy          =    -313.5336684203533650 [Eh]
	 Singles Energy            =      -0.0000000000000000 [Eh]
	 Same-Spin Energy          =      -0.3169371018763091 [Eh]
	 Opposite-Spin Energy      =      -1.1267896325962883 [Eh]
	 Correlation Energy        =      -1.4437267344725975 [Eh]
	 Total Energy              =    -314.9773951548259561 [Eh]
	-----------------------------------------------------------
	 ================> DF-SCS-MP2 Energies <================== 
	-----------------------------------------------------------
	 SCS Same-Spin Scale       =       0.3333333333333333 [-]
	 SCS Opposite-Spin Scale   =       1.2000000000000000 [-]
	 SCS Same-Spin Energy      =      -0.1056457006254364 [Eh]
	 SCS Opposite-Spin Energy  =      -1.3521475591155458 [Eh]
	 SCS Correlation Energy    =      -1.4577932597409822 [Eh]
	 SCS Total Energy          =    -314.9914616800943463 [Eh]
	-----------------------------------------------------------


  -Total Gradient:
     Atom            X                  Y                   Z
    ------   -----------------  -----------------  -----------------
       1        0.000000383644     0.000000448837     0.000000979312
       2        0.000000103125     0.000000669182    -0.000000841945
       3       -0.000001207857    -0.000000471219    -0.000000372768
       4        0.000000533330    -0.000000521542     0.000000064547
       5        0.000000601442     0.000000217480    -0.000000631289
       6       -0.000000129352    -0.000000477174     0.000000043388
       7       -0.000000355926     0.000000295539     0.000000174270
       8        0.000000396587     0.000000087479     0.000000464088
       9       -0.000000613433     0.000000260859    -0.000001035625
      10        0.000000882058     0.000000306578    -0.000000001220
      11       -0.000000114540    -0.000000852232     0.000001003614
      12       -0.000000528413     0.000000376204     0.000000709228
      13        0.000000685764    -0.000000463201    -0.000000253325
      14       -0.000000344813     0.000000026837    -0.000000134836
      15       -0.000000111571    -0.000001560816     0.000000141098
      16        0.000000561090     0.000001247397    -0.000001057112
      17        0.000000461370     0.000000165951     0.000001069910
      18       -0.000000148840     0.000001251347    -0.000001472264
      19       -0.000000478650     0.000000825134     0.000000874212
      20       -0.000000525236    -0.000001591166     0.000000596501
      21       -0.000000213253    -0.000000373101     0.000001373106
      22        0.000000145911     0.000000899763    -0.000000097647
      23        0.000000548912    -0.000000610968    -0.000001265693
      24        0.000000259014    -0.000000814990    -0.000000215384
      25       -0.000000607734     0.000000479575     0.000000519530
      26       -0.000000182628     0.000000178248    -0.000000633695


			-----------------------------------------
			 OPTKING 2.0: for geometry optimizations 
			  - R.A. King,  Bethel University        
			-----------------------------------------

	Internal coordinates to be generated automatically.
	Detected frag 1 with atoms:  1 2 3 4 5 6 7 8 9 10 11 12 13 14 15 16 17 18 19 20
	 21 22 23 24 25 26
	---Fragment 1 Bond Connectivity---
	 1 : 2 3 4 9
	 2 : 1
	 3 : 1
	 4 : 1
	 5 : 6 7 8 12
	 6 : 5
	 7 : 5
	 8 : 5
	 9 : 1 10 11 15
	 10 : 9
	 11 : 9
	 12 : 5 13 14 24
	 13 : 12
	 14 : 12
	 15 : 9 16 17 18
	 16 : 15
	 17 : 15
	 18 : 15 19 20 21
	 19 : 18
	 20 : 18
	 21 : 18 22 23 24
	 22 : 21
	 23 : 21
	 24 : 12 21 25 26
	 25 : 24
	 26 : 24

	---Fragment 1 Geometry and Gradient---
	 C           4.4249400717       -2.1199955606       -1.8115324143
	 H           4.7617775574       -0.7842609140       -3.3457705835
	 H           2.4597790941       -2.7272765233       -1.9225624318
	 H           5.6064209999       -3.7749482554       -2.1398917507
	 C          -5.1416614221       -1.6897890967        1.8646608708
	 H          -5.7270461865       -3.6519065494        2.0932111515
	 H          -6.7246877820       -0.4906346564        2.4171274573
	 H          -3.6009274293       -1.3275062473        3.1796434105
	 C           5.0132736948       -0.9236677262        0.7422645614
	 H           7.0331935573       -0.5100003780        0.8498807619
	 H           4.6164325495       -2.2897980061        2.2412274994
	 C          -4.3732575754       -1.1317462842       -0.8589945127
	 H          -2.8881659963       -2.4415746177       -1.4540102456
	 H          -5.9918148967       -1.5115321802       -2.0801510604
	 C           3.5313838556        1.4957633146        1.2834667514
	 H           4.0468240648        2.9390153444       -0.1060995121
	 H           4.1330443807        2.2195753832        3.1198960117
	 C           0.6499882228        1.1404611247        1.2713266254
	 H          -0.2050207214        2.2615457145        2.7821177932
	 H           0.2197313220       -0.8347048848        1.7028388229
	 C          -0.5916289966        1.8997707222       -1.2194737326
	 H          -0.1161644222        3.8753644628       -1.6019214673
	 H           0.2242668815        0.7999213329       -2.7656185846
	 C          -3.4621489336        1.5937020328       -1.2742000599
	 H          -4.3125150987        2.8204480885        0.1583191620
	 H          -4.1410534928        2.2789342418       -3.0986847525
	             0.0000003836        0.0000004488        0.0000009793
	             0.0000001031        0.0000006692       -0.0000008419
	            -0.0000012079       -0.0000004712       -0.0000003728
	             0.0000005333       -0.0000005215        0.0000000645
	             0.0000006014        0.0000002175       -0.0000006313
	            -0.0000001294       -0.0000004772        0.0000000434
	            -0.0000003559        0.0000002955        0.0000001743
	             0.0000003966        0.0000000875        0.0000004641
	            -0.0000006134        0.0000002609       -0.0000010356
	             0.0000008821        0.0000003066       -0.0000000012
	            -0.0000001145       -0.0000008522        0.0000010036
	            -0.0000005284        0.0000003762        0.0000007092
	             0.0000006858       -0.0000004632       -0.0000002533
	            -0.0000003448        0.0000000268       -0.0000001348
	            -0.0000001116       -0.0000015608        0.0000001411
	             0.0000005611        0.0000012474       -0.0000010571
	             0.0000004614        0.0000001660        0.0000010699
	            -0.0000001488        0.0000012513       -0.0000014723
	            -0.0000004787        0.0000008251        0.0000008742
	            -0.0000005252       -0.0000015912        0.0000005965
	            -0.0000002133       -0.0000003731        0.0000013731
	             0.0000001459        0.0000008998       -0.0000000976
	             0.0000005489       -0.0000006110       -0.0000012657
	             0.0000002590       -0.0000008150       -0.0000002154
	            -0.0000006077        0.0000004796        0.0000005195
	            -0.0000001826        0.0000001782       -0.0000006337

	Previous optimization step data not found.  Starting new optimization.

	---Fragment 1 Intrafragment Coordinates---
	 - Coordinate -           - BOHR/RAD -       - ANG/DEG -
	 R(1,2)           =         2.061925	       1.091124
	 R(1,3)           =         2.059848	       1.090025
	 R(1,4)           =         2.059754	       1.089975
	 R(1,9)           =         2.880836	       1.524473
	 R(5,6)           =         2.060295	       1.090261
	 R(5,7)           =         2.061350	       1.090819
	 R(5,8)           =         2.057739	       1.088909
	 R(5,12)          =         2.884468	       1.526395
	 R(9,10)          =         2.064650	       1.092566
	 R(9,11)          =         2.066564	       1.093578
	 R(9,15)          =         2.888346	       1.528447
	 R(12,13)         =         2.067653	       1.094155
	 R(12,14)         =         2.062811	       1.091592
	 R(12,24)         =         2.903547	       1.536491
	 R(15,16)         =         2.068707	       1.094713
	 R(15,17)         =         2.063582	       1.092001
	 R(15,18)         =         2.903244	       1.536331
	 R(18,19)         =         2.066485	       1.093537
	 R(18,20)         =         2.067028	       1.093824
	 R(18,21)         =         2.884831	       1.526587
	 R(21,22)         =         2.067681	       1.094169
	 R(21,23)         =         2.065410	       1.092968
	 R(21,24)         =         2.887310	       1.527899
	 R(24,25)         =         2.068850	       1.094788
	 R(24,26)         =         2.063783	       1.092107
	 B(1,9,10)        =         1.906260	     109.220677
	 B(1,9,11)        =         1.906317	     109.223926
	 B(1,9,15)        =         1.992349	     114.153195
	 B(2,1,3)         =         1.882552	     107.862274
	 B(2,1,4)         =         1.884069	     107.949174
	 B(2,1,9)         =         1.936099	     110.930317
	 B(3,1,4)         =         1.877339	     107.563624
	 B(3,1,9)         =         1.944481	     111.410532
	 B(4,1,9)         =         1.936744	     110.967277
	 B(5,12,13)       =         1.918255	     109.907936
	 B(5,12,14)       =         1.890559	     108.321067
	 B(5,12,24)       =         1.982550	     113.591751
	 B(6,5,7)         =         1.881873	     107.823401
	 B(6,5,8)         =         1.885484	     108.030290
	 B(6,5,12)        =         1.944087	     111.387988
	 B(7,5,8)         =         1.876871	     107.536769
	 B(7,5,12)        =         1.923146	     110.188141
	 B(8,5,12)        =         1.949689	     111.708924
	 B(9,15,16)       =         1.907843	     109.311341
	 B(9,15,17)       =         1.887012	     108.117812
	 B(9,15,18)       =         1.988761	     113.947588
	 B(10,9,11)       =         1.857207	     106.410127
	 B(10,9,15)       =         1.901117	     108.926004
	 B(11,9,15)       =         1.895797	     108.621155
	 B(12,24,21)      =         1.991890	     114.126910
	 B(12,24,25)      =         1.905611	     109.183482
	 B(12,24,26)      =         1.912247	     109.563693
	 B(13,12,14)      =         1.851025	     106.055932
	 B(13,12,24)      =         1.905084	     109.153273
	 B(14,12,24)      =         1.911740	     109.534630
	 B(15,18,19)      =         1.918975	     109.949196
	 B(15,18,20)      =         1.899330	     108.823582
	 B(15,18,21)      =         1.980737	     113.487870
	 B(16,15,17)      =         1.855023	     106.284975
	 B(16,15,18)      =         1.906948	     109.260091
	 B(17,15,18)      =         1.913478	     109.634216
	 B(18,21,22)      =         1.888322	     108.192858
	 B(18,21,23)      =         1.913636	     109.643292
	 B(18,21,24)      =         2.000230	     114.604757
	 B(19,18,20)      =         1.854228	     106.239453
	 B(19,18,21)      =         1.886374	     108.081292
	 B(20,18,21)      =         1.920020	     110.009036
	 B(21,24,25)      =         1.909921	     109.430441
	 B(21,24,26)      =         1.884526	     107.975374
	 B(22,21,23)      =         1.854063	     106.229965
	 B(22,21,24)      =         1.903280	     109.049894
	 B(23,21,24)      =         1.898737	     108.789613
	 B(25,24,26)      =         1.854635	     106.262751
	 D(1,9,15,16)     =        -1.100562	     -63.057558
	 D(1,9,15,17)     =        -3.112850	    -178.353150
	 D(1,9,15,18)     =         1.038388	      59.495230
	 D(2,1,9,10)      =        -1.139830	     -65.307431
	 D(2,1,9,11)      =         3.118708	     178.688827
	 D(2,1,9,15)      =         0.992865	      56.886993
	 D(3,1,9,10)      =         3.045827	     174.513009
	 D(3,1,9,11)      =         1.021179	      58.509267
	 D(3,1,9,15)      =        -1.104664	     -63.292567
	 D(4,1,9,10)      =         0.954457	      54.686384
	 D(4,1,9,11)      =        -1.070190	     -61.317358
	 D(4,1,9,15)      =         3.087152	     176.880808
	 D(5,12,24,21)    =         1.695302	      97.133630
	 D(5,12,24,25)    =        -0.448025	     -25.669931
	 D(5,12,24,26)    =        -2.472541	    -141.666138
	 D(6,5,12,13)     =        -0.974748	     -55.848920
	 D(6,5,12,14)     =         1.040297	      59.604600
	 D(6,5,12,24)     =        -3.114713	    -178.459902
	 D(7,5,12,13)     =        -3.062514	    -175.469109
	 D(7,5,12,14)     =        -1.047470	     -60.015589
	 D(7,5,12,24)     =         1.080706	      61.919908
	 D(8,5,12,13)     =         1.135560	      65.062818
	 D(8,5,12,14)     =        -3.132581	    -179.483663
	 D(8,5,12,24)     =        -1.004405	     -57.548165
	 D(9,15,18,19)    =         2.456454	     140.744472
	 D(9,15,18,20)    =         0.432235	      24.765258
	 D(9,15,18,21)    =        -1.711730	     -98.074906
	 D(10,9,15,16)    =         1.034949	      59.298189
	 D(10,9,15,17)    =        -0.977339	     -55.997402
	 D(10,9,15,18)    =        -3.109287	    -178.149022
	 D(11,9,15,16)    =         3.051001	     174.809494
	 D(11,9,15,17)    =         1.038714	      59.513903
	 D(11,9,15,18)    =        -1.093234	     -62.637718
	 D(12,24,21,18)   =        -1.059984	     -60.732628
	 D(12,24,21,22)   =         3.103892	     177.839928
	 D(12,24,21,23)   =         1.088811	      62.384295
	 D(13,12,24,21)   =        -0.451908	     -25.892442
	 D(13,12,24,25)   =        -2.595235	    -148.696002
	 D(13,12,24,26)   =         1.663435	      95.307790
	 D(14,12,24,21)   =        -2.471516	    -141.607413
	 D(14,12,24,25)   =         1.668343	      95.589026
	 D(14,12,24,26)   =        -0.356172	     -20.407181
	 D(15,18,21,22)   =        -1.002659	     -57.448127
	 D(15,18,21,23)   =         1.012281	      57.999414
	 D(15,18,21,24)   =        -3.130141	    -179.343855
	 D(16,15,18,19)   =        -1.687291	     -96.674663
	 D(16,15,18,20)   =         2.571675	     147.346124
	 D(16,15,18,21)   =         0.427710	      24.505960
	 D(17,15,18,19)   =         0.339140	      19.431303
	 D(17,15,18,20)   =        -1.685079	     -96.547911
	 D(17,15,18,21)   =         2.454141	     140.611925
	 D(18,21,24,25)   =         1.080993	      61.936355
	 D(18,21,24,26)   =         3.092567	     177.191036
	 D(19,18,21,22)   =         1.130533	      64.774770
	 D(19,18,21,23)   =        -3.137713	    -179.777689
	 D(19,18,21,24)   =        -0.996949	     -57.120958
	 D(20,18,21,22)   =        -3.135182	    -179.632705
	 D(20,18,21,23)   =        -1.120242	     -64.185163
	 D(20,18,21,24)   =         1.020521	      58.471568
	 D(22,21,24,25)   =        -1.038315	     -59.491089
	 D(22,21,24,26)   =         0.973258	      55.763592
	 D(23,21,24,25)   =        -3.053396	    -174.946722
	 D(23,21,24,26)   =        -1.041823	     -59.692041
	 R(1,21)          =         6.455619	       3.416167
	 R(5,18)          =         6.473451	       3.425603

	Current energy   :      -314.9773951548

	Generating empirical Hessian (Schlegel '84) for each fragment.
	Taking RFO optimization step.
	Going to follow RFO solution 1.
	Using RFO vector 1.
	Norm of target step-size    0.00044
	Projected energy change by RFO approximation:         0.0000000005

	Back-transformation to cartesian coordinates...
	Successfully converged to displaced geometry.

	--- Internal Coordinate Step in ANG or DEG, aJ/ANG or AJ/DEG ---
	 ---------------------------------------------------------------------------
	   Coordinate                Previous        Force       Change         New 
	   ----------                --------       ------       ------       ------
	    1 R(1,2)          =      1.091124    -0.000009    -0.000002     1.091122
	    2 R(1,3)          =      1.090025    -0.000011    -0.000002     1.090023
	    3 R(1,4)          =      1.089975    -0.000006    -0.000001     1.089974
	    4 R(1,9)          =      1.524473    -0.000001    -0.000000     1.524472
	    5 R(5,6)          =      1.090261    -0.000004    -0.000001     1.090260
	    6 R(5,7)          =      1.090819    -0.000004    -0.000001     1.090819
	    7 R(5,8)          =      1.088909    -0.000005    -0.000001     1.088908
	    8 R(5,12)         =      1.526395     0.000000    -0.000000     1.526395
	    9 R(9,10)         =      1.092566    -0.000008    -0.000001     1.092564
	   10 R(9,11)         =      1.093578    -0.000011    -0.000002     1.093576
	   11 R(9,15)         =      1.528447    -0.000000    -0.000001     1.528446
	   12 R(12,13)        =      1.094155    -0.000007    -0.000001     1.094154
	   13 R(12,14)        =      1.091592    -0.000003    -0.000001     1.091592
	   14 R(12,24)        =      1.536491    -0.000001    -0.000001     1.536490
	   15 R(15,16)        =      1.094713    -0.000014    -0.000003     1.094710
	   16 R(15,17)        =      1.092001    -0.000010    -0.000002     1.091999
	   17 R(15,18)        =      1.536331    -0.000006    -0.000002     1.536328
	   18 R(18,19)        =      1.093537    -0.000011    -0.000002     1.093535
	   19 R(18,20)        =      1.093824    -0.000014    -0.000003     1.093821
	   20 R(18,21)        =      1.526587     0.000001    -0.000000     1.526586
	   21 R(21,22)        =      1.094169    -0.000008    -0.000001     1.094168
	   22 R(21,23)        =      1.092968    -0.000012    -0.000002     1.092966
	   23 R(21,24)        =      1.527899    -0.000005    -0.000001     1.527897
	   24 R(24,25)        =      1.094788    -0.000007    -0.000001     1.094787
	   25 R(24,26)        =      1.092107    -0.000006    -0.000001     1.092106
	   26 B(1,9,10)       =    109.220677    -0.000000     0.000234   109.220911
	   27 B(1,9,11)       =    109.223926    -0.000000    -0.000120   109.223806
	   28 B(1,9,15)       =    114.153195     0.000000    -0.000356   114.152839
	   29 B(2,1,3)        =    107.862274     0.000000     0.000041   107.862315
	   30 B(2,1,4)        =    107.949174    -0.000000     0.000013   107.949186
	   31 B(2,1,9)        =    110.930317    -0.000000    -0.000009   110.930307
	   32 B(3,1,4)        =    107.563624     0.000000    -0.000002   107.563621
	   33 B(3,1,9)        =    111.410532    -0.000000    -0.000212   111.410320
	   34 B(4,1,9)        =    110.967277     0.000000     0.000174   110.967451
	   35 B(5,12,13)      =    109.907936     0.000000    -0.000019   109.907917
	   36 B(5,12,14)      =    108.321067     0.000000     0.000063   108.321130
	   37 B(5,12,24)      =    113.591751    -0.000000    -0.000144   113.591607
	   38 B(6,5,7)        =    107.823401    -0.000000     0.000003   107.823404
	   39 B(6,5,8)        =    108.030290     0.000000     0.000008   108.030298
	   40 B(6,5,12)       =    111.387988     0.000000     0.000035   111.388023
	   41 B(7,5,8)        =    107.536769     0.000000     0.000015   107.536784
	   42 B(7,5,12)       =    110.188141    -0.000000    -0.000004   110.188137
	   43 B(8,5,12)       =    111.708924    -0.000000    -0.000057   111.708867
	   44 B(9,15,16)      =    109.311341     0.000000    -0.000054   109.311287
	   45 B(9,15,17)      =    108.117812     0.000000     0.000339   108.118151
	   46 B(9,15,18)      =    113.947588     0.000000    -0.000363   113.947225
	   47 B(10,9,11)      =    106.410127     0.000000     0.000080   106.410208
	   48 B(10,9,15)      =    108.926004     0.000000     0.000266   108.926270
	   49 B(11,9,15)      =    108.621155    -0.000000    -0.000076   108.621079
	   50 B(12,24,21)     =    114.126910     0.000000    -0.000061   114.126850
	   51 B(12,24,25)     =    109.183482     0.000000     0.000027   109.183509
	   52 B(12,24,26)     =    109.563693    -0.000000     0.000067   109.563760
	   53 B(13,12,14)     =    106.055932    -0.000000    -0.000028   106.055904
	   54 B(13,12,24)     =    109.153273     0.000000     0.000057   109.153330
	   55 B(14,12,24)     =    109.534630     0.000000     0.000078   109.534708
	   56 B(15,18,19)     =    109.949196     0.000000     0.000043   109.949239
	   57 B(15,18,20)     =    108.823582     0.000000     0.000083   108.823664
	   58 B(15,18,21)     =    113.487870    -0.000000    -0.000356   113.487514
	   59 B(16,15,17)     =    106.284975     0.000000     0.000064   106.285038
	   60 B(16,15,18)     =    109.260091    -0.000000    -0.000166   109.259925
	   61 B(17,15,18)     =    109.634216    -0.000000     0.000213   109.634429
	   62 B(18,21,22)     =    108.192858    -0.000000    -0.000001   108.192857
	   63 B(18,21,23)     =    109.643292    -0.000000    -0.000040   109.643252
	   64 B(18,21,24)     =    114.604757     0.000000    -0.000063   114.604694
	   65 B(19,18,20)     =    106.239453    -0.000000     0.000115   106.239568
	   66 B(19,18,21)     =    108.081292     0.000000     0.000117   108.081409
	   67 B(20,18,21)     =    110.009036     0.000000     0.000029   110.009064
	   68 B(21,24,25)     =    109.430441    -0.000000    -0.000156   109.430285
	   69 B(21,24,26)     =    107.975374    -0.000000     0.000089   107.975463
	   70 B(22,21,23)     =    106.229965     0.000000     0.000042   106.230007
	   71 B(22,21,24)     =    109.049894    -0.000000    -0.000063   109.049830
	   72 B(23,21,24)     =    108.789613     0.000000     0.000131   108.789743
	   73 B(25,24,26)     =    106.262751     0.000000     0.000040   106.262792
	   74 D(1,9,15,16)    =    -63.057558    -0.000000    -0.002953   -63.060511
	   75 D(1,9,15,17)    =   -178.353150    -0.000000    -0.003183  -178.356333
	   76 D(1,9,15,18)    =     59.495230    -0.000000    -0.003462    59.491768
	   77 D(2,1,9,10)     =    -65.307431    -0.000000     0.000385   -65.307046
	   78 D(2,1,9,11)     =    178.688827    -0.000000     0.000225   178.689052
	   79 D(2,1,9,15)     =     56.886993     0.000000     0.000658    56.887651
	   80 D(3,1,9,10)     =    174.513009    -0.000000     0.000482   174.513491
	   81 D(3,1,9,11)     =     58.509267     0.000000     0.000322    58.509589
	   82 D(3,1,9,15)     =    -63.292567     0.000000     0.000755   -63.291812
	   83 D(4,1,9,10)     =     54.686384    -0.000000     0.000510    54.686894
	   84 D(4,1,9,11)     =    -61.317358     0.000000     0.000350   -61.317008
	   85 D(4,1,9,15)     =    176.880808     0.000000     0.000783   176.881590
	   86 D(5,12,24,21)   =     97.133630     0.000000     0.001929    97.135558
	   87 D(5,12,24,25)   =    -25.669931     0.000000     0.002154   -25.667777
	   88 D(5,12,24,26)   =   -141.666138     0.000000     0.002052  -141.664086
	   89 D(6,5,12,13)    =    -55.848920     0.000000     0.000160   -55.848760
	   90 D(6,5,12,14)    =     59.604600     0.000000     0.000152    59.604752
	   91 D(6,5,12,24)    =   -178.459902    -0.000000     0.000202  -178.459701
	   92 D(7,5,12,13)    =   -175.469109     0.000000     0.000135  -175.468974
	   93 D(7,5,12,14)    =    -60.015589    -0.000000     0.000127   -60.015462
	   94 D(7,5,12,24)    =     61.919908    -0.000000     0.000177    61.920085
	   95 D(8,5,12,13)    =     65.062818     0.000000     0.000155    65.062973
	   96 D(8,5,12,14)    =   -179.483663    -0.000000     0.000147  -179.483515
	   97 D(8,5,12,24)    =    -57.548165    -0.000000     0.000197   -57.547968
	   98 D(9,15,18,19)   =    140.744472    -0.000000    -0.004463   140.740009
	   99 D(9,15,18,20)   =     24.765258    -0.000000    -0.004672    24.760587
	  100 D(9,15,18,21)   =    -98.074906    -0.000000    -0.004525   -98.079431
	  101 D(10,9,15,16)   =     59.298189     0.000000    -0.002697    59.295492
	  102 D(10,9,15,17)   =    -55.997402    -0.000000    -0.002927   -56.000330
	  103 D(10,9,15,18)   =   -178.149022     0.000000    -0.003206  -178.152229
	  104 D(11,9,15,16)   =    174.809494     0.000000    -0.002500   174.806994
	  105 D(11,9,15,17)   =     59.513903     0.000000    -0.002730    59.511173
	  106 D(11,9,15,18)   =    -62.637718     0.000000    -0.003009   -62.640727
	  107 D(12,24,21,18)  =    -60.732628    -0.000000    -0.000665   -60.733293
	  108 D(12,24,21,22)  =    177.839928    -0.000000    -0.000573   177.839354
	  109 D(12,24,21,23)  =     62.384295    -0.000000    -0.000660    62.383635
	  110 D(13,12,24,21)  =    -25.892442     0.000000     0.002011   -25.890431
	  111 D(13,12,24,25)  =   -148.696002     0.000000     0.002235  -148.693767
	  112 D(13,12,24,26)  =     95.307790     0.000000     0.002134    95.309924
	  113 D(14,12,24,21)  =   -141.607413    -0.000000     0.001969  -141.605444
	  114 D(14,12,24,25)  =     95.589026     0.000000     0.002194    95.591220
	  115 D(14,12,24,26)  =    -20.407181     0.000000     0.002092   -20.405089
	  116 D(15,18,21,22)  =    -57.448127     0.000000     0.005394   -57.442734
	  117 D(15,18,21,23)  =     57.999414     0.000000     0.005422    58.004836
	  118 D(15,18,21,24)  =   -179.343855     0.000000     0.005518  -179.338337
	  119 D(16,15,18,19)  =    -96.674663     0.000000    -0.004911   -96.679573
	  120 D(16,15,18,20)  =    147.346124    -0.000000    -0.005120   147.341004
	  121 D(16,15,18,21)  =     24.505960    -0.000000    -0.004973    24.500987
	  122 D(17,15,18,19)  =     19.431303    -0.000000    -0.004808    19.426494
	  123 D(17,15,18,20)  =    -96.547911    -0.000000    -0.005017   -96.552928
	  124 D(17,15,18,21)  =    140.611925    -0.000000    -0.004871   140.607054
	  125 D(18,21,24,25)  =     61.936355     0.000000    -0.000790    61.935565
	  126 D(18,21,24,26)  =    177.191036    -0.000000    -0.000776   177.190261
	  127 D(19,18,21,22)  =     64.774770     0.000000     0.005298    64.780068
	  128 D(19,18,21,23)  =   -179.777689    -0.000000     0.005326  -179.772363
	  129 D(19,18,21,24)  =    -57.120958     0.000000     0.005422   -57.115535
	  130 D(20,18,21,22)  =   -179.632705     0.000000     0.005516  -179.627189
	  131 D(20,18,21,23)  =    -64.185163     0.000000     0.005544   -64.179619
	  132 D(20,18,21,24)  =     58.471568     0.000000     0.005640    58.477208
	  133 D(22,21,24,25)  =    -59.491089     0.000000    -0.000699   -59.491788
	  134 D(22,21,24,26)  =     55.763592    -0.000000    -0.000684    55.762908
	  135 D(23,21,24,25)  =   -174.946722     0.000000    -0.000786  -174.947508
	  136 D(23,21,24,26)  =    -59.692041    -0.000000    -0.000771   -59.692812
	  137 R(1,21)         =      3.416167    -0.000001     0.000029     3.416195
	  138 R(5,18)         =      3.425603     0.000003     0.000030     3.425633
	 ---------------------------------------------------------------------------

  ==> Convergence Check <==

  Measures of convergence in internal coordinates in au.
  Criteria marked as inactive (o), active & met (*), and active & unmet ( ).
  --------------------------------------------------------------------------------------------- ~
   Step     Total Energy     Delta E     MAX Force     RMS Force      MAX Disp      RMS Disp    ~
  --------------------------------------------------------------------------------------------- ~
    Convergence Criteria             o    2.00e-06 *    1.00e-06 *    6.00e-06 *    4.00e-06 *  ~
  --------------------------------------------------------------------------------------------- ~
      1    -314.97739515   -3.15e+02 o    1.76e-06 *    4.18e-07 *    9.84e-05      3.72e-05    ~
  ---------------------------------------------------------------------------------------------

	Writing optimization data to binary file.
	Structure for next step:
	Cartesian Geometry (in Angstrom)
	    C     2.3416127675  -1.1218801404  -0.9585796883
	    H     2.5197896636  -0.4150677705  -1.7705010253
	    H     1.3017077110  -1.4432874834  -1.0172704819
	    H     2.9668554354  -1.9976223761  -1.1323315215
	    C    -2.7209066949  -0.8941877117   0.9867201991
	    H    -3.0307012751  -1.9324907166   1.1076412966
	    H    -3.5585957092  -0.2596110902   1.2790810430
	    H    -1.9055853539  -0.7025071394   1.6825861643
	    C     2.6529760281  -0.4887372497   0.3927895956
	    H     3.7218607278  -0.2697734173   0.4496816394
	    H     2.4430498242  -1.2116391036   1.1860442562
	    C    -2.3142705297  -0.5988631380  -0.4545676369
	    H    -1.5284095687  -1.2920055600  -0.7694463736
	    H    -3.1707744483  -0.7998029899  -1.1007852105
	    C     1.8687308600   0.7915355807   0.6791587439
	    H     2.1414495104   1.5552686253  -0.0561823277
	    H     2.1870919115   1.1745973370   1.6509465778
	    C     0.3439745914   0.6034344094   0.6727283965
	    H    -0.1085062792   1.1966104664   1.4722418297
	    H     0.1163500453  -0.4418032039   0.9010058372
	    C    -0.3130795047   1.0052937291  -0.6453213248
	    H    -0.0614498618   2.0507292875  -0.8476844207
	    H     0.1186380231   0.4232863580  -1.4635274669
	    C    -1.8320973286   0.8433752234  -0.6742477684
	    H    -2.2820496260   1.4925269757   0.0838440005
	    H    -2.1913736914   1.2060294573  -1.6396996271
			--------------------------
			 OPTKING Finished Execution 
			--------------------------

    Structure for next step:
    Molecular point group: c1
    Full point group: C1

    Geometry (in Angstrom), charge = 0, multiplicity = 1:

    C            2.341611714538    -1.121880536298    -0.958579099581
    H            2.519788610635    -0.415068166358    -1.770500436581
    H            1.301706657976    -1.443287879232    -1.017269893187
    H            2.966854382394    -1.997622772002    -1.132330932843
    C           -2.720907747890    -0.894188107559     0.986720787839
    H           -3.030702328066    -1.932491112529     1.107641885341
    H           -3.558596762216    -0.259611486051     1.279081631679
    H           -1.905586406892    -0.702507535267     1.682586753015
    C            2.652974975076    -0.488737645599     0.392790184255
    H            3.721859674790    -0.269773813229     0.449682228062
    H            2.443048771223    -1.211639499509     1.186044844897
    C           -2.314271582706    -0.598863533885    -0.454567048170
    H           -1.528410621692    -1.292005955931    -0.769445784874
    H           -3.170775501281    -0.799803385733    -1.100784621819
    C            1.868729807033     0.791535184782     0.679159332583
    H            2.141448457452     1.555268229391    -0.056181739011
    H            2.187090858529     1.174596941165     1.650947166503
    C            0.343973538450     0.603434013514     0.672728985154
    H           -0.108507332161     1.196610070565     1.472242418370
    H            0.116348992350    -0.441803599805     0.901006425910
    C           -0.313080557679     1.005293333265    -0.645320736118
    H           -0.061450914771     2.050728891662    -0.847683832007
    H            0.118636970079     0.423285962148    -1.463526878177
    C           -1.832098381566     0.843374827528    -0.674247179732
    H           -2.282050679022     1.492526579844     0.083844589176
    H           -2.191374744393     1.206029061444    -1.639699038398

gradient() will perform analytic gradient computation.

*** tstart() called on wr37
*** at Wed Sep 21 09:08:24 2016


         ---------------------------------------------------------
                                   SCF
            by Justin Turney, Rob Parrish, and Andy Simmonett
                              RHF Reference
                       12 Threads,  60000 MiB Core
         ---------------------------------------------------------

  ==> Geometry <==

    Molecular point group: c1
    Full point group: C1

    Geometry (in Angstrom), charge = 0, multiplicity = 1:

       Center              X                  Y                   Z               Mass       
    ------------   -----------------  -----------------  -----------------  -----------------
           C          2.341611714538    -1.121880536298    -0.958579099581    12.000000000000
           H          2.519788610635    -0.415068166358    -1.770500436581     1.007825032070
           H          1.301706657976    -1.443287879232    -1.017269893187     1.007825032070
           H          2.966854382394    -1.997622772002    -1.132330932843     1.007825032070
           C         -2.720907747890    -0.894188107559     0.986720787839    12.000000000000
           H         -3.030702328066    -1.932491112529     1.107641885341     1.007825032070
           H         -3.558596762216    -0.259611486051     1.279081631679     1.007825032070
           H         -1.905586406892    -0.702507535267     1.682586753015     1.007825032070
           C          2.652974975076    -0.488737645599     0.392790184255    12.000000000000
           H          3.721859674790    -0.269773813229     0.449682228062     1.007825032070
           H          2.443048771223    -1.211639499509     1.186044844897     1.007825032070
           C         -2.314271582706    -0.598863533885    -0.454567048170    12.000000000000
           H         -1.528410621692    -1.292005955931    -0.769445784874     1.007825032070
           H         -3.170775501281    -0.799803385733    -1.100784621819     1.007825032070
           C          1.868729807033     0.791535184782     0.679159332583    12.000000000000
           H          2.141448457452     1.555268229391    -0.056181739011     1.007825032070
           H          2.187090858529     1.174596941165     1.650947166503     1.007825032070
           C          0.343973538450     0.603434013514     0.672728985154    12.000000000000
           H         -0.108507332161     1.196610070565     1.472242418370     1.007825032070
           H          0.116348992350    -0.441803599805     0.901006425910     1.007825032070
           C         -0.313080557679     1.005293333265    -0.645320736118    12.000000000000
           H         -0.061450914771     2.050728891662    -0.847683832007     1.007825032070
           H          0.118636970079     0.423285962148    -1.463526878177     1.007825032070
           C         -1.832098381566     0.843374827528    -0.674247179732    12.000000000000
           H         -2.282050679022     1.492526579844     0.083844589176     1.007825032070
           H         -2.191374744393     1.206029061444    -1.639699038398     1.007825032070

  Running in c1 symmetry.

  Rotational constants: A =      0.10098  B =      0.03025  C =      0.02930 [cm^-1]
  Rotational constants: A =   3027.28407  B =    906.72843  C =    878.32863 [MHz]
  Nuclear repulsion =  401.423983791149283

  Charge       = 0
  Multiplicity = 1
  Electrons    = 66
  Nalpha       = 33
  Nbeta        = 33

  ==> Algorithm <==

  SCF Algorithm Type is DF.
  DIIS enabled.
  MOM disabled.
  Fractional occupation disabled.
  Guess Type is READ.
  Energy threshold   = 1.00e-10
  Density threshold  = 1.00e-10
  Integral threshold = 0.00e+00

  ==> Primary Basis <==

  Basis Set: AUG-CC-PVTZ
    Number of shells: 274
    Number of basis function: 782
    Number of Cartesian functions: 890
    Spherical Harmonics?: true
    Max angular momentum: 3

  ==> Pre-Iterations <==

   -------------------------------------------------------
    Irrep   Nso     Nmo     Nalpha   Nbeta   Ndocc  Nsocc
   -------------------------------------------------------
     A        782     782       0       0       0       0
   -------------------------------------------------------
    Total     782     782      33      33      33       0
   -------------------------------------------------------

  ==> Integral Setup <==

  ==> DFJK: Density-Fitted J/K Matrices <==

    J tasked:                  Yes
    K tasked:                  Yes
    wK tasked:                  No
    OpenMP threads:             12
    Integrals threads:          12
    Memory (MB):             42915
    Algorithm:                Core
    Integral Cache:           NONE
    Schwarz Cutoff:          1E-12
    Fitting Condition:       1E-12

   => Auxiliary Basis Set <=

  Basis Set: 
    Number of shells: 492
    Number of basis function: 1660
    Number of Cartesian functions: 2038
    Spherical Harmonics?: true
    Max angular momentum: 4

  Minimum eigenvalue in the overlap matrix is 1.5996805887E-06.
  Using Symmetric Orthogonalization.
  SCF Guess: Reading in previously saved MOs, projecting if necessary.

  Using orbitals from previous SCF, no projection.
  Recomputing DOCC and SOCC from number of alpha and beta electrons from previous calculation.
              A 
    DOCC [    33 ]

  ==> Iterations <==

                           Total Energy        Delta E     RMS |[F,P]|

   @DF-RHF iter   0:  -313.53373787833021   -3.13534e+02   2.37320e-07 
   @DF-RHF iter   1:  -313.53366886165901    6.90167e-05   5.83117e-08 
   @DF-RHF iter   2:  -313.53366886327950   -1.62049e-09   2.67742e-08 DIIS
   @DF-RHF iter   3:  -313.53366886355701   -2.77510e-10   8.69740e-09 DIIS
   @DF-RHF iter   4:  -313.53366886360976   -5.27507e-11   1.04319e-09 DIIS
   @DF-RHF iter   5:  -313.53366886361147   -1.70530e-12   3.40362e-10 DIIS
   @DF-RHF iter   6:  -313.53366886361192   -4.54747e-13   8.60623e-11 DIIS

  ==> Post-Iterations <==

    Orbital Energies (a.u.)
    -----------------------

    Doubly Occupied:                                                      

       1A    -11.213463     2A    -11.212963     3A    -11.210584  
       4A    -11.210248     5A    -11.209865     6A    -11.209297  
       7A    -11.207309     8A    -11.206133     9A     -1.093292  
      10A     -1.058838    11A     -1.004634    12A     -0.950475  
      13A     -0.888323    14A     -0.827242    15A     -0.778432  
      16A     -0.767651    17A     -0.643181    18A     -0.625167  
      19A     -0.615554    20A     -0.595171    21A     -0.577188  
      22A     -0.559696    23A     -0.542982    24A     -0.530692  
      25A     -0.512236    26A     -0.503108    27A     -0.494679  
      28A     -0.475813    29A     -0.465203    30A     -0.460417  
      31A     -0.442010    32A     -0.440487    33A     -0.429091  

    Virtual:                                                              

      34A      0.028845    35A      0.032860    36A      0.034341  
      37A      0.034961    38A      0.046783    39A      0.048441  
      40A      0.049004    41A      0.053613    42A      0.054984  
      43A      0.068771    44A      0.069426    45A      0.070659  
      46A      0.073049    47A      0.075430    48A      0.088020  
      49A      0.095117    50A      0.100278    51A      0.104731  
      52A      0.113945    53A      0.117154    54A      0.121204  
      55A      0.122773    56A      0.127599    57A      0.131074  
      58A      0.133048    59A      0.133605    60A      0.140587  
      61A      0.143696    62A      0.144364    63A      0.147516  
      64A      0.153426    65A      0.156471    66A      0.162034  
      67A      0.167523    68A      0.169083    69A      0.172942  
      70A      0.177149    71A      0.177966    72A      0.181170  
      73A      0.186063    74A      0.193959    75A      0.195814  
      76A      0.201079    77A      0.209536    78A      0.220535  
      79A      0.229595    80A      0.230870    81A      0.231531  
      82A      0.244436    83A      0.253112    84A      0.259877  
      85A      0.266980    86A      0.276636    87A      0.279819  
      88A      0.284710    89A      0.292802    90A      0.295982  
      91A      0.304851    92A      0.306619    93A      0.311121  
      94A      0.311258    95A      0.316870    96A      0.320087  
      97A      0.321823    98A      0.327364    99A      0.331832  
     100A      0.335314   101A      0.340903   102A      0.346851  
     103A      0.350063   104A      0.352089   105A      0.357210  
     106A      0.358901   107A      0.365625   108A      0.368552  
     109A      0.371622   110A      0.375188   111A      0.377160  
     112A      0.380642   113A      0.383656   114A      0.385727  
     115A      0.387411   116A      0.398061   117A      0.398822  
     118A      0.405049   119A      0.406220   120A      0.412539  
     121A      0.417413   122A      0.422231   123A      0.429221  
     124A      0.431619   125A      0.433850   126A      0.438045  
     127A      0.441156   128A      0.442159   129A      0.452224  
     130A      0.457762   131A      0.459100   132A      0.463797  
     133A      0.470899   134A      0.471921   135A      0.473247  
     136A      0.476104   137A      0.479888   138A      0.482771  
     139A      0.486558   140A      0.490266   141A      0.495779  
     142A      0.499776   143A      0.503781   144A      0.508511  
     145A      0.512631   146A      0.518839   147A      0.521430  
     148A      0.526655   149A      0.531462   150A      0.535655  
     151A      0.539425   152A      0.547106   153A      0.549382  
     154A      0.550895   155A      0.554584   156A      0.556403  
     157A      0.562055   158A      0.566525   159A      0.570746  
     160A      0.572587   161A      0.580917   162A      0.582367  
     163A      0.587448   164A      0.588629   165A      0.598867  
     166A      0.601369   167A      0.606737   168A      0.614850  
     169A      0.616774   170A      0.621161   171A      0.629290  
     172A      0.632386   173A      0.638019   174A      0.642156  
     175A      0.648182   176A      0.650166   177A      0.653833  
     178A      0.660287   179A      0.665998   180A      0.672501  
     181A      0.677192   182A      0.680643   183A      0.684886  
     184A      0.692769   185A      0.694612   186A      0.701859  
     187A      0.705184   188A      0.713013   189A      0.716116  
     190A      0.720408   191A      0.729375   192A      0.732621  
     193A      0.737932   194A      0.745094   195A      0.753870  
     196A      0.762338   197A      0.769345   198A      0.775959  
     199A      0.784672   200A      0.797794   201A      0.802401  
     202A      0.813234   203A      0.817598   204A      0.822612  
     205A      0.827183   206A      0.836191   207A      0.847868  
     208A      0.850271   209A      0.855641   210A      0.861341  
     211A      0.868731   212A      0.873852   213A      0.880864  
     214A      0.885360   215A      0.891571   216A      0.894603  
     217A      0.895426   218A      0.909004   219A      0.910583  
     220A      0.915287   221A      0.921287   222A      0.926344  
     223A      0.932503   224A      0.934800   225A      0.941969  
     226A      0.949045   227A      0.952446   228A      0.957883  
     229A      0.961912   230A      0.969907   231A      0.973196  
     232A      0.978573   233A      0.985654   234A      0.989454  
     235A      0.991928   236A      0.995704   237A      0.998550  
     238A      1.006390   239A      1.008951   240A      1.015997  
     241A      1.017058   242A      1.027467   243A      1.028855  
     244A      1.038961   245A      1.045670   246A      1.054318  
     247A      1.056874   248A      1.058058   249A      1.061441  
     250A      1.069943   251A      1.071318   252A      1.082015  
     253A      1.085453   254A      1.095905   255A      1.096557  
     256A      1.102447   257A      1.106904   258A      1.112319  
     259A      1.122111   260A      1.128015   261A      1.129307  
     262A      1.134222   263A      1.139713   264A      1.148390  
     265A      1.151082   266A      1.154731   267A      1.162417  
     268A      1.166981   269A      1.173134   270A      1.177012  
     271A      1.186820   272A      1.189552   273A      1.197024  
     274A      1.197637   275A      1.207339   276A      1.212484  
     277A      1.214977   278A      1.217383   279A      1.228840  
     280A      1.238393   281A      1.242485   282A      1.246853  
     283A      1.250602   284A      1.257450   285A      1.260912  
     286A      1.266198   287A      1.269640   288A      1.269956  
[...]
	Denominators (dg)(dq) or (dq)(dq) are very small.
	 Skipping Hessian update for step 12.
	Denominators (dg)(dq) or (dq)(dq) are very small.
	 Skipping Hessian update for step 11.
	Denominators (dg)(dq) or (dq)(dq) are very small.
	 Skipping Hessian update for step 10.
	Denominators (dg)(dq) or (dq)(dq) are very small.
	 Skipping Hessian update for step 9.
	Denominators (dg)(dq) or (dq)(dq) are very small.
	 Skipping Hessian update for step 8.
	Denominators (dg)(dq) or (dq)(dq) are very small.
	 Skipping Hessian update for step 7.
	Denominators (dg)(dq) or (dq)(dq) are very small.
	 Skipping Hessian update for step 6.
	Denominators (dg)(dq) or (dq)(dq) are very small.
	 Skipping Hessian update for step 5.
	Denominators (dg)(dq) or (dq)(dq) are very small.
	 Skipping Hessian update for step 4.
	Denominators (dg)(dq) or (dq)(dq) are very small.
	 Skipping Hessian update for step 3.
	Denominators (dg)(dq) or (dq)(dq) are very small.
	 Skipping Hessian update for step 2.
	Steps to be used in Hessian update: 1
	Taking RFO optimization step.
	Going to follow RFO solution 1.
	Using RFO vector 1.
	Norm of target step-size    0.00003
	Projected energy change by RFO approximation:         0.0000000000

	Back-transformation to cartesian coordinates...
	Successfully converged to displaced geometry.

	--- Internal Coordinate Step in ANG or DEG, aJ/ANG or AJ/DEG ---
	 ---------------------------------------------------------------------------
	   Coordinate                Previous        Force       Change         New 
	   ----------                --------       ------       ------       ------
	    1 R(1,2)          =      1.091123     0.000000     0.000000     1.091123
	    2 R(1,3)          =      1.090024    -0.000000     0.000000     1.090024
	    3 R(1,4)          =      1.089974     0.000001     0.000000     1.089974
	    4 R(1,9)          =      1.524473    -0.000000    -0.000000     1.524473
	    5 R(5,6)          =      1.090261    -0.000000     0.000000     1.090261
	    6 R(5,7)          =      1.090819    -0.000000     0.000000     1.090819
	    7 R(5,8)          =      1.088909     0.000000     0.000000     1.088909
	    8 R(5,12)         =      1.526395     0.000001     0.000000     1.526395
	    9 R(9,10)         =      1.092565    -0.000000     0.000000     1.092565
	   10 R(9,11)         =      1.093578    -0.000001    -0.000000     1.093578
	   11 R(9,15)         =      1.528447    -0.000000    -0.000000     1.528447
	   12 R(12,13)        =      1.094155    -0.000001    -0.000000     1.094155
	   13 R(12,14)        =      1.091593    -0.000001    -0.000000     1.091593
	   14 R(12,24)        =      1.536491     0.000000     0.000000     1.536491
	   15 R(15,16)        =      1.094712    -0.000001     0.000000     1.094712
	   16 R(15,17)        =      1.092000     0.000000     0.000000     1.092000
	   17 R(15,18)        =      1.536331    -0.000001    -0.000000     1.536331
	   18 R(18,19)        =      1.093536    -0.000001    -0.000000     1.093536
	   19 R(18,20)        =      1.093824    -0.000002    -0.000000     1.093823
	   20 R(18,21)        =      1.526587    -0.000001    -0.000000     1.526587
	   21 R(21,22)        =      1.094169    -0.000001    -0.000000     1.094169
	   22 R(21,23)        =      1.092968    -0.000002    -0.000000     1.092967
	   23 R(21,24)        =      1.527898    -0.000001    -0.000000     1.527898
	   24 R(24,25)        =      1.094788    -0.000001    -0.000000     1.094788
	   25 R(24,26)        =      1.092107    -0.000001    -0.000000     1.092107
	   26 B(1,9,10)       =    109.220740    -0.000000     0.000002   109.220742
	   27 B(1,9,11)       =    109.223919    -0.000000     0.000011   109.223930
	   28 B(1,9,15)       =    114.153010    -0.000000    -0.000033   114.152977
	   29 B(2,1,3)        =    107.862283     0.000000    -0.000000   107.862282
	   30 B(2,1,4)        =    107.949188    -0.000000    -0.000006   107.949181
	   31 B(2,1,9)        =    110.930283     0.000000     0.000003   110.930285
	   32 B(3,1,4)        =    107.563632     0.000000     0.000009   107.563641
	   33 B(3,1,9)        =    111.410446    -0.000000    -0.000016   111.410430
	   34 B(4,1,9)        =    110.967368     0.000000     0.000011   110.967379
	   35 B(5,12,13)      =    109.907962     0.000000    -0.000013   109.907949
	   36 B(5,12,14)      =    108.321033     0.000000     0.000004   108.321038
	   37 B(5,12,24)      =    113.591753    -0.000000    -0.000007   113.591746
	   38 B(6,5,7)        =    107.823408    -0.000000     0.000005   107.823412
	   39 B(6,5,8)        =    108.030298     0.000000    -0.000003   108.030295
	   40 B(6,5,12)       =    111.387971     0.000000     0.000023   111.387994
	   41 B(7,5,8)        =    107.536791     0.000000     0.000005   107.536796
	   42 B(7,5,12)       =    110.188148     0.000000     0.000011   110.188159
	   43 B(8,5,12)       =    111.708900    -0.000000    -0.000041   111.708859
	   44 B(9,15,16)      =    109.311328    -0.000000    -0.000019   109.311309
	   45 B(9,15,17)      =    108.117935    -0.000000     0.000022   108.117957
	   46 B(9,15,18)      =    113.947435     0.000000     0.000014   113.947449
	   47 B(10,9,11)      =    106.410164    -0.000000     0.000002   106.410166
	   48 B(10,9,15)      =    108.926122     0.000000     0.000009   108.926130
	   49 B(11,9,15)      =    108.621144     0.000000     0.000012   108.621156
	   50 B(12,24,21)     =    114.126980     0.000000     0.000035   114.127015
	   51 B(12,24,25)     =    109.183500    -0.000000    -0.000013   109.183488
	   52 B(12,24,26)     =    109.563672     0.000000     0.000008   109.563680
	   53 B(13,12,14)     =    106.055944    -0.000000    -0.000016   106.055928
	   54 B(13,12,24)     =    109.153297     0.000000     0.000022   109.153319
	   55 B(14,12,24)     =    109.534600     0.000000     0.000008   109.534608
	   56 B(15,18,19)     =    109.949208     0.000000     0.000020   109.949228
	   57 B(15,18,20)     =    108.823619     0.000000     0.000015   108.823634
	   58 B(15,18,21)     =    113.487814    -0.000000    -0.000033   113.487780
	   59 B(16,15,17)     =    106.284996     0.000000    -0.000001   106.284995
	   60 B(16,15,18)     =    109.260102    -0.000000    -0.000023   109.260078
	   61 B(17,15,18)     =    109.634239    -0.000000     0.000007   109.634247
	   62 B(18,21,22)     =    108.192836     0.000000     0.000012   108.192848
	   63 B(18,21,23)     =    109.643207    -0.000000    -0.000033   109.643174
	   64 B(18,21,24)     =    114.604834     0.000000     0.000018   114.604852
	   65 B(19,18,20)     =    106.239467    -0.000000     0.000012   106.239479
	   66 B(19,18,21)     =    108.081323     0.000000     0.000003   108.081326
	   67 B(20,18,21)     =    110.009001     0.000000    -0.000014   110.008987
	   68 B(21,24,25)     =    109.430384    -0.000000    -0.000015   109.430369
	   69 B(21,24,26)     =    107.975351    -0.000000    -0.000001   107.975351
	   70 B(22,21,23)     =    106.229966     0.000000     0.000005   106.229971
	   71 B(22,21,24)     =    109.049854    -0.000000     0.000011   109.049865
	   72 B(23,21,24)     =    108.789674     0.000000    -0.000013   108.789661
	   73 B(25,24,26)     =    106.262759     0.000000    -0.000018   106.262741
	   74 D(1,9,15,16)    =    -63.057301     0.000000     0.000069   -63.057232
	   75 D(1,9,15,17)    =   -178.352977     0.000000     0.000068  -178.352909
	   76 D(1,9,15,18)    =     59.495385    -0.000000     0.000034    59.495419
	   77 D(2,1,9,10)     =    -65.307206    -0.000000     0.000134   -65.307072
	   78 D(2,1,9,11)     =    178.688976     0.000000     0.000125   178.689101
	   79 D(2,1,9,15)     =     56.887289    -0.000000     0.000124    56.887413
	   80 D(3,1,9,10)     =    174.513303     0.000000     0.000143   174.513447
	   81 D(3,1,9,11)     =     58.509486     0.000000     0.000134    58.509620
	   82 D(3,1,9,15)     =    -63.292202     0.000000     0.000134   -63.292068
	   83 D(4,1,9,10)     =     54.686664     0.000000     0.000135    54.686799
	   84 D(4,1,9,11)     =    -61.317154     0.000000     0.000126   -61.317028
	   85 D(4,1,9,15)     =    176.881159     0.000000     0.000126   176.881284
	   86 D(5,12,24,21)   =     97.133832    -0.000000    -0.000120    97.133712
	   87 D(5,12,24,25)   =    -25.669718     0.000000    -0.000115   -25.669833
	   88 D(5,12,24,26)   =   -141.665933     0.000000    -0.000091  -141.666024
	   89 D(6,5,12,13)    =    -55.849041     0.000000    -0.000185   -55.849225
	   90 D(6,5,12,14)    =     59.604489     0.000000    -0.000208    59.604281
	   91 D(6,5,12,24)    =   -178.460075    -0.000000    -0.000199  -178.460274
	   92 D(7,5,12,13)    =   -175.469232    -0.000000    -0.000213  -175.469444
	   93 D(7,5,12,14)    =    -60.015702    -0.000000    -0.000236   -60.015938
	   94 D(7,5,12,24)    =     61.919734    -0.000000    -0.000227    61.919506
	   95 D(8,5,12,13)    =     65.062679     0.000000    -0.000201    65.062478
	   96 D(8,5,12,14)    =   -179.483792    -0.000000    -0.000224  -179.484016
	   97 D(8,5,12,24)    =    -57.548356    -0.000000    -0.000215   -57.548571
	   98 D(9,15,18,19)   =    140.743424     0.000000    -0.000188   140.743236
	   99 D(9,15,18,20)   =     24.764166    -0.000000    -0.000222    24.763943
	  100 D(9,15,18,21)   =    -98.075943    -0.000000    -0.000193   -98.076136
	  101 D(10,9,15,16)   =     59.298488     0.000000     0.000056    59.298544
	  102 D(10,9,15,17)   =    -55.997188     0.000000     0.000055   -55.997133
	  103 D(10,9,15,18)   =   -178.148826    -0.000000     0.000020  -178.148806
	  104 D(11,9,15,16)   =    174.809894     0.000000     0.000069   174.809963
	  105 D(11,9,15,17)   =     59.514218     0.000000     0.000068    59.514286
	  106 D(11,9,15,18)   =    -62.637420    -0.000000     0.000033   -62.637387
	  107 D(12,24,21,18)  =    -60.732966     0.000000     0.000295   -60.732671
	  108 D(12,24,21,22)  =    177.839595     0.000000     0.000259   177.839854
	  109 D(12,24,21,23)  =     62.383948     0.000000     0.000255    62.384202
	  110 D(13,12,24,21)  =    -25.892293     0.000000    -0.000115   -25.892408
	  111 D(13,12,24,25)  =   -148.695843     0.000000    -0.000111  -148.695953
	  112 D(13,12,24,26)  =     95.307942     0.000000    -0.000086    95.307856
	  113 D(14,12,24,21)  =   -141.607275    -0.000000    -0.000113  -141.607389
	  114 D(14,12,24,25)  =     95.589175    -0.000000    -0.000109    95.589066
	  115 D(14,12,24,26)  =    -20.407040     0.000000    -0.000084   -20.407124
	  116 D(15,18,21,22)  =    -57.447758     0.000000     0.000280   -57.447478
	  117 D(15,18,21,23)  =     57.999728     0.000000     0.000275    58.000003
	  118 D(15,18,21,24)  =   -179.343471     0.000000     0.000245  -179.343225
	  119 D(16,15,18,19)  =    -96.675826     0.000000    -0.000221   -96.676047
	  120 D(16,15,18,20)  =    147.344916    -0.000000    -0.000255   147.344660
	  121 D(16,15,18,21)  =     24.504807    -0.000000    -0.000226    24.504582
	  122 D(17,15,18,19)  =     19.430184    -0.000000    -0.000231    19.429953
	  123 D(17,15,18,20)  =    -96.549074    -0.000000    -0.000266   -96.549340
	  124 D(17,15,18,21)  =    140.610817    -0.000000    -0.000236   140.610581
	  125 D(18,21,24,25)  =     61.936047     0.000000     0.000292    61.936339
	  126 D(18,21,24,26)  =    177.190696     0.000000     0.000262   177.190958
	  127 D(19,18,21,22)  =     64.775140     0.000000     0.000286    64.775426
	  128 D(19,18,21,23)  =   -179.777375     0.000000     0.000281  -179.777094
	  129 D(19,18,21,24)  =    -57.120573     0.000000     0.000251   -57.120321
	  130 D(20,18,21,22)  =   -179.632319     0.000000     0.000295  -179.632024
	  131 D(20,18,21,23)  =    -64.184833     0.000000     0.000289   -64.184544
	  132 D(20,18,21,24)  =     58.471969     0.000000     0.000260    58.472228
	  133 D(22,21,24,25)  =    -59.491392     0.000000     0.000256   -59.491136
	  134 D(22,21,24,26)  =     55.763256    -0.000000     0.000226    55.763482
	  135 D(23,21,24,25)  =   -174.947039     0.000000     0.000251  -174.946788
	  136 D(23,21,24,26)  =    -59.692391    -0.000000     0.000221   -59.692169
	  137 R(1,21)         =      3.416176     0.000000     0.000002     3.416178
	  138 R(5,18)         =      3.425612     0.000000    -0.000003     3.425609
	 ---------------------------------------------------------------------------

  ==> Convergence Check <==

  Measures of convergence in internal coordinates in au.
  Criteria marked as inactive (o), active & met (*), and active & unmet ( ).
  ---------------------------------------------------------------------------------------------
   Step     Total Energy     Delta E     MAX Force     RMS Force      MAX Disp      RMS Disp   
  ---------------------------------------------------------------------------------------------
    Convergence Criteria             o    2.00e-06 *    1.00e-06 *    6.00e-06 *    4.00e-06 *
  ---------------------------------------------------------------------------------------------
     20    -314.97739516   -1.72e-09 o    2.02e-07 *    4.98e-08 *    5.15e-06 *    2.39e-06 *  ~
  ---------------------------------------------------------------------------------------------


  **** Optimization is complete! (in 20 steps) ****

  ==> Optimization Summary <==

  Measures of convergence in internal coordinates in au.
  --------------------------------------------------------------------------------------------------------------- ~
   Step         Total Energy             Delta E       MAX Force       RMS Force        MAX Disp        RMS Disp  ~
  --------------------------------------------------------------------------------------------------------------- ~
      1    -314.977395154826   -314.977395154826      0.00000176      0.00000042      0.00009844      0.00003715  ~
      2    -314.977395155430     -0.000000000604      0.00000301      0.00000068      0.00008802      0.00003297  ~
      3    -314.977395158466     -0.000000003036      0.00000161      0.00000039      0.00004730      0.00001836  ~
      4    -314.977395161743     -0.000000003278      0.00000133      0.00000032      0.00003425      0.00001151  ~
      5    -314.977395157622      0.000000004122      0.00000132      0.00000031      0.00004651      0.00001622  ~
      6    -314.977395158531     -0.000000000909      0.00000076      0.00000018      0.00003638      0.00001566  ~
      7    -314.977395156509      0.000000002022      0.00000221      0.00000056      0.00003248      0.00000972  ~
      8    -314.977395156181      0.000000000329      0.00000113      0.00000027      0.00002021      0.00000826  ~
      9    -314.977395159433     -0.000000003252      0.00000135      0.00000031      0.00002326      0.00000796  ~
     10    -314.977395157167      0.000000002266      0.00000065      0.00000016      0.00000661      0.00000250  ~
     11    -314.977395160152     -0.000000002986      0.00000161      0.00000039      0.00010744      0.00004095  ~
     12    -314.977395158365      0.000000001788      0.00000523      0.00000114      0.00008021      0.00003322  ~
     13    -314.977395158948     -0.000000000583      0.00000031      0.00000009      0.00001457      0.00000447  ~
     14    -314.977395156169      0.000000002779      0.00000185      0.00000044      0.00002820      0.00000862  ~
     15    -314.977395159373     -0.000000003204      0.00000173      0.00000043      0.00001245      0.00000447  ~
     16    -314.977395158855      0.000000000519      0.00000061      0.00000014      0.00000960      0.00000342  ~
     17    -314.977395155423      0.000000003432      0.00000053      0.00000012      0.00000925      0.00000362  ~
     18    -314.977395156431     -0.000000001009      0.00000040      0.00000010      0.00000987      0.00000348  ~
     19    -314.977395157611     -0.000000001180      0.00000077      0.00000018      0.00000780      0.00000287  ~
     20    -314.977395159329     -0.000000001718      0.00000020      0.00000005      0.00000515      0.00000239  ~
  --------------------------------------------------------------------------------------------------------------- ~

	Writing optimization data to binary file.
	Final energy is   -314.9773951593293
	Final (previous) structure:
	Cartesian Geometry (in Angstrom)
	    C     2.3415799333  -1.1218608719  -0.9586120043
	    H     2.5198291276  -0.4150287942  -1.7705016761
	    H     1.3016603197  -1.4432147787  -1.0173619874
	    H     2.9667875314  -1.9976286038  -1.1323653830
	    C    -2.7208538179  -0.8942055065   0.9867305522
	    H    -3.0306307410  -1.9325129810   1.1076651452
	    H    -3.5585516487  -0.2596389561   1.2790908282
	    H    -1.9055297089  -0.7025039809   1.6825890749
	    C     2.6529157207  -0.4887800064   0.3927930797
	    H     3.7218107685  -0.2698763013   0.4497381145
	    H     2.4429165825  -1.2116973224   1.1860162334
	    C    -2.3142335781  -0.5988909780  -0.4545639320
	    H    -1.5283594361  -1.2920215628  -0.7694402619
	    H    -3.1707393540  -0.7998572233  -1.1007719770
	    C     1.8687311165   0.7915290287   0.6791719019
	    H     2.1414846358   1.5552554819  -0.0561654715
	    H     2.1871167040   1.1745681103   1.6509617867
	    C     0.3439632168   0.6035032606   0.6727537622
	    H    -0.1084873230   1.1967480585   1.4722354306
	    H     0.1162870874  -0.4417116709   0.9010938811
	    C    -0.3130795412   1.0053174984  -0.6453163824
	    H    -0.0614747977   2.0507569497  -0.8476965361
	    H     0.1186706060   0.4233047638  -1.4635042250
	    C    -1.8320931583   0.8433551121  -0.6742702182
	    H    -2.2820820180   1.4925154868   0.0837944430
	    H    -2.1913579440   1.2059738397  -1.6397408846
	Saving final (previous) structure.
			--------------------------
			 OPTKING Finished Execution 
			--------------------------

    Final optimized geometry and variables:
    Molecular point group: c1
    Full point group: C1

    Geometry (in Angstrom), charge = 0, multiplicity = 1:

    C            2.341579933336    -1.121860871893    -0.958612004279
    H            2.519829127648    -0.415028794218    -1.770501676110
    H            1.301660319711    -1.443214778737    -1.017361987444
    H            2.966787531376    -1.997628603752    -1.132365383001
    C           -2.720853817922    -0.894205506545     0.986730552153
    H           -3.030630741005    -1.932512981020     1.107665145189
    H           -3.558551648747    -0.259638956051     1.279090828160
    H           -1.905529708933    -0.702503980891     1.682589074875
    C            2.652915720677    -0.488780006359     0.392793079673
    H            3.721810768499    -0.269876301251     0.449738114524
    H            2.442916582477    -1.211697322397     1.186016233411
    C           -2.314233578120    -0.598890977978    -0.454563931952
    H           -1.528359436100    -1.292021562751    -0.769440261887
    H           -3.170739353996    -0.799857223321    -1.100771976961
    C            1.868731116548     0.791529028698     0.679171901919
    H            2.141484635811     1.555255481876    -0.056165471516
    H            2.187116703963     1.174568110330     1.650961786679
    C            0.343963216818     0.603503260575     0.672753762199
    H           -0.108487322972     1.196748058489     1.472235430620
    H            0.116287087435    -0.441711670927     0.901093881111
    C           -0.313079541195     1.005317498425    -0.645316382414
    H           -0.061474797654     2.050756949697    -0.847696536054
    H            0.118670605956     0.423304763846    -1.463504225046
    C           -1.832093158311     0.843355112103    -0.674270218246
    H           -2.282082017972     1.492515486775     0.083794442979
    H           -2.191357943987     1.205973839650    -1.639740884556

	Cleaning optimization helper files.

*** Psi4 exiting successfully. Buy a developer a beer!
