    -----------------------------------------------------------------------
          Psi4: An Open-Source Ab Initio Electronic Structure Package
                              Psi4 1.0.0 Driver

                          Git: Rev {master} 6a9a71b dirty

    J. M. Turney, A. C. Simmonett, R. M. Parrish, E. G. Hohenstein,
    F. A. Evangelista, J. T. Fermann, B. J. Mintz, L. A. Burns, J. J. Wilke,
    M. L. Abrams, N. J. Russ, M. L. Leininger, C. L. Janssen, E. T. Seidl,
    W. D. Allen, H. F. Schaefer, R. A. King, E. F. Valeev, C. D. Sherrill,
    and T. D. Crawford, WIREs Comput. Mol. Sci. 2, 556-565 (2012)
    (doi: 10.1002/wcms.93)

                         Additional Contributions by
    A. E. DePrince, U. Bozkaya, A. Yu. Sokolov, D. G. A. Smith, R. Di Remigio,
    R. M. Richard, J. F. Gonthier, H. R. McAlexander, M. Saitow, and
    B. P. Pritchard
    -----------------------------------------------------------------------


    Psi4 started on: Wed Sep 21 04:57:33 2016

    Process ID:  11414
    PSI4DATADIR: /usr/local/hpc5/psi4conda/share/psi4
    Memory level set to 256.000 MB

  ==> Input File <==

--------------------------------------------------------------------------
memory 60 Gb

molecule molecule_95_psi {
0 1
C           -2.794948880458    -0.510359003063    -0.828774425103
H           -2.513417244984    -1.411730858129    -0.284532786113
H           -2.258183634419    -0.512347662062    -1.778844659356
H           -3.860879403952    -0.575319168977    -1.046947412603
C            2.391225449587     1.360260434952    -0.000518804335
H            2.732221503460     2.172353604019    -0.643252811373
H            3.138268468439     1.219687976300     0.782140978147
H            1.467614826296     1.680869776919     0.475620258408
C           -2.479417222082     0.747709297556    -0.027499002675
H           -3.028790783925     0.720262315050     0.917799634142
H           -2.844656638271     1.621525552902    -0.572363115055
C            2.214956970201     0.069933070543    -0.796657599856
H            1.497311398375     0.220753418301    -1.607973965072
H            3.168110895215    -0.160677235147    -1.277919961888
C           -0.994258591203     0.939977030964     0.278981121980
H           -0.879240713154     1.884482470030     0.816329014720
H           -0.444979725849     1.050012149948    -0.659810872307
C           -0.389420796547    -0.205866733178     1.106144839436
H            0.337307347051     0.186934181627     1.821415377890
H           -1.191125996648    -0.642301543292     1.709268040868
C            0.287689924334    -1.313091885262     0.284219934250
H            0.148808850827    -2.269167005037     0.795738065702
H           -0.213698176856    -1.409792912129    -0.681866574220
C            1.789198861352    -1.140997102685     0.041643468875
H            2.305715203262    -1.103501969982     1.006719656112
H            2.141636921741    -2.047709836014    -0.456632224867
}

set globals {
  reference rhf
  g_convergence gau_verytight
  basis aug-cc-pvtz
  freeze_core true
  scf_type df
  mp_type df
}
optimize('mp2')
--------------------------------------------------------------------------
/usr/local/hpc5/psi4conda/lib/python2.7/site-packages/v2rdm_casscf/v2rdm_casscf.so loaded.

  Memory set to  60.000 GiB by Python script.
gradient() will perform analytic gradient computation.

*** tstart() called on wr32
*** at Wed Sep 21 04:57:34 2016


         ---------------------------------------------------------
                                   SCF
            by Justin Turney, Rob Parrish, and Andy Simmonett
                              RHF Reference
                       12 Threads,  60000 MiB Core
         ---------------------------------------------------------

  ==> Geometry <==

    Molecular point group: c1
    Full point group: C1

    Geometry (in Angstrom), charge = 0, multiplicity = 1:

       Center              X                  Y                   Z               Mass       
    ------------   -----------------  -----------------  -----------------  -----------------
           C         -2.794948880458    -0.510359003063    -0.828774425103    12.000000000000
           H         -2.513417244984    -1.411730858129    -0.284532786113     1.007825032070
           H         -2.258183634419    -0.512347662062    -1.778844659356     1.007825032070
           H         -3.860879403952    -0.575319168977    -1.046947412603     1.007825032070
           C          2.391225449587     1.360260434952    -0.000518804335    12.000000000000
           H          2.732221503460     2.172353604019    -0.643252811373     1.007825032070
           H          3.138268468439     1.219687976300     0.782140978147     1.007825032070
           H          1.467614826296     1.680869776919     0.475620258408     1.007825032070
           C         -2.479417222082     0.747709297556    -0.027499002675    12.000000000000
           H         -3.028790783925     0.720262315050     0.917799634142     1.007825032070
           H         -2.844656638271     1.621525552902    -0.572363115055     1.007825032070
           C          2.214956970201     0.069933070543    -0.796657599856    12.000000000000
           H          1.497311398375     0.220753418301    -1.607973965072     1.007825032070
           H          3.168110895215    -0.160677235147    -1.277919961888     1.007825032070
           C         -0.994258591203     0.939977030964     0.278981121980    12.000000000000
           H         -0.879240713154     1.884482470030     0.816329014720     1.007825032070
           H         -0.444979725849     1.050012149948    -0.659810872307     1.007825032070
           C         -0.389420796547    -0.205866733178     1.106144839436    12.000000000000
           H          0.337307347051     0.186934181627     1.821415377890     1.007825032070
           H         -1.191125996648    -0.642301543292     1.709268040868     1.007825032070
           C          0.287689924334    -1.313091885262     0.284219934250    12.000000000000
           H          0.148808850827    -2.269167005037     0.795738065702     1.007825032070
           H         -0.213698176856    -1.409792912129    -0.681866574220     1.007825032070
           C          1.789198861352    -1.140997102685     0.041643468875    12.000000000000
           H          2.305715203262    -1.103501969982     1.006719656112     1.007825032070
           H          2.141636921741    -2.047709836014    -0.456632224867     1.007825032070

  Running in c1 symmetry.

  Rotational constants: A =      0.10185  B =      0.03441  C =      0.03071 [cm^-1]
  Rotational constants: A =   3053.32725  B =   1031.67682  C =    920.74519 [MHz]
  Nuclear repulsion =  407.280094741658672

  Charge       = 0
  Multiplicity = 1
  Electrons    = 66
  Nalpha       = 33
  Nbeta        = 33

  ==> Algorithm <==

  SCF Algorithm Type is DF.
  DIIS enabled.
  MOM disabled.
  Fractional occupation disabled.
  Guess Type is SAD.
  Energy threshold   = 1.00e-10
  Density threshold  = 1.00e-10
  Integral threshold = 0.00e+00

  ==> Primary Basis <==

  Basis Set: AUG-CC-PVTZ
    Number of shells: 274
    Number of basis function: 782
    Number of Cartesian functions: 890
    Spherical Harmonics?: true
    Max angular momentum: 3

  ==> Pre-Iterations <==

   -------------------------------------------------------
    Irrep   Nso     Nmo     Nalpha   Nbeta   Ndocc  Nsocc
   -------------------------------------------------------
     A        782     782       0       0       0       0
   -------------------------------------------------------
    Total     782     782      33      33      33       0
   -------------------------------------------------------

  ==> Integral Setup <==

  ==> DFJK: Density-Fitted J/K Matrices <==

    J tasked:                  Yes
    K tasked:                  Yes
    wK tasked:                  No
    OpenMP threads:             12
    Integrals threads:          12
    Memory (MB):             42915
    Algorithm:                Core
    Integral Cache:           NONE
    Schwarz Cutoff:          1E-12
    Fitting Condition:       1E-12

   => Auxiliary Basis Set <=

  Basis Set: 
    Number of shells: 492
    Number of basis function: 1660
    Number of Cartesian functions: 2038
    Spherical Harmonics?: true
    Max angular momentum: 4

  Minimum eigenvalue in the overlap matrix is 1.3039668221E-06.
  Using Symmetric Orthogonalization.
  SCF Guess: Superposition of Atomic Densities via on-the-fly atomic UHF.

  ==> Iterations <==

                           Total Energy        Delta E     RMS |[F,P]|

   @DF-RHF iter   0:  -317.09568154210888   -3.17096e+02   7.05567e-03 
   @DF-RHF iter   1:  -313.30363103475315    3.79205e+00   6.79071e-04 
   @DF-RHF iter   2:  -313.50247064710277   -1.98840e-01   2.33324e-04 DIIS
   @DF-RHF iter   3:  -313.52486154385258   -2.23909e-02   9.46899e-05 DIIS
   @DF-RHF iter   4:  -313.52909944531712   -4.23790e-03   1.63040e-05 DIIS
   @DF-RHF iter   5:  -313.52927140013196   -1.71955e-04   4.34614e-06 DIIS
   @DF-RHF iter   6:  -313.52928367037771   -1.22702e-05   1.27970e-06 DIIS
   @DF-RHF iter   7:  -313.52928461963268   -9.49255e-07   3.14715e-07 DIIS
   @DF-RHF iter   8:  -313.52928468785194   -6.82193e-08   8.71429e-08 DIIS
   @DF-RHF iter   9:  -313.52928469292931   -5.07737e-09   2.48453e-08 DIIS
   @DF-RHF iter  10:  -313.52928469336427   -4.34966e-10   7.08689e-09 DIIS
   @DF-RHF iter  11:  -313.52928469339497   -3.06954e-11   1.77778e-09 DIIS
   @DF-RHF iter  12:  -313.52928469339668   -1.70530e-12   4.36122e-10 DIIS
   @DF-RHF iter  13:  -313.52928469339713   -4.54747e-13   1.54759e-10 DIIS
   @DF-RHF iter  14:  -313.52928469339645    6.82121e-13   4.13418e-11 DIIS

  ==> Post-Iterations <==

    Orbital Energies (a.u.)
    -----------------------

    Doubly Occupied:                                                      

       1A    -11.213380     2A    -11.212818     3A    -11.210955  
       4A    -11.210756     5A    -11.210333     6A    -11.209765  
       7A    -11.207137     8A    -11.204819     9A     -1.092810  
      10A     -1.056937    11A     -1.003294    12A     -0.952997  
      13A     -0.890277    14A     -0.827359    15A     -0.780927  
      16A     -0.763225    17A     -0.642964    18A     -0.618889  
      19A     -0.615886    20A     -0.595901    21A     -0.577186  
      22A     -0.563685    23A     -0.543940    24A     -0.530892  
      25A     -0.515576    26A     -0.507049    27A     -0.490894  
      28A     -0.473471    29A     -0.464444    30A     -0.459115  
      31A     -0.444526    32A     -0.433386    33A     -0.430692  

    Virtual:                                                              

      34A      0.029308    35A      0.033564    36A      0.034163  
      37A      0.035413    38A      0.047304    39A      0.048292  
      40A      0.049920    41A      0.052965    42A      0.054071  
      43A      0.068266    44A      0.069429    45A      0.073541  
      46A      0.074809    47A      0.077485    48A      0.082222  
      49A      0.090109    50A      0.095004    51A      0.100595  
      52A      0.116183    53A      0.119817    54A      0.122033  
      55A      0.126341    56A      0.130069    57A      0.133010  
      58A      0.134305    59A      0.135600    60A      0.138703  
      61A      0.140496    62A      0.144865    63A      0.150971  
      64A      0.151790    65A      0.156694    66A      0.160915  
      67A      0.166213    68A      0.170057    69A      0.172727  
      70A      0.175686    71A      0.178941    72A      0.182437  
      73A      0.187242    74A      0.191046    75A      0.197938  
      76A      0.201677    77A      0.205561    78A      0.220608  
      79A      0.226120    80A      0.230230    81A      0.236279  
      82A      0.241083    83A      0.250333    84A      0.260722  
      85A      0.270316    86A      0.280883    87A      0.283966  
      88A      0.291595    89A      0.293340    90A      0.298676  
      91A      0.301535    92A      0.309271    93A      0.314475  
      94A      0.314945    95A      0.318740    96A      0.326004  
      97A      0.327177    98A      0.330090    99A      0.332158  
     100A      0.337874   101A      0.344231   102A      0.345805  
     103A      0.348508   104A      0.352077   105A      0.356472  
     106A      0.364272   107A      0.364957   108A      0.370897  
     109A      0.372504   110A      0.375423   111A      0.376616  
     112A      0.383301   113A      0.383831   114A      0.387104  
     115A      0.392038   116A      0.392385   117A      0.398591  
     118A      0.400435   119A      0.411500   120A      0.416828  
     121A      0.420367   122A      0.420804   123A      0.426677  
     124A      0.432981   125A      0.436913   126A      0.439734  
     127A      0.442438   128A      0.445343   129A      0.453401  
     130A      0.455110   131A      0.458292   132A      0.465280  
     133A      0.468669   134A      0.469779   135A      0.471934  
     136A      0.476462   137A      0.486954   138A      0.492607  
     139A      0.492949   140A      0.498621   141A      0.500077  
     142A      0.508281   143A      0.509977   144A      0.516412  
     145A      0.520448   146A      0.523530   147A      0.526055  
     148A      0.529046   149A      0.532064   150A      0.540762  
     151A      0.541307   152A      0.544048   153A      0.544304  
     154A      0.550465   155A      0.557565   156A      0.561381  
     157A      0.566660   158A      0.570740   159A      0.572765  
     160A      0.584055   161A      0.588568   162A      0.595708  
     163A      0.596242   164A      0.604046   165A      0.604870  
     166A      0.610401   167A      0.613462   168A      0.618290  
     169A      0.624217   170A      0.629139   171A      0.631043  
     172A      0.639443   173A      0.640357   174A      0.651062  
     175A      0.651440   176A      0.656647   177A      0.661655  
     178A      0.666715   179A      0.672796   180A      0.675928  
     181A      0.678843   182A      0.682918   183A      0.685023  
     184A      0.690364   185A      0.695063   186A      0.705039  
     187A      0.709108   188A      0.714494   189A      0.715075  
     190A      0.722430   191A      0.726712   192A      0.733081  
     193A      0.738709   194A      0.742351   195A      0.763630  
     196A      0.765296   197A      0.771069   198A      0.771425  
     199A      0.773761   200A      0.779502   201A      0.789128  
     202A      0.802932   203A      0.821856   204A      0.827155  
     205A      0.839901   206A      0.845582   207A      0.848971  
     208A      0.854624   209A      0.860913   210A      0.866814  
     211A      0.868377   212A      0.876877   213A      0.879163  
     214A      0.890196   215A      0.893142   216A      0.895647  
     217A      0.902382   218A      0.906000   219A      0.916541  
     220A      0.917555   221A      0.925148   222A      0.926353  
     223A      0.935825   224A      0.939242   225A      0.943495  
     226A      0.954968   227A      0.961135   228A      0.963541  
     229A      0.969909   230A      0.973616   231A      0.981370  
     232A      0.983234   233A      0.989420   234A      0.993859  
     235A      0.998402   236A      1.005845   237A      1.009360  
     238A      1.014169   239A      1.023092   240A      1.026781  
     241A      1.034117   242A      1.037681   243A      1.040826  
     244A      1.042955   245A      1.048630   246A      1.053577  
     247A      1.057227   248A      1.058772   249A      1.066313  
     250A      1.076799   251A      1.080077   252A      1.083732  
     253A      1.089509   254A      1.099858   255A      1.104058  
     256A      1.114609   257A      1.116102   258A      1.123109  
     259A      1.125802   260A      1.132133   261A      1.138094  
     262A      1.145195   263A      1.150759   264A      1.154279  
     265A      1.161413   266A      1.162965   267A      1.169663  
     268A      1.176892   269A      1.181432   270A      1.186332  
     271A      1.189821   272A      1.196923   273A      1.204976  
     274A      1.210818   275A      1.215549   276A      1.219678  
     277A      1.222187   278A      1.226356   279A      1.228633  
     280A      1.232785   281A      1.239165   282A      1.242294  
     283A      1.256701   284A      1.262836   285A      1.267167  
     286A      1.267747   287A      1.272231   288A      1.278583  
     289A      1.286055   290A      1.294323   291A      1.303098  
     292A      1.312735   293A      1.315949   294A      1.319342  
     295A      1.326282   296A      1.330277   297A      1.333538  
     298A      1.338274   299A      1.347616   300A      1.355582  
     301A      1.359995   302A      1.364779   303A      1.377464  
     304A      1.383750   305A      1.386880   306A      1.394390  
     307A      1.399738   308A      1.406326   309A      1.410887  
     310A      1.417043   311A      1.423632   312A      1.435150  
     313A      1.440611   314A      1.448797   315A      1.449479  
     316A      1.465515   317A      1.474238   318A      1.479377  
     319A      1.482921   320A      1.497897   321A      1.508709  
     322A      1.517931   323A      1.523992   324A      1.524771  
     325A      1.527488   326A      1.537868   327A      1.540330  
     328A      1.545734   329A      1.556359   330A      1.568662  
     331A      1.573851   332A      1.583457   333A      1.587160  
     334A      1.594153   335A      1.605992   336A      1.610219  
     337A      1.623912   338A      1.632552   339A      1.637330  
     340A      1.641475   341A      1.645361   342A      1.653167  
     343A      1.663806   344A      1.665928   345A      1.674654  
     346A      1.678667   347A      1.682886   348A      1.694656  
     349A      1.697257   350A      1.700052   351A      1.707795  
     352A      1.711359   353A      1.721723   354A      1.727528  
     355A      1.730988   356A      1.734504   357A      1.738636  
     358A      1.747290   359A      1.753033   360A      1.763674  
     361A      1.764536   362A      1.776857   363A      1.783498  
     364A      1.785648   365A      1.794259   366A      1.796942  
     367A      1.802275   368A      1.807251   369A      1.821350  
     370A      1.826421   371A      1.831653   372A      1.834043  
     373A      1.842475   374A      1.850612   375A      1.855484  
     376A      1.856940   377A      1.865016   378A      1.872770  
     379A      1.882388   380A      1.883400   381A      1.889897  
     382A      1.901915   383A      1.911393   384A      1.913994  
     385A      1.916894   386A      1.928901   387A      1.932540  
     388A      1.933778   389A      1.945919   390A      1.953859  
     391A      1.959896   392A      1.964989   393A      1.977395  
     394A      1.981918   395A      1.993143   396A      1.997908  
     397A      2.003061   398A      2.018684   399A      2.020764  
     400A      2.023783   401A      2.034388   402A      2.045631  
     403A      2.049601   404A      2.058198   405A      2.062019  
     406A      2.072721   407A      2.077516   408A      2.077735  
     409A      2.081232   410A      2.087960   411A      2.096796  
     412A      2.104512   413A      2.108939   414A      2.117624  
     415A      2.121188   416A      2.134750   417A      2.140169  
     418A      2.146527   419A      2.162264   420A      2.169694  
     421A      2.175052   422A      2.189460   423A      2.194907  
     424A      2.196722   425A      2.209398   426A      2.216594  
     427A      2.224051   428A      2.237975   429A      2.252066  
     430A      2.252928   431A      2.263515   432A      2.274942  
     433A      2.281112   434A      2.297661   435A      2.303720  
     436A      2.313727   437A      2.317486   438A      2.323676  
     439A      2.327068   440A      2.337582   441A      2.348992  
     442A      2.356105   443A      2.365122   444A      2.370904  
     445A      2.379502   446A      2.391737   447A      2.400762  
     448A      2.408042   449A      2.413234   450A      2.422400  
     451A      2.429705   452A      2.441697   453A      2.452140  
     454A      2.457551   455A      2.471570   456A      2.473199  
     457A      2.487197   458A      2.502053   459A      2.506104  
     460A      2.519607   461A      2.531351   462A      2.539850  
     463A      2.554462   464A      2.561005   465A      2.577705  
     466A      2.589143   467A      2.594325   468A      2.606874  
     469A      2.619076   470A      2.624141   471A      2.633272  
     472A      2.655118   473A      2.658157   474A      2.681078  
     475A      2.682832   476A      2.689766   477A      2.703096  
     478A      2.717367   479A      2.730574   480A      2.731870  
     481A      2.777626   482A      2.785290   483A      2.829403  
     484A      2.859008   485A      2.953331   486A      2.974384  
     487A      3.027828   488A      3.071769   489A      3.151102  
     490A      3.204190   491A      3.232981   492A      3.269939  
     493A      3.292259   494A      3.368325   495A      3.396600  
     496A      3.433663   497A      3.445132   498A      3.462976  
     499A      3.468865   500A      3.503317   501A      3.515238  
     502A      3.524004   503A      3.542470   504A      3.555537  
     505A      3.560696   506A      3.576786   507A      3.595206  
     508A      3.599995   509A      3.612003   510A      3.622353  
     511A      3.633723   512A      3.646132   513A      3.666466  
     514A      3.674983   515A      3.676747   516A      3.697634  
     517A      3.702440   518A      3.713536   519A      3.718010  
     520A      3.726893   521A      3.732647   522A      3.739044  
     523A      3.749887   524A      3.754926   525A      3.770522  
     526A      3.778038   527A      3.784397   528A      3.789761  
     529A      3.801683   530A      3.811571   531A      3.817776  
     532A      3.821549   533A      3.829691   534A      3.835136  
     535A      3.850203   536A      3.854821   537A      3.869318  
     538A      3.882382   539A      3.896350   540A      3.897995  
     541A      3.903721   542A      3.913727   543A      3.924574  
     544A      3.928791   545A      3.939684   546A      3.945044  
     547A      3.951729   548A      3.959951   549A      3.966681  
     550A      3.971369   551A      3.974919   552A      3.993191  
     553A      3.995055   554A      4.003204   555A      4.007176  
     556A      4.020777   557A      4.021777   558A      4.029513  
     559A      4.034324   560A      4.045443   561A      4.052964  
     562A      4.060310   563A      4.063983   564A      4.072681  
     565A      4.082939   566A      4.088553   567A      4.090784  
     568A      4.113260   569A      4.122100   570A      4.124602  
     571A      4.125577   572A      4.136104   573A      4.143487  
     574A      4.149822   575A      4.159611   576A      4.170000  
     577A      4.187166   578A      4.198210   579A      4.200541  
     580A      4.206024   581A      4.219611   582A      4.235863  
     583A      4.240029   584A      4.246148   585A      4.256199  
     586A      4.263331   587A      4.274490   588A      4.277340  
     589A      4.283202   590A      4.302411   591A      4.308562  
     592A      4.320394   593A      4.336455   594A      4.341985  
     595A      4.344279   596A      4.352937   597A      4.364578  
     598A      4.371590   599A      4.381992   600A      4.395484  
     601A      4.409030   602A      4.417011   603A      4.431932  
     604A      4.451856   605A      4.454779   606A      4.462285  
     607A      4.464982   608A      4.482938   609A      4.488455  
     610A      4.500341   611A      4.509616   612A      4.521614  
     613A      4.550323   614A      4.556174   615A      4.563520  
     616A      4.578257   617A      4.590459   618A      4.600382  
     619A      4.616638   620A      4.631595   621A      4.641029  
     622A      4.662904   623A      4.669185   624A      4.674490  
     625A      4.682822   626A      4.687769   627A      4.700983  
     628A      4.733631   629A      4.746548   630A      4.754518  
     631A      4.765145   632A      4.779079   633A      4.792478  
     634A      4.796582   635A      4.807584   636A      4.812476  
     637A      4.821375   638A      4.838820   639A      4.859538  
     640A      4.863950   641A      4.876039   642A      4.892074  
     643A      4.904175   644A      4.912840   645A      4.918284  
     646A      4.920847   647A      4.929633   648A      4.953249  
     649A      4.956348   650A      4.963911   651A      4.973395  
     652A      4.987371   653A      4.990228   654A      5.001346  
     655A      5.016805   656A      5.030359   657A      5.031932  
     658A      5.040345   659A      5.063013   660A      5.074453  
     661A      5.095719   662A      5.101934   663A      5.120091  
     664A      5.132868   665A      5.138654   666A      5.145881  
     667A      5.164601   668A      5.173878   669A      5.183709  
     670A      5.202057   671A      5.213042   672A      5.223080  
     673A      5.226044   674A      5.234552   675A      5.254115  
     676A      5.260396   677A      5.277807   678A      5.282250  
     679A      5.298488   680A      5.302263   681A      5.314496  
     682A      5.325373   683A      5.328840   684A      5.347731  
     685A      5.375714   686A      5.380632   687A      5.387092  
     688A      5.394707   689A      5.407357   690A      5.421949  
     691A      5.434908   692A      5.444689   693A      5.453621  
     694A      5.464643   695A      5.467363   696A      5.481634  
     697A      5.495061   698A      5.498560   699A      5.510422  
     700A      5.523292   701A      5.529744   702A      5.547144  
     703A      5.559892   704A      5.572675   705A      5.589599  
     706A      5.596841   707A      5.607492   708A      5.620713  
     709A      5.629810   710A      5.648515   711A      5.656372  
     712A      5.661995   713A      5.694774   714A      5.697678  
     715A      5.706087   716A      5.717117   717A      5.723273  
     718A      5.737388   719A      5.740335   720A      5.745281  
     721A      5.759591   722A      5.775280   723A      5.788090  
     724A      5.806018   725A      5.815533   726A      5.844219  
     727A      5.861376   728A      5.872440   729A      5.895768  
     730A      5.912437   731A      5.919173   732A      5.976053  
     733A      6.002165   734A      6.025155   735A      6.048787  
     736A      6.071384   737A      6.098512   738A      6.114078  
     739A      6.133226   740A      6.138954   741A      6.152897  
     742A      6.172178   743A      6.175935   744A      6.241677  
     745A      6.246982   746A      6.260793   747A      6.277571  
     748A      6.286700   749A      6.315601   750A      6.327056  
     751A      6.353221   752A      6.355398   753A      6.374819  
     754A      6.396262   755A      6.420378   756A      6.446105  
     757A      6.471652   758A      6.493111   759A      6.586194  
     760A      6.643803   761A      6.704663   762A      6.738331  
     763A      6.786759   764A      6.799754   765A      6.826761  
     766A      6.919711   767A      6.971396   768A      6.973532  
     769A      6.987961   770A      6.993912   771A      7.046109  
     772A      7.102458   773A      7.114018   774A      7.227536  
     775A     18.082611   776A     18.228507   777A     18.696629  
     778A     18.842607   779A     19.368085   780A     19.669762  
     781A     19.709075   782A     19.888904  

    Final Occupation by Irrep:
              A 
    DOCC [    33 ]

  Energy converged.

  @DF-RHF Final Energy:  -313.52928469339645

   => Energetics <=

    Nuclear Repulsion Energy =            407.2800947416586723
    One-Electron Energy =               -1229.7061948778909937
    Two-Electron Energy =                 508.8968154428354751
    DFT Exchange-Correlation Energy =       0.0000000000000000
    Empirical Dispersion Energy =           0.0000000000000000
    PCM Polarization Energy =               0.0000000000000000
    EFP Energy =                            0.0000000000000000
    Total Energy =                       -313.5292846933968463


  Saving occupied orbitals to File 180.

*** tstop() called on wr32 at Wed Sep 21 04:58:51 2016
Module time:
	user time   =     828.37 seconds =      13.81 minutes
	system time =       9.68 seconds =       0.16 minutes
	total time  =         77 seconds =       1.28 minutes
Total time:
	user time   =     828.37 seconds =      13.81 minutes
	system time =       9.68 seconds =       0.16 minutes
	total time  =         77 seconds =       1.28 minutes


Properties will be evaluated at   0.000000,   0.000000,   0.000000 Bohr

Properties computed using the SCF density matrix

  Nuclear Dipole Moment: (a.u.)
     X:    -0.2793      Y:     0.5853      Z:    -0.6423

  Electronic Dipole Moment: (a.u.)
     X:     0.2620      Y:    -0.5928      Z:     0.6403

  Dipole Moment: (a.u.)
     X:    -0.0174      Y:    -0.0075      Z:    -0.0020     Total:     0.0190

  Dipole Moment: (Debye)
     X:    -0.0441      Y:    -0.0192      Z:    -0.0051     Total:     0.0484


  //>>>>>>>>>>>>>>>>>>>>>>>>>>>>>>>>>>>//
  //               DFMP2               //
  //<<<<<<<<<<<<<<<<<<<<<<<<<<<<<<<<<<<//


*** tstart() called on wr32
*** at Wed Sep 21 04:58:51 2016


*** tstop() called on wr32 at Wed Sep 21 04:58:51 2016
Module time:
	user time   =       3.16 seconds =       0.05 minutes
	system time =       0.12 seconds =       0.00 minutes
	total time  =          0 seconds =       0.00 minutes
Total time:
	user time   =     833.02 seconds =      13.88 minutes
	system time =       9.85 seconds =       0.16 minutes
	total time  =         77 seconds =       1.28 minutes
	 --------------------------------------------------------
	                          DF-MP2                         
	      2nd-Order Density-Fitted Moller-Plesset Theory     
	              RMP2 Wavefunction,  12 Threads             
	                                                         
	        Rob Parrish, Justin Turney, Andy Simmonett,      
	           Ed Hohenstein, and C. David Sherrill          
	 --------------------------------------------------------

   => Auxiliary Basis Set <=

  Basis Set: 
    Number of shells: 476
    Number of basis function: 1676
    Number of Cartesian functions: 2078
    Spherical Harmonics?: true
    Max angular momentum: 4

	 --------------------------------------------------------
	                 NBF =   782, NAUX =  1676
	 --------------------------------------------------------
	   CLASS    FOCC     OCC    AOCC    AVIR     VIR    FVIR
	   PAIRS       8      33      25     749     749       0
	 --------------------------------------------------------

DGAS Warning! /src/lib/libfock/apps.cc:80 is not currently checking restricted

         ------------------------------------------------------------
                                     CPHF                           
                                  Rob Parrish                       
         ------------------------------------------------------------

  ==> Geometry <==

    Molecular point group: c1
    Full point group: C1

    Geometry (in Angstrom), charge = 0, multiplicity = 1:

       Center              X                  Y                   Z               Mass       
    ------------   -----------------  -----------------  -----------------  -----------------
           C         -2.794948880458    -0.510359003063    -0.828774425103    12.000000000000
           H         -2.513417244984    -1.411730858129    -0.284532786113     1.007825032070
           H         -2.258183634419    -0.512347662062    -1.778844659356     1.007825032070
           H         -3.860879403952    -0.575319168977    -1.046947412603     1.007825032070
           C          2.391225449587     1.360260434952    -0.000518804335    12.000000000000
           H          2.732221503460     2.172353604019    -0.643252811373     1.007825032070
           H          3.138268468439     1.219687976300     0.782140978147     1.007825032070
           H          1.467614826296     1.680869776919     0.475620258408     1.007825032070
           C         -2.479417222082     0.747709297556    -0.027499002675    12.000000000000
           H         -3.028790783925     0.720262315050     0.917799634142     1.007825032070
           H         -2.844656638271     1.621525552902    -0.572363115055     1.007825032070
           C          2.214956970201     0.069933070543    -0.796657599856    12.000000000000
           H          1.497311398375     0.220753418301    -1.607973965072     1.007825032070
           H          3.168110895215    -0.160677235147    -1.277919961888     1.007825032070
           C         -0.994258591203     0.939977030964     0.278981121980    12.000000000000
           H         -0.879240713154     1.884482470030     0.816329014720     1.007825032070
           H         -0.444979725849     1.050012149948    -0.659810872307     1.007825032070
           C         -0.389420796547    -0.205866733178     1.106144839436    12.000000000000
           H          0.337307347051     0.186934181627     1.821415377890     1.007825032070
           H         -1.191125996648    -0.642301543292     1.709268040868     1.007825032070
           C          0.287689924334    -1.313091885262     0.284219934250    12.000000000000
           H          0.148808850827    -2.269167005037     0.795738065702     1.007825032070
           H         -0.213698176856    -1.409792912129    -0.681866574220     1.007825032070
           C          1.789198861352    -1.140997102685     0.041643468875    12.000000000000
           H          2.305715203262    -1.103501969982     1.006719656112     1.007825032070
           H          2.141636921741    -2.047709836014    -0.456632224867     1.007825032070

  Nuclear repulsion =  407.280094741658672
  Reference energy  = -313.529284693396448

  ==> Basis Set <==

  Basis Set: AUG-CC-PVTZ
    Number of shells: 274
    Number of basis function: 782
    Number of Cartesian functions: 890
    Spherical Harmonics?: true
    Max angular momentum: 3

  ==> CGRSolver (by Rob Parrish) <==

   Number of roots    =         1
   Preconditioning    =    JACOBI
   Convergence cutoff =     1E-06
   Maximum iterations =       100

  ==> CPHFRHamiltonian (by Rob Parrish) <== 

  ==> DFJK: Density-Fitted J/K Matrices <==

    J tasked:                  Yes
    K tasked:                  Yes
    wK tasked:                  No
    OpenMP threads:             12
    Integrals threads:          12
    Memory (MB):             42915
    Algorithm:                Core
    Integral Cache:           NONE
    Schwarz Cutoff:          1E-12
    Fitting Condition:       1E-12

   => Auxiliary Basis Set <=

  Basis Set: 
    Number of shells: 492
    Number of basis function: 1660
    Number of Cartesian functions: 2038
    Spherical Harmonics?: true
    Max angular momentum: 4

  ==> CPHF Iterations <==

  => Iterations <=

             Iter  Converged  Remaining    Residual
  CGR           1          0          1   9.448E-02
  CGR           2          0          1   1.374E-02
  CGR           3          0          1   4.003E-03
  CGR           4          0          1   8.997E-04
  CGR           5          0          1   2.341E-04
  CGR           6          0          1   4.771E-05
  CGR           7          0          1   1.426E-05
  CGR           8          0          1   3.629E-06
  CGR           9          1          0   9.700E-07

    CGRSolver converged.

  ==> DFCorrGrad: Density-Fitted Correlated Gradients <==

    OpenMP threads:             12
    Integrals threads:          12
    Memory (MB):             42915
    Schwarz Cutoff:          0E+00
    Fitting Condition:       1E-12

   => Auxiliary Basis Set <=

  Basis Set: 
    Number of shells: 492
    Number of basis function: 1660
    Number of Cartesian functions: 2038
    Spherical Harmonics?: true
    Max angular momentum: 4

	-----------------------------------------------------------
	 ==================> DF-MP2 Energies <==================== 
	-----------------------------------------------------------
	 Reference Energy          =    -313.5292846933964483 [Eh]
	 Singles Energy            =      -0.0000000000000001 [Eh]
	 Same-Spin Energy          =      -0.3177887398196679 [Eh]
	 Opposite-Spin Energy      =      -1.1281419405044462 [Eh]
	 Correlation Energy        =      -1.4459306803241143 [Eh]
	 Total Energy              =    -314.9752153737205731 [Eh]
	-----------------------------------------------------------
	 ================> DF-SCS-MP2 Energies <================== 
	-----------------------------------------------------------
	 SCS Same-Spin Scale       =       0.3333333333333333 [-]
	 SCS Opposite-Spin Scale   =       1.2000000000000000 [-]
	 SCS Same-Spin Energy      =      -0.1059295799398893 [Eh]
	 SCS Opposite-Spin Energy  =      -1.3537703286053353 [Eh]
	 SCS Correlation Energy    =      -1.4596999085452249 [Eh]
	 SCS Total Energy          =    -314.9889846019416950 [Eh]
	-----------------------------------------------------------


  -Total Gradient:
     Atom            X                  Y                   Z
    ------   -----------------  -----------------  -----------------
       1        0.000000219759     0.000000913244     0.000000480133
       2        0.000000272050    -0.000001075477     0.000000456143
       3        0.000000519034    -0.000000198241    -0.000001010780
       4       -0.000000837098     0.000000155017    -0.000000040790
       5       -0.000000605329    -0.000001136347    -0.000000471065
       6        0.000000256505     0.000000400365    -0.000000518536
       7        0.000000569777    -0.000000064573     0.000000588682
       8       -0.000000538471     0.000000413535     0.000000434640
       9        0.000000853503    -0.000000878272    -0.000000940788
      10       -0.000000668896     0.000000023252     0.000001171162
      11       -0.000000404546     0.000000906916    -0.000000732086
      12        0.000000367160     0.000000516208     0.000001102620
      13       -0.000000865197     0.000000111067    -0.000001008917
      14        0.000000519649    -0.000000074626    -0.000000058977
      15       -0.000001144791    -0.000000759006     0.000001461896
      16       -0.000000154023     0.000000797991     0.000000812040
      17        0.000001045273     0.000000401296    -0.000001452902
      18        0.000000112370     0.000000158258    -0.000001735132
      19        0.000001042761     0.000000165024     0.000001009009
      20       -0.000000998540     0.000000016988     0.000000609591
      21        0.000000677424     0.000000766151     0.000000937917
      22        0.000000067570    -0.000000893963     0.000000710128
      23       -0.000000749902    -0.000000413663    -0.000001451478
      24       -0.000000529520     0.000000422116    -0.000000842889
      25        0.000000725774    -0.000000022859     0.000000997622
      26        0.000000247706    -0.000000650399    -0.000000507242


			-----------------------------------------
			 OPTKING 2.0: for geometry optimizations 
			  - R.A. King,  Bethel University        
			-----------------------------------------

	Internal coordinates to be generated automatically.
	Detected frag 1 with atoms:  1 2 3 4 5 6 7 8 9 10 11 12 13 14 15 16 17 18 19 20
	 21 22 23 24 25 26
	---Fragment 1 Bond Connectivity---
	 1 : 2 3 4 9
	 2 : 1
	 3 : 1
	 4 : 1
	 5 : 6 7 8 12
	 6 : 5
	 7 : 5
	 8 : 5
	 9 : 1 10 11 15
	 10 : 9
	 11 : 9
	 12 : 5 13 14 24
	 13 : 12
	 14 : 12
	 15 : 9 16 17 18
	 16 : 15
	 17 : 15
	 18 : 15 19 20 21
	 19 : 18
	 20 : 18
	 21 : 18 22 23 24
	 22 : 21
	 23 : 21
	 24 : 12 21 25 26
	 25 : 24
	 26 : 24

	---Fragment 1 Geometry and Gradient---
	 C          -5.2816879395       -0.9644387452       -1.5661566894
	 H          -4.7496702507       -2.6677846952       -0.5376890416
	 H          -4.2673486268       -0.9681967661       -3.3615292391
	 H          -7.2960047056       -1.0871956684       -1.9784438854
	 C           4.5187612217        2.5705196915       -0.0009803981
	 H           5.1631503759        4.1051533754       -1.2155716477
	 H           5.9304679368        2.3048762428        1.4780322460
	 H           2.7733900903        3.1763835434        0.8987920316
	 C          -4.6854195189        1.4129657994       -0.0519655840
	 H          -5.7235850954        1.3610985193        1.7343899534
	 H          -5.3756219884        3.0642392125       -1.0816095360
	 C           4.1856620698        0.1321543510       -1.5054646854
	 H           2.8295084786        0.4171635035       -3.0386304228
	 H           5.9868619506       -0.3036359702       -2.4149187477
	 C          -1.8788764426        1.7762991597        0.5271979168
	 H          -1.6615241527        3.5611557706        1.5426382721
	 H          -0.8408898165        1.9842353996       -1.2468618482
	 C          -0.7358986559       -0.3890317456        2.0903108098
	 H           0.6374185085        0.3532544082        3.4419762384
	 H          -2.2509019234       -1.2137740116        3.2300484849
	 C           0.5436551682       -2.4813840505        0.5370978372
	 H           0.2812079742       -4.2881041893        1.5037270177
	 H          -0.4038310294       -2.6641225080       -1.2885410844
	 C           3.3810958452       -2.1561720425        0.0786947514
	 H           4.3571702746       -2.0853165104        1.9024244426
	 H           4.0471072582       -3.8696107897       -0.8629098484
	             0.0000002198        0.0000009132        0.0000004801
	             0.0000002720       -0.0000010755        0.0000004561
	             0.0000005190       -0.0000001982       -0.0000010108
	            -0.0000008371        0.0000001550       -0.0000000408
	            -0.0000006053       -0.0000011363       -0.0000004711
	             0.0000002565        0.0000004004       -0.0000005185
	             0.0000005698       -0.0000000646        0.0000005887
	            -0.0000005385        0.0000004135        0.0000004346
	             0.0000008535       -0.0000008783       -0.0000009408
	            -0.0000006689        0.0000000233        0.0000011712
	            -0.0000004045        0.0000009069       -0.0000007321
	             0.0000003672        0.0000005162        0.0000011026
	            -0.0000008652        0.0000001111       -0.0000010089
	             0.0000005196       -0.0000000746       -0.0000000590
	            -0.0000011448       -0.0000007590        0.0000014619
	            -0.0000001540        0.0000007980        0.0000008120
	             0.0000010453        0.0000004013       -0.0000014529
	             0.0000001124        0.0000001583       -0.0000017351
	             0.0000010428        0.0000001650        0.0000010090
	            -0.0000009985        0.0000000170        0.0000006096
	             0.0000006774        0.0000007662        0.0000009379
	             0.0000000676       -0.0000008940        0.0000007101
	            -0.0000007499       -0.0000004137       -0.0000014515
	            -0.0000005295        0.0000004221       -0.0000008429
	             0.0000007258       -0.0000000229        0.0000009976
	             0.0000002477       -0.0000006504       -0.0000005072

	Previous optimization step data not found.  Starting new optimization.

	---Fragment 1 Intrafragment Coordinates---
	 - Coordinate -           - BOHR/RAD -       - ANG/DEG -
	 R(1,2)           =         2.059654	       1.089922
	 R(1,3)           =         2.062101	       1.091217
	 R(1,4)           =         2.059738	       1.089967
	 R(1,9)           =         2.881035	       1.524578
	 R(5,6)           =         2.060478	       1.090358
	 R(5,7)           =         2.061786	       1.091050
	 R(5,8)           =         2.054989	       1.087454
	 R(5,12)          =         2.884450	       1.526385
	 R(9,10)          =         2.066771	       1.093688
	 R(9,11)          =         2.064764	       1.092626
	 R(9,15)          =         2.888620	       1.528592
	 R(12,13)         =         2.066635	       1.093616
	 R(12,14)         =         2.064302	       1.092381
	 R(12,24)         =         2.897124	       1.533092
	 R(15,16)         =         2.064963	       1.092732
	 R(15,17)         =         2.065900	       1.093227
	 R(15,18)         =         2.904889	       1.537201
	 R(18,19)         =         2.064943	       1.092721
	 R(18,20)         =         2.067471	       1.094059
	 R(18,21)         =         2.903044	       1.536225
	 R(21,22)         =         2.065790	       1.093169
	 R(21,23)         =         2.064965	       1.092732
	 R(21,24)         =         2.892571	       1.530683
	 R(24,25)         =         2.069718	       1.095247
	 R(24,26)         =         2.065445	       1.092986
	 B(1,9,10)        =         1.906670	     109.244143
	 B(1,9,11)        =         1.905687	     109.187826
	 B(1,9,15)        =         1.993527	     114.220681
	 B(2,1,3)         =         1.881980	     107.829488
	 B(2,1,4)         =         1.878919	     107.654135
	 B(2,1,9)         =         1.946083	     111.502341
	 B(3,1,4)         =         1.882485	     107.858430
	 B(3,1,9)         =         1.936161	     110.933840
	 B(4,1,9)         =         1.935615	     110.902594
	 B(5,12,13)       =         1.924254	     110.251645
	 B(5,12,14)       =         1.883348	     107.907893
	 B(5,12,24)       =         1.998271	     114.492493
	 B(6,5,7)         =         1.880402	     107.739076
	 B(6,5,8)         =         1.879824	     107.705960
	 B(6,5,12)        =         1.937208	     110.993853
	 B(7,5,8)         =         1.881194	     107.784462
	 B(7,5,12)        =         1.922300	     110.139695
	 B(8,5,12)        =         1.960077	     112.304149
	 B(9,15,16)       =         1.885548	     108.033925
	 B(9,15,17)       =         1.905667	     109.186675
	 B(9,15,18)       =         1.978406	     113.354341
	 B(10,9,11)       =         1.857898	     106.449695
	 B(10,9,15)       =         1.894312	     108.536068
	 B(11,9,15)       =         1.900930	     108.915291
	 B(12,24,21)      =         2.035188	     116.607662
	 B(12,24,25)      =         1.900547	     108.893321
	 B(12,24,26)      =         1.892749	     108.446513
	 B(13,12,14)      =         1.849233	     105.953224
	 B(13,12,24)      =         1.909587	     109.411264
	 B(14,12,24)      =         1.892805	     108.449719
	 B(15,18,19)      =         1.924052	     110.240054
	 B(15,18,20)      =         1.881435	     107.798265
	 B(15,18,21)      =         2.007304	     115.010053
	 B(16,15,17)      =         1.857088	     106.403303
	 B(16,15,18)      =         1.915878	     109.771707
	 B(17,15,18)      =         1.917093	     109.841344
	 B(18,21,22)      =         1.900759	     108.905454
	 B(18,21,23)      =         1.911938	     109.545964
	 B(18,21,24)      =         2.022077	     115.856461
	 B(19,18,20)      =         1.844078	     105.657915
	 B(19,18,21)      =         1.892485	     108.431421
	 B(20,18,21)      =         1.907539	     109.293910
	 B(21,24,25)      =         1.903731	     109.075727
	 B(21,24,26)      =         1.870551	     107.174701
	 B(22,21,23)      =         1.852509	     106.140952
	 B(22,21,24)      =         1.872459	     107.283976
	 B(23,21,24)      =         1.896456	     108.658952
	 B(25,24,26)      =         1.852543	     106.142874
	 D(1,9,15,16)     =         3.101790	     177.719466
	 D(1,9,15,17)     =         1.088996	      62.394875
	 D(1,9,15,18)     =        -1.054263	     -60.404842
	 D(2,1,9,10)      =        -1.041671	     -59.683369
	 D(2,1,9,11)      =        -3.067022	    -175.727418
	 D(2,1,9,15)      =         1.083323	      62.069836
	 D(3,1,9,10)      =        -3.139593	    -179.885402
	 D(3,1,9,11)      =         1.118242	      64.070550
	 D(3,1,9,15)      =        -1.014598	     -58.132196
	 D(4,1,9,10)      =         1.052005	      60.275438
	 D(4,1,9,11)      =        -0.973346	     -55.768610
	 D(4,1,9,15)      =        -3.106186	    -177.971357
	 D(5,12,24,21)    =         1.496968	      85.769966
	 D(5,12,24,25)    =        -0.665543	     -38.132829
	 D(5,12,24,26)    =        -2.674133	    -153.216528
	 D(6,5,12,13)     =        -1.019472	     -58.411453
	 D(6,5,12,14)     =         0.992611	      56.872434
	 D(6,5,12,24)     =         3.101718	     177.715341
	 D(7,5,12,13)     =        -3.100444	    -177.642353
	 D(7,5,12,14)     =        -1.088361	     -62.358466
	 D(7,5,12,24)     =         1.020746	      58.484441
	 D(8,5,12,13)     =         1.085946	      62.220118
	 D(8,5,12,14)     =         3.098029	     177.504005
	 D(8,5,12,24)     =        -1.076049	     -61.653088
	 D(9,15,18,19)    =        -2.491111	    -142.730142
	 D(9,15,18,20)    =        -0.486333	     -27.864825
	 D(9,15,18,21)    =         1.646247	      94.323033
	 D(10,9,15,16)    =        -1.049620	     -60.138785
	 D(10,9,15,17)    =        -3.062414	    -175.463376
	 D(10,9,15,18)    =         1.077512	      61.736907
	 D(11,9,15,16)    =         0.966349	      55.367712
	 D(11,9,15,17)    =        -1.046445	     -59.956879
	 D(11,9,15,18)    =         3.093481	     177.243404
	 D(12,24,21,18)   =        -1.121228	     -64.241605
	 D(12,24,21,22)   =         3.035061	     173.896178
	 D(12,24,21,23)   =         1.039207	      59.542179
	 D(13,12,24,21)   =        -0.672841	     -38.550939
	 D(13,12,24,25)   =        -2.835353	    -162.453734
	 D(13,12,24,26)   =         1.439243	      82.462567
	 D(14,12,24,21)   =        -2.682342	    -153.686865
	 D(14,12,24,25)   =         1.438332	      82.410340
	 D(14,12,24,26)   =        -0.570258	     -32.673359
	 D(15,18,21,22)   =        -2.560756	    -146.720493
	 D(15,18,21,23)   =        -0.541685	     -31.036237
	 D(15,18,21,24)   =         1.610665	      92.284331
	 D(16,15,18,19)   =        -0.381003	     -21.829844
	 D(16,15,18,20)   =         1.623775	      93.035473
	 D(16,15,18,21)   =        -2.526830	    -144.776669
	 D(17,15,18,19)   =         1.655142	      94.832671
	 D(17,15,18,20)   =        -2.623265	    -150.302012
	 D(17,15,18,21)   =        -0.490685	     -28.114154
	 D(18,21,24,25)   =         1.039652	      59.567649
	 D(18,21,24,26)   =         3.038167	     174.074140
	 D(19,18,21,22)   =         1.559821	      89.371148
	 D(19,18,21,23)   =        -2.704293	    -154.944595
	 D(19,18,21,24)   =        -0.551943	     -31.624027
	 D(20,18,21,22)   =        -0.442310	     -25.342485
	 D(20,18,21,23)   =         1.576761	      90.341771
	 D(20,18,21,24)   =        -2.554074	    -146.337660
	 D(22,21,24,25)   =        -1.087245	     -62.294568
	 D(22,21,24,26)   =         0.911270	      52.211923
	 D(23,21,24,25)   =        -3.083099	    -176.648567
	 D(23,21,24,26)   =        -1.084584	     -62.142076
	 R(1,21)          =         6.376474	       3.374285
	 R(5,15)          =         6.468348	       3.422902
	 R(5,18)          =         6.383094	       3.377788
	 R(12,15)         =         6.604056	       3.494716

	Current energy   :      -314.9752153737

	Generating empirical Hessian (Schlegel '84) for each fragment.
	Taking RFO optimization step.
	Going to follow RFO solution 1.
	Using RFO vector 1.
	Norm of target step-size    0.00051
	Projected energy change by RFO approximation:        -0.0000000005

	Back-transformation to cartesian coordinates...
	Successfully converged to displaced geometry.

	--- Internal Coordinate Step in ANG or DEG, aJ/ANG or AJ/DEG ---
	 ---------------------------------------------------------------------------
	   Coordinate                Previous        Force       Change         New 
	   ----------                --------       ------       ------       ------
	    1 R(1,2)          =      1.089922    -0.000010    -0.000002     1.089920
	    2 R(1,3)          =      1.091217    -0.000009    -0.000002     1.091215
	    3 R(1,4)          =      1.089967    -0.000007    -0.000001     1.089965
	    4 R(1,9)          =      1.524578    -0.000001    -0.000001     1.524577
	    5 R(5,6)          =      1.090358    -0.000006    -0.000001     1.090357
	    6 R(5,7)          =      1.091050    -0.000007    -0.000001     1.091049
	    7 R(5,8)          =      1.087454    -0.000006    -0.000001     1.087452
	    8 R(5,12)         =      1.526385     0.000003     0.000001     1.526386
	    9 R(9,10)         =      1.093688    -0.000011    -0.000002     1.093686
	   10 R(9,11)         =      1.092626    -0.000010    -0.000002     1.092624
	   11 R(9,15)         =      1.528592    -0.000000    -0.000002     1.528590
	   12 R(12,13)        =      1.093616    -0.000011    -0.000002     1.093614
	   13 R(12,14)        =      1.092381    -0.000004    -0.000001     1.092381
	   14 R(12,24)        =      1.533092    -0.000000    -0.000000     1.533092
	   15 R(15,16)        =      1.092732    -0.000009    -0.000002     1.092730
	   16 R(15,17)        =      1.093227    -0.000015    -0.000003     1.093224
	   17 R(15,18)        =      1.537201    -0.000001    -0.000003     1.537198
	   18 R(18,19)        =      1.092721    -0.000012    -0.000002     1.092718
	   19 R(18,20)        =      1.094059    -0.000009    -0.000002     1.094057
	   20 R(18,21)        =      1.536225    -0.000004    -0.000003     1.536222
	   21 R(21,22)        =      1.093169    -0.000009    -0.000002     1.093167
	   22 R(21,23)        =      1.092732    -0.000014    -0.000003     1.092730
	   23 R(21,24)        =      1.530683    -0.000002    -0.000001     1.530681
	   24 R(24,25)        =      1.095247    -0.000010    -0.000002     1.095246
	   25 R(24,26)        =      1.092986    -0.000007    -0.000001     1.092985
	   26 B(1,9,10)       =    109.244143    -0.000000     0.000010   109.244153
	   27 B(1,9,11)       =    109.187826    -0.000000     0.000318   109.188144
	   28 B(1,9,15)       =    114.220681     0.000000    -0.000690   114.219992
	   29 B(2,1,3)        =    107.829488     0.000000     0.000033   107.829522
	   30 B(2,1,4)        =    107.654135    -0.000000     0.000013   107.654147
	   31 B(2,1,9)        =    111.502341    -0.000000    -0.000090   111.502251
	   32 B(3,1,4)        =    107.858430    -0.000000    -0.000008   107.858422
	   33 B(3,1,9)        =    110.933840    -0.000000    -0.000133   110.933707
	   34 B(4,1,9)        =    110.902594     0.000000     0.000188   110.902782
	   35 B(5,12,13)      =    110.251645    -0.000000    -0.000118   110.251527
	   36 B(5,12,14)      =    107.907893     0.000000     0.000104   107.907997
	   37 B(5,12,24)      =    114.492493    -0.000000     0.000032   114.492526
	   38 B(6,5,7)        =    107.739076    -0.000000     0.000032   107.739108
	   39 B(6,5,8)        =    107.705960     0.000000    -0.000002   107.705959
	   40 B(6,5,12)       =    110.993853     0.000000     0.000148   110.994001
	   41 B(7,5,8)        =    107.784462     0.000000     0.000003   107.784465
	   42 B(7,5,12)       =    110.139695    -0.000000    -0.000004   110.139692
	   43 B(8,5,12)       =    112.304149    -0.000000    -0.000174   112.303976
	   44 B(9,15,16)      =    108.033925    -0.000000     0.000482   108.034406
	   45 B(9,15,17)      =    109.186675     0.000000    -0.000140   109.186535
	   46 B(9,15,18)      =    113.354341    -0.000000    -0.000771   113.353569
	   47 B(10,9,11)      =    106.449695    -0.000000     0.000113   106.449809
	   48 B(10,9,15)      =    108.536068    -0.000000     0.000077   108.536144
	   49 B(11,9,15)      =    108.915291    -0.000000     0.000223   108.915514
	   50 B(12,24,21)     =    116.607662     0.000000    -0.000266   116.607396
	   51 B(12,24,25)     =    108.893321    -0.000000     0.000035   108.893356
	   52 B(12,24,26)     =    108.446513    -0.000000     0.000148   108.446660
	   53 B(13,12,14)     =    105.953224    -0.000000    -0.000044   105.953180
	   54 B(13,12,24)     =    109.411264     0.000000    -0.000052   109.411212
	   55 B(14,12,24)     =    108.449719     0.000000     0.000079   108.449797
	   56 B(15,18,19)     =    110.240054    -0.000000     0.000018   110.240073
	   57 B(15,18,20)     =    107.798265     0.000000     0.000398   107.798662
	   58 B(15,18,21)     =    115.010053    -0.000000    -0.000828   115.009225
	   59 B(16,15,17)     =    106.403303    -0.000000     0.000117   106.403420
	   60 B(16,15,18)     =    109.771707     0.000000     0.000474   109.772181
	   61 B(17,15,18)     =    109.841344     0.000000    -0.000099   109.841245
	   62 B(18,21,22)     =    108.905454     0.000000     0.000266   108.905720
	   63 B(18,21,23)     =    109.545964    -0.000000    -0.000099   109.545866
	   64 B(18,21,24)     =    115.856461    -0.000000    -0.000486   115.855975
	   65 B(19,18,20)     =    105.657915     0.000000     0.000213   105.658128
	   66 B(19,18,21)     =    108.431421     0.000000     0.000296   108.431718
	   67 B(20,18,21)     =    109.293910    -0.000000    -0.000016   109.293895
	   68 B(21,24,25)     =    109.075727    -0.000000    -0.000071   109.075656
	   69 B(21,24,26)     =    107.174701    -0.000000     0.000124   107.174825
	   70 B(22,21,23)     =    106.140952    -0.000000     0.000087   106.141038
	   71 B(22,21,24)     =    107.283976    -0.000000     0.000323   107.284300
	   72 B(23,21,24)     =    108.658952     0.000000    -0.000036   108.658916
	   73 B(25,24,26)     =    106.142874     0.000000     0.000061   106.142935
	   74 D(1,9,15,16)    =    177.719466    -0.000000     0.002254   177.721720
	   75 D(1,9,15,17)    =     62.394875    -0.000000     0.001930    62.396804
	   76 D(1,9,15,18)    =    -60.404842    -0.000000     0.002695   -60.402147
	   77 D(2,1,9,10)     =    -59.683369    -0.000000    -0.000014   -59.683384
	   78 D(2,1,9,11)     =   -175.727418    -0.000000    -0.000333  -175.727751
	   79 D(2,1,9,15)     =     62.069836    -0.000000    -0.000382    62.069454
	   80 D(3,1,9,10)     =   -179.885402     0.000000     0.000094  -179.885308
	   81 D(3,1,9,11)     =     64.070550     0.000000    -0.000225    64.070325
	   82 D(3,1,9,15)     =    -58.132196     0.000000    -0.000274   -58.132470
	   83 D(4,1,9,10)     =     60.275438    -0.000000     0.000069    60.275506
	   84 D(4,1,9,11)     =    -55.768610     0.000000    -0.000250   -55.768861
	   85 D(4,1,9,15)     =   -177.971357     0.000000    -0.000299  -177.971656
	   86 D(5,12,24,21)   =     85.769966    -0.000000    -0.000392    85.769573
	   87 D(5,12,24,25)   =    -38.132829    -0.000000    -0.000126   -38.132956
	   88 D(5,12,24,26)   =   -153.216528    -0.000000    -0.000296  -153.216825
	   89 D(6,5,12,13)    =    -58.411453     0.000000     0.000191   -58.411262
	   90 D(6,5,12,14)    =     56.872434     0.000000     0.000134    56.872568
	   91 D(6,5,12,24)    =    177.715341     0.000000     0.000330   177.715671
	   92 D(7,5,12,13)    =   -177.642353    -0.000000     0.000060  -177.642292
	   93 D(7,5,12,14)    =    -62.358466    -0.000000     0.000003   -62.358463
	   94 D(7,5,12,24)    =     58.484441    -0.000000     0.000199    58.484640
	   95 D(8,5,12,13)    =     62.220118     0.000000     0.000174    62.220292
	   96 D(8,5,12,14)    =    177.504005    -0.000000     0.000116   177.504121
	   97 D(8,5,12,24)    =    -61.653088     0.000000     0.000313   -61.652775
	   98 D(9,15,18,19)   =   -142.730142     0.000000     0.007492  -142.722650
	   99 D(9,15,18,20)   =    -27.864825     0.000000     0.007976   -27.856849
	  100 D(9,15,18,21)   =     94.323033     0.000000     0.007698    94.330731
	  101 D(10,9,15,16)   =    -60.138785    -0.000000     0.001856   -60.136929
	  102 D(10,9,15,17)   =   -175.463376    -0.000000     0.001532  -175.461844
	  103 D(10,9,15,18)   =     61.736907    -0.000000     0.002297    61.739204
	  104 D(11,9,15,16)   =     55.367712    -0.000000     0.002151    55.369863
	  105 D(11,9,15,17)   =    -59.956879    -0.000000     0.001827   -59.955052
	  106 D(11,9,15,18)   =    177.243404    -0.000000     0.002592   177.245996
	  107 D(12,24,21,18)  =    -64.241605    -0.000000    -0.001409   -64.243014
	  108 D(12,24,21,22)  =    173.896178    -0.000000    -0.001676   173.894503
	  109 D(12,24,21,23)  =     59.542179    -0.000000    -0.001924    59.540254
	  110 D(13,12,24,21)  =    -38.550939     0.000000    -0.000218   -38.551157
	  111 D(13,12,24,25)  =   -162.453734     0.000000     0.000047  -162.453686
	  112 D(13,12,24,26)  =     82.462567     0.000000    -0.000123    82.462444
	  113 D(14,12,24,21)  =   -153.686865     0.000000    -0.000181  -153.687046
	  114 D(14,12,24,25)  =     82.410340     0.000000     0.000085    82.410425
	  115 D(14,12,24,26)  =    -32.673359     0.000000    -0.000085   -32.673445
	  116 D(15,18,21,22)  =   -146.720493     0.000000     0.003520  -146.716973
	  117 D(15,18,21,23)  =    -31.036237     0.000000     0.003718   -31.032519
	  118 D(15,18,21,24)  =     92.284331     0.000000     0.003228    92.287559
	  119 D(16,15,18,19)  =    -21.829844     0.000000     0.007928   -21.821916
	  120 D(16,15,18,20)  =     93.035473     0.000000     0.008412    93.043885
	  121 D(16,15,18,21)  =   -144.776669     0.000000     0.008134  -144.768535
	  122 D(17,15,18,19)  =     94.832671     0.000000     0.008288    94.840960
	  123 D(17,15,18,20)  =   -150.302012     0.000000     0.008772  -150.293240
	  124 D(17,15,18,21)  =    -28.114154     0.000000     0.008494   -28.105660
	  125 D(18,21,24,25)  =     59.567649    -0.000000    -0.001621    59.566028
	  126 D(18,21,24,26)  =    174.074140    -0.000000    -0.001520   174.072620
	  127 D(19,18,21,22)  =     89.371148     0.000000     0.003855    89.375003
	  128 D(19,18,21,23)  =   -154.944595     0.000000     0.004053  -154.940543
	  129 D(19,18,21,24)  =    -31.624027     0.000000     0.003563   -31.620464
	  130 D(20,18,21,22)  =    -25.342485     0.000000     0.003451   -25.339034
	  131 D(20,18,21,23)  =     90.341771     0.000000     0.003649    90.345420
	  132 D(20,18,21,24)  =   -146.337660     0.000000     0.003159  -146.334502
	  133 D(22,21,24,25)  =    -62.294568     0.000000    -0.001887   -62.296455
	  134 D(22,21,24,26)  =     52.211923    -0.000000    -0.001786    52.210137
	  135 D(23,21,24,25)  =   -176.648567    -0.000000    -0.002136  -176.650703
	  136 D(23,21,24,26)  =    -62.142076    -0.000000    -0.002035   -62.144111
	  137 R(1,21)         =      3.374285    -0.000001     0.000054     3.374339
	  138 R(5,15)         =      3.422902     0.000002     0.000023     3.422925
	  139 R(5,18)         =      3.377788    -0.000000    -0.000014     3.377774
	  140 R(12,15)        =      3.494716    -0.000001     0.000025     3.494741
	 ---------------------------------------------------------------------------

  ==> Convergence Check <==

  Measures of convergence in internal coordinates in au.
  Criteria marked as inactive (o), active & met (*), and active & unmet ( ).
  --------------------------------------------------------------------------------------------- ~
   Step     Total Energy     Delta E     MAX Force     RMS Force      MAX Disp      RMS Disp    ~
  --------------------------------------------------------------------------------------------- ~
    Convergence Criteria             o    2.00e-06 *    1.00e-06 *    6.00e-06 *    4.00e-06 *  ~
  --------------------------------------------------------------------------------------------- ~
      1    -314.97521537   -3.15e+02 o    1.82e-06 *    4.45e-07 *    1.53e-04      4.27e-05    ~
  ---------------------------------------------------------------------------------------------

	Writing optimization data to binary file.
	Structure for next step:
	Cartesian Geometry (in Angstrom)
	    C    -2.7950865998  -0.5103928182  -0.8286292278
	    H    -2.5135545494  -1.4117218454  -0.2843204995
	    H    -2.2583862346  -0.5124936807  -1.7787339014
	    H    -3.8610331351  -0.5753314974  -1.0467241517
	    C     2.3912618706   1.3602733168  -0.0004318231
	    H     2.7322960132   2.1723821988  -0.6431239874
	    H     3.1382497608   1.2196902958   0.7822769483
	    H     1.4676157937   1.6808643304   0.4756481905
	    C    -2.4794463203   0.7477385160  -0.0274968066
	    H    -3.0287539650   0.7204054876   0.9178410369
	    H    -2.8446793100   1.6215204133  -0.5724165460
	    C     2.2150566821   0.0699594931  -0.7966079628
	    H     1.4974692403   0.2207933580  -1.6079704601
	    H     3.1682443378  -0.1606377222  -1.2778080548
	    C    -0.9942575909   0.9399527270   0.2788594867
	    H    -0.8791450982   1.8844808754   0.8161438439
	    H    -0.4450473382   1.0499011361  -0.6599795559
	    C    -0.3894287968  -0.2058850343   1.1060333357
	    H     0.3372733172   0.1869209213   1.8213242264
	    H    -1.1911406343  -0.6423427549   1.7091281790
	    C     0.2877166175  -1.3130824928   0.2841051756
	    H     0.1487873185  -2.2691793045   0.7955660254
	    H    -0.2136060145  -1.4097268713  -0.6820180983
	    C     1.7892418384  -1.1409883201   0.0416385319
	    H     2.3056876708  -1.1035114962   1.0067510210
	    H     2.1417139379  -2.0476908673  -0.4566287502
			--------------------------
			 OPTKING Finished Execution 
			--------------------------

    Structure for next step:
    Molecular point group: c1
    Full point group: C1

    Geometry (in Angstrom), charge = 0, multiplicity = 1:

    C           -2.795089680084    -0.510393807972    -0.828622599859
    H           -2.513557629691    -1.411722835176    -0.284313871603
    H           -2.258389314909    -0.512494670468    -1.778727273527
    H           -3.861036215387    -0.575332487152    -1.046717523848
    C            2.391258790237     1.360272327013    -0.000425195171
    H            2.732292932831     2.172381209065    -0.643117359487
    H            3.138246680503     1.219689306001     0.782283576229
    H            1.467612713373     1.680863340603     0.475654818403
    C           -2.479449400625     0.747737526275    -0.027490178680
    H           -3.028757045328     0.720404497822     0.917847664766
    H           -2.844682390363     1.621519423501    -0.572409918073
    C            2.215053601807     0.069958503294    -0.796601334922
    H            1.497466159954     0.220792368189    -1.607963832219
    H            3.168241257473    -0.160638712004    -1.277801426923
    C           -0.994260671266     0.939951737246     0.278866114546
    H           -0.879148178558     1.884479885634     0.816150471771
    H           -0.445050418516     1.049900146324    -0.659972927977
    C           -0.389431877103    -0.205886024036     1.106039963562
    H            0.337270236905     0.186919931544     1.821330854342
    H           -1.191143714672    -0.642343744638     1.709134806861
    C            0.287713537153    -1.313083482617     0.284111803528
    H            0.148784238213    -2.269180294279     0.795572653273
    H           -0.213609094860    -1.409727861117    -0.682011470420
    C            1.789238758048    -1.140989309922     0.041645159812
    H            2.305684590487    -1.103512486001     1.006757648867
    H            2.141710857523    -2.047691857120    -0.456622122336

gradient() will perform analytic gradient computation.

*** tstart() called on wr32
*** at Wed Sep 21 05:03:50 2016


         ---------------------------------------------------------
                                   SCF
            by Justin Turney, Rob Parrish, and Andy Simmonett
                              RHF Reference
                       12 Threads,  60000 MiB Core
         ---------------------------------------------------------

  ==> Geometry <==

    Molecular point group: c1
    Full point group: C1

    Geometry (in Angstrom), charge = 0, multiplicity = 1:

       Center              X                  Y                   Z               Mass       
    ------------   -----------------  -----------------  -----------------  -----------------
           C         -2.795089680084    -0.510393807972    -0.828622599859    12.000000000000
           H         -2.513557629691    -1.411722835176    -0.284313871603     1.007825032070
           H         -2.258389314909    -0.512494670468    -1.778727273527     1.007825032070
           H         -3.861036215387    -0.575332487152    -1.046717523848     1.007825032070
           C          2.391258790237     1.360272327013    -0.000425195171    12.000000000000
           H          2.732292932831     2.172381209065    -0.643117359487     1.007825032070
           H          3.138246680503     1.219689306001     0.782283576229     1.007825032070
           H          1.467612713373     1.680863340603     0.475654818403     1.007825032070
           C         -2.479449400625     0.747737526275    -0.027490178680    12.000000000000
           H         -3.028757045328     0.720404497822     0.917847664766     1.007825032070
           H         -2.844682390363     1.621519423501    -0.572409918073     1.007825032070
           C          2.215053601807     0.069958503294    -0.796601334922    12.000000000000
           H          1.497466159954     0.220792368189    -1.607963832219     1.007825032070
           H          3.168241257473    -0.160638712004    -1.277801426923     1.007825032070
           C         -0.994260671266     0.939951737246     0.278866114546    12.000000000000
           H         -0.879148178558     1.884479885634     0.816150471771     1.007825032070
           H         -0.445050418516     1.049900146324    -0.659972927977     1.007825032070
           C         -0.389431877103    -0.205886024036     1.106039963562    12.000000000000
           H          0.337270236905     0.186919931544     1.821330854342     1.007825032070
           H         -1.191143714672    -0.642343744638     1.709134806861     1.007825032070
           C          0.287713537153    -1.313083482617     0.284111803528    12.000000000000
           H          0.148784238213    -2.269180294279     0.795572653273     1.007825032070
           H         -0.213609094860    -1.409727861117    -0.682011470420     1.007825032070
           C          1.789238758048    -1.140989309922     0.041645159812    12.000000000000
           H          2.305684590487    -1.103512486001     1.006757648867     1.007825032070
           H          2.141710857523    -2.047691857120    -0.456622122336     1.007825032070

  Running in c1 symmetry.

  Rotational constants: A =      0.10185  B =      0.03441  C =      0.03071 [cm^-1]
  Rotational constants: A =   3053.51035  B =   1031.64639  C =    920.70267 [MHz]
  Nuclear repulsion =  407.279345001719548

  Charge       = 0
  Multiplicity = 1
  Electrons    = 66
  Nalpha       = 33
  Nbeta        = 33

  ==> Algorithm <==

  SCF Algorithm Type is DF.
  DIIS enabled.
  MOM disabled.
  Fractional occupation disabled.
  Guess Type is READ.
  Energy threshold   = 1.00e-10
  Density threshold  = 1.00e-10
  Integral threshold = 0.00e+00

  ==> Primary Basis <==

  Basis Set: AUG-CC-PVTZ
    Number of shells: 274
    Number of basis function: 782
    Number of Cartesian functions: 890
    Spherical Harmonics?: true
    Max angular momentum: 3

  ==> Pre-Iterations <==

   -------------------------------------------------------
    Irrep   Nso     Nmo     Nalpha   Nbeta   Ndocc  Nsocc
   -------------------------------------------------------
     A        782     782       0       0       0       0
   -------------------------------------------------------
    Total     782     782      33      33      33       0
   -------------------------------------------------------

  ==> Integral Setup <==

  ==> DFJK: Density-Fitted J/K Matrices <==

    J tasked:                  Yes
    K tasked:                  Yes
    wK tasked:                  No
    OpenMP threads:             12
    Integrals threads:          12
    Memory (MB):             42915
    Algorithm:                Core
    Integral Cache:           NONE
    Schwarz Cutoff:          1E-12
    Fitting Condition:       1E-12

   => Auxiliary Basis Set <=

  Basis Set: 
    Number of shells: 492
    Number of basis function: 1660
    Number of Cartesian functions: 2038
    Spherical Harmonics?: true
    Max angular momentum: 4

  Minimum eigenvalue in the overlap matrix is 1.3037611388E-06.
  Using Symmetric Orthogonalization.
  SCF Guess: Reading in previously saved MOs, projecting if necessary.

  Using orbitals from previous SCF, no projection.
  Recomputing DOCC and SOCC from number of alpha and beta electrons from previous calculation.
              A 
    DOCC [    33 ]

  ==> Iterations <==

                           Total Energy        Delta E     RMS |[F,P]|

   @DF-RHF iter   0:  -313.52941786345286   -3.13529e+02   3.64211e-07 
   @DF-RHF iter   1:  -313.52928512367532    1.32740e-04   8.87027e-08 
   @DF-RHF iter   2:  -313.52928512727055   -3.59523e-09   4.17815e-08 DIIS
   @DF-RHF iter   3:  -313.52928512790868   -6.38124e-10   1.27871e-08 DIIS
   @DF-RHF iter   4:  -313.52928512802123   -1.12550e-10   1.64313e-09 DIIS
   @DF-RHF iter   5:  -313.52928512802328   -2.04636e-12   5.23489e-10 DIIS
   @DF-RHF iter   6:  -313.52928512802339   -1.13687e-13   1.44621e-10 DIIS
   @DF-RHF iter   7:  -313.52928512802328    1.13687e-13   3.47233e-11 DIIS

  ==> Post-Iterations <==

    Orbital Energies (a.u.)
    -----------------------

    Doubly Occupied:                                                      

       1A    -11.213379     2A    -11.212818     3A    -11.210953  
       4A    -11.210755     5A    -11.210332     6A    -11.209764  
       7A    -11.207136     8A    -11.204818     9A     -1.092811  
      10A     -1.056938    11A     -1.003295    12A     -0.952996  
      13A     -0.890278    14A     -0.827359    15A     -0.780926  
      16A     -0.763227    17A     -0.642964    18A     -0.618887  
      19A     -0.615890    20A     -0.595901    21A     -0.577189  
      22A     -0.563684    23A     -0.543940    24A     -0.530888  
      25A     -0.515577    26A     -0.507051    27A     -0.490892  
      28A     -0.473471    29A     -0.464443    30A     -0.459116  
      31A     -0.444530    32A     -0.433387    33A     -0.430692  

    Virtual:                                                              

      34A      0.029308    35A      0.033564    36A      0.034162  
      37A      0.035413    38A      0.047304    39A      0.048292  
      40A      0.049920    41A      0.052964    42A      0.054071  
      43A      0.068267    44A      0.069429    45A      0.073541  
      46A      0.074809    47A      0.077484    48A      0.082224  
      49A      0.090107    50A      0.095005    51A      0.100594  
      52A      0.116182    53A      0.119817    54A      0.122031  
      55A      0.126340    56A      0.130070    57A      0.133010  
      58A      0.134306    59A      0.135600    60A      0.138703  
      61A      0.140495    62A      0.144864    63A      0.150972  
      64A      0.151790    65A      0.156692    66A      0.160922  
      67A      0.166214    68A      0.170054    69A      0.172727  
      70A      0.175686    71A      0.178941    72A      0.182438  
      73A      0.187244    74A      0.191047    75A      0.197937  
      76A      0.201677    77A      0.205563    78A      0.220612  
      79A      0.226120    80A      0.230227    81A      0.236279  
      82A      0.241087    83A      0.250333    84A      0.260726  
      85A      0.270319    86A      0.280880    87A      0.283966  
      88A      0.291591    89A      0.293341    90A      0.298680  
      91A      0.301531    92A      0.309269    93A      0.314474  
      94A      0.314944    95A      0.318739    96A      0.326004  
      97A      0.327177    98A      0.330090    99A      0.332159  
     100A      0.337874   101A      0.344232   102A      0.345805  
     103A      0.348509   104A      0.352078   105A      0.356473  
     106A      0.364271   107A      0.364959   108A      0.370895  
     109A      0.372503   110A      0.375426   111A      0.376615  
     112A      0.383300   113A      0.383834   114A      0.387105  
     115A      0.392036   116A      0.392381   117A      0.398593  
     118A      0.400438   119A      0.411501   120A      0.416826  
     121A      0.420367   122A      0.420806   123A      0.426676  
     124A      0.432980   125A      0.436910   126A      0.439736  
     127A      0.442435   128A      0.445346   129A      0.453402  
     130A      0.455108   131A      0.458293   132A      0.465278  
     133A      0.468668   134A      0.469780   135A      0.471933  
     136A      0.476468   137A      0.486955   138A      0.492609  
     139A      0.492951   140A      0.498622   141A      0.500076  
     142A      0.508282   143A      0.509974   144A      0.516409  
     145A      0.520450   146A      0.523530   147A      0.526053  
     148A      0.529047   149A      0.532063   150A      0.540759  
     151A      0.541304   152A      0.544045   153A      0.544299  
     154A      0.550468   155A      0.557568   156A      0.561383  
     157A      0.566659   158A      0.570740   159A      0.572763  
     160A      0.584058   161A      0.588571   162A      0.595708  
     163A      0.596240   164A      0.604049   165A      0.604873  
     166A      0.610402   167A      0.613466   168A      0.618288  
     169A      0.624211   170A      0.629136   171A      0.631039  
     172A      0.639447   173A      0.640354   174A      0.651055  
     175A      0.651438   176A      0.656643   177A      0.661655  
     178A      0.666723   179A      0.672801   180A      0.675926  
     181A      0.678843   182A      0.682922   183A      0.685023  
     184A      0.690367   185A      0.695065   186A      0.705041  
     187A      0.709112   188A      0.714487   189A      0.715073  
     190A      0.722428   191A      0.726711   192A      0.733077  
     193A      0.738712   194A      0.742348   195A      0.763647  
     196A      0.765289   197A      0.771063   198A      0.771415  
     199A      0.773759   200A      0.779505   201A      0.789120  
     202A      0.802932   203A      0.821856   204A      0.827156  
     205A      0.839901   206A      0.845581   207A      0.848972  
     208A      0.854619   209A      0.860917   210A      0.866810  
     211A      0.868375   212A      0.876878   213A      0.879167  
     214A      0.890199   215A      0.893143   216A      0.895645  
     217A      0.902370   218A      0.906003   219A      0.916543  
     220A      0.917556   221A      0.925147   222A      0.926352  
     223A      0.935824   224A      0.939241   225A      0.943495  
     226A      0.954966   227A      0.961128   228A      0.963534  
     229A      0.969907   230A      0.973617   231A      0.981385  
     232A      0.983232   233A      0.989420   234A      0.993857  
     235A      0.998397   236A      1.005850   237A      1.009356  
     238A      1.014164   239A      1.023091   240A      1.026779  
     241A      1.034119   242A      1.037689   243A      1.040829  
     244A      1.042954   245A      1.048626   246A      1.053574  
     247A      1.057214   248A      1.058785   249A      1.066306  
     250A      1.076801   251A      1.080069   252A      1.083738  
     253A      1.089513   254A      1.099848   255A      1.104052  
     256A      1.114609   257A      1.116102   258A      1.123119  
     259A      1.125799   260A      1.132129   261A      1.138099  
     262A      1.145199   263A      1.150757   264A      1.154269  
     265A      1.161412   266A      1.162971   267A      1.169667  
     268A      1.176881   269A      1.181428   270A      1.186319  
     271A      1.189819   272A      1.196918   273A      1.204969  
[...]
	    2 R(1,3)          =      1.091217    -0.000002    -0.000000     1.091217
	    3 R(1,4)          =      1.089967    -0.000001    -0.000000     1.089966
	    4 R(1,9)          =      1.524578     0.000000     0.000000     1.524578
	    5 R(5,6)          =      1.090358    -0.000001     0.000000     1.090358
	    6 R(5,7)          =      1.091050    -0.000002     0.000000     1.091050
	    7 R(5,8)          =      1.087454    -0.000002     0.000000     1.087454
	    8 R(5,12)         =      1.526386     0.000001     0.000000     1.526386
	    9 R(9,10)         =      1.093688    -0.000001     0.000000     1.093688
	   10 R(9,11)         =      1.092626    -0.000001    -0.000000     1.092626
	   11 R(9,15)         =      1.528592     0.000000     0.000000     1.528592
	   12 R(12,13)        =      1.093616    -0.000003    -0.000000     1.093616
	   13 R(12,14)        =      1.092381    -0.000001     0.000000     1.092381
	   14 R(12,24)        =      1.533092    -0.000001    -0.000000     1.533092
	   15 R(15,16)        =      1.092731    -0.000001    -0.000000     1.092731
	   16 R(15,17)        =      1.093226    -0.000002    -0.000000     1.093226
	   17 R(15,18)        =      1.537201    -0.000000    -0.000000     1.537201
	   18 R(18,19)        =      1.092720    -0.000005    -0.000000     1.092720
	   19 R(18,20)        =      1.094058    -0.000003    -0.000000     1.094058
	   20 R(18,21)        =      1.536225    -0.000002    -0.000000     1.536224
	   21 R(21,22)        =      1.093169    -0.000003    -0.000000     1.093168
	   22 R(21,23)        =      1.092732    -0.000005    -0.000000     1.092732
	   23 R(21,24)        =      1.530682    -0.000001    -0.000000     1.530682
	   24 R(24,25)        =      1.095247    -0.000003    -0.000000     1.095247
	   25 R(24,26)        =      1.092986    -0.000002    -0.000000     1.092986
	   26 B(1,9,10)       =    109.244165    -0.000000    -0.000004   109.244161
	   27 B(1,9,11)       =    109.187865    -0.000000    -0.000014   109.187851
	   28 B(1,9,15)       =    114.220529     0.000000    -0.000004   114.220525
	   29 B(2,1,3)        =    107.829480     0.000000    -0.000003   107.829477
	   30 B(2,1,4)        =    107.654142     0.000000     0.000001   107.654143
	   31 B(2,1,9)        =    111.502295    -0.000000    -0.000005   111.502290
	   32 B(3,1,4)        =    107.858434    -0.000000     0.000004   107.858437
	   33 B(3,1,9)        =    110.933770    -0.000000    -0.000022   110.933748
	   34 B(4,1,9)        =    110.902709     0.000000     0.000025   110.902734
	   35 B(5,12,13)      =    110.251605    -0.000000    -0.000007   110.251597
	   36 B(5,12,14)      =    107.907908    -0.000000    -0.000014   107.907894
	   37 B(5,12,24)      =    114.492532     0.000000     0.000008   114.492540
	   38 B(6,5,7)        =    107.739079    -0.000000     0.000004   107.739083
	   39 B(6,5,8)        =    107.705947     0.000000     0.000008   107.705956
	   40 B(6,5,12)       =    110.993881     0.000000     0.000023   110.993904
	   41 B(7,5,8)        =    107.784478     0.000000     0.000004   107.784482
	   42 B(7,5,12)       =    110.139711     0.000000     0.000013   110.139724
	   43 B(8,5,12)       =    112.304100    -0.000000    -0.000050   112.304050
	   44 B(9,15,16)      =    108.033996    -0.000000     0.000033   108.034028
	   45 B(9,15,17)      =    109.186684     0.000000     0.000013   109.186697
	   46 B(9,15,18)      =    113.354267     0.000000     0.000005   113.354273
	   47 B(10,9,11)      =    106.449721     0.000000     0.000007   106.449728
	   48 B(10,9,15)      =    108.536091    -0.000000     0.000004   108.536095
	   49 B(11,9,15)      =    108.915345    -0.000000     0.000012   108.915356
	   50 B(12,24,21)     =    116.607690     0.000000    -0.000027   116.607662
	   51 B(12,24,25)     =    108.893309     0.000000    -0.000002   108.893307
	   52 B(12,24,26)     =    108.446547    -0.000000     0.000022   108.446568
	   53 B(13,12,14)     =    105.953215    -0.000000     0.000001   105.953215
	   54 B(13,12,24)     =    109.411251    -0.000000     0.000001   109.411253
	   55 B(14,12,24)     =    108.449726     0.000000     0.000011   108.449737
	   56 B(15,18,19)     =    110.240029     0.000000    -0.000006   110.240023
	   57 B(15,18,20)     =    107.798339     0.000000     0.000056   107.798395
	   58 B(15,18,21)     =    115.009976    -0.000000    -0.000086   115.009890
	   59 B(16,15,17)     =    106.403257     0.000000     0.000022   106.403280
	   60 B(16,15,18)     =    109.771725     0.000000     0.000014   109.771739
	   61 B(17,15,18)     =    109.841366    -0.000000    -0.000084   109.841282
	   62 B(18,21,22)     =    108.905446     0.000000     0.000037   108.905483
	   63 B(18,21,23)     =    109.545902     0.000000    -0.000031   109.545871
	   64 B(18,21,24)     =    115.856428    -0.000000    -0.000072   115.856356
	   65 B(19,18,20)     =    105.657945    -0.000000     0.000024   105.657969
	   66 B(19,18,21)     =    108.431472     0.000000     0.000032   108.431504
	   67 B(20,18,21)     =    109.293864    -0.000000    -0.000011   109.293853
	   68 B(21,24,25)     =    109.075684    -0.000000    -0.000019   109.075665
	   69 B(21,24,26)     =    107.174694     0.000000     0.000024   107.174718
	   70 B(22,21,23)     =    106.140951    -0.000000     0.000020   106.140971
	   71 B(22,21,24)     =    107.284030    -0.000000     0.000055   107.284084
	   72 B(23,21,24)     =    108.659008     0.000000     0.000000   108.659008
	   73 B(25,24,26)     =    106.142871     0.000000     0.000007   106.142878
	   74 D(1,9,15,16)    =    177.719129    -0.000000    -0.000286   177.718843
	   75 D(1,9,15,17)    =     62.394549    -0.000000    -0.000337    62.394213
	   76 D(1,9,15,18)    =    -60.405153     0.000000    -0.000242   -60.405394
	   77 D(2,1,9,10)     =    -59.683622    -0.000000     0.000151   -59.683472
	   78 D(2,1,9,11)     =   -175.727735    -0.000000     0.000153  -175.727583
	   79 D(2,1,9,15)     =     62.069525    -0.000000     0.000150    62.069675
	   80 D(3,1,9,10)     =   -179.885566    -0.000000     0.000172  -179.885393
	   81 D(3,1,9,11)     =     64.070321     0.000000     0.000174    64.070495
	   82 D(3,1,9,15)     =    -58.132418     0.000000     0.000172   -58.132246
	   83 D(4,1,9,10)     =     60.275240    -0.000000     0.000166    60.275406
	   84 D(4,1,9,11)     =    -55.768873     0.000000     0.000168   -55.768705
	   85 D(4,1,9,15)     =   -177.971612     0.000000     0.000165  -177.971447
	   86 D(5,12,24,21)   =     85.769807    -0.000000     0.000233    85.770040
	   87 D(5,12,24,25)   =    -38.132942    -0.000000     0.000282   -38.132660
	   88 D(5,12,24,26)   =   -153.216651     0.000000     0.000263  -153.216388
	   89 D(6,5,12,13)    =    -58.411505     0.000000     0.000197   -58.411309
	   90 D(6,5,12,14)    =     56.872356     0.000000     0.000186    56.872543
	   91 D(6,5,12,24)    =    177.715308     0.000000     0.000195   177.715503
	   92 D(7,5,12,13)    =   -177.642437    -0.000000     0.000169  -177.642268
	   93 D(7,5,12,14)    =    -62.358576    -0.000000     0.000159   -62.358417
	   94 D(7,5,12,24)    =     58.484376    -0.000000     0.000167    58.484544
	   95 D(8,5,12,13)    =     62.220035     0.000000     0.000189    62.220224
	   96 D(8,5,12,14)    =    177.503897     0.000000     0.000178   177.504075
	   97 D(8,5,12,24)    =    -61.653151     0.000000     0.000187   -61.652965
	   98 D(9,15,18,19)   =   -142.729521     0.000000    -0.000127  -142.729648
	   99 D(9,15,18,20)   =    -27.864140     0.000000    -0.000071   -27.864211
	  100 D(9,15,18,21)   =     94.323662    -0.000000    -0.000100    94.323562
	  101 D(10,9,15,16)   =    -60.139179    -0.000000    -0.000291   -60.139470
	  102 D(10,9,15,17)   =   -175.463759    -0.000000    -0.000341  -175.464100
	  103 D(10,9,15,18)   =     61.736539     0.000000    -0.000246    61.736293
	  104 D(11,9,15,16)   =     55.367390    -0.000000    -0.000275    55.367115
	  105 D(11,9,15,17)   =    -59.957190    -0.000000    -0.000325   -59.957515
	  106 D(11,9,15,18)   =    177.243108     0.000000    -0.000230   177.242878
	  107 D(12,24,21,18)  =    -64.241710    -0.000000    -0.000156   -64.241866
	  108 D(12,24,21,22)  =    173.896066    -0.000000    -0.000198   173.895868
	  109 D(12,24,21,23)  =     59.542012    -0.000000    -0.000249    59.541763
	  110 D(13,12,24,21)  =    -38.551063     0.000000     0.000236   -38.550827
	  111 D(13,12,24,25)  =   -162.453812     0.000000     0.000284  -162.453527
	  112 D(13,12,24,26)  =     82.462480     0.000000     0.000266    82.462745
	  113 D(14,12,24,21)  =   -153.686975     0.000000     0.000229  -153.686746
	  114 D(14,12,24,25)  =     82.410276     0.000000     0.000277    82.410553
	  115 D(14,12,24,26)  =    -32.673432     0.000000     0.000258   -32.673174
	  116 D(15,18,21,22)  =   -146.720221     0.000000     0.000174  -146.720046
	  117 D(15,18,21,23)  =    -31.036004     0.000000     0.000202   -31.035802
	  118 D(15,18,21,24)  =     92.284564     0.000000     0.000124    92.284687
	  119 D(16,15,18,19)  =    -21.829168     0.000000    -0.000071   -21.829240
	  120 D(16,15,18,20)  =     93.036212     0.000000    -0.000015    93.036197
	  121 D(16,15,18,21)  =   -144.775985    -0.000000    -0.000045  -144.776030
	  122 D(17,15,18,19)  =     94.833315    -0.000000    -0.000085    94.833230
	  123 D(17,15,18,20)  =   -150.301304     0.000000    -0.000029  -150.301333
	  124 D(17,15,18,21)  =    -28.113502    -0.000000    -0.000059   -28.113560
	  125 D(18,21,24,25)  =     59.567514    -0.000000    -0.000195    59.567319
	  126 D(18,21,24,26)  =    174.073977    -0.000000    -0.000184   174.073793
	  127 D(19,18,21,22)  =     89.371468     0.000000     0.000219    89.371687
	  128 D(19,18,21,23)  =   -154.944315     0.000000     0.000246  -154.944069
	  129 D(19,18,21,24)  =    -31.623747     0.000000     0.000168   -31.623579
	  130 D(20,18,21,22)  =    -25.342204     0.000000     0.000179   -25.342025
	  131 D(20,18,21,23)  =     90.342012     0.000000     0.000207    90.342219
	  132 D(20,18,21,24)  =   -146.337420     0.000000     0.000129  -146.337291
	  133 D(22,21,24,25)  =    -62.294710    -0.000000    -0.000238   -62.294947
	  134 D(22,21,24,26)  =     52.211753    -0.000000    -0.000226    52.211527
	  135 D(23,21,24,25)  =   -176.648764    -0.000000    -0.000288  -176.649052
	  136 D(23,21,24,26)  =    -62.142301    -0.000000    -0.000277   -62.142578
	  137 R(1,21)         =      3.374291    -0.000001    -0.000001     3.374290
	  138 R(5,15)         =      3.422903     0.000001     0.000003     3.422906
	  139 R(5,18)         =      3.377787     0.000001     0.000002     3.377789
	  140 R(12,15)        =      3.494719    -0.000002    -0.000001     3.494717
	 ---------------------------------------------------------------------------

  ==> Convergence Check <==

  Measures of convergence in internal coordinates in au.
  Criteria marked as inactive (o), active & met (*), and active & unmet ( ).
  ---------------------------------------------------------------------------------------------
   Step     Total Energy     Delta E     MAX Force     RMS Force      MAX Disp      RMS Disp   
  ---------------------------------------------------------------------------------------------
    Convergence Criteria             o    2.00e-06 *    1.00e-06 *    6.00e-06 *    4.00e-06 *
  ---------------------------------------------------------------------------------------------
     33    -314.97521537    2.99e-09 o    6.40e-07 *    1.23e-07 *    5.96e-06 *    2.54e-06 *  ~
  ---------------------------------------------------------------------------------------------


  **** Optimization is complete! (in 33 steps) ****

  ==> Optimization Summary <==

  Measures of convergence in internal coordinates in au.
  --------------------------------------------------------------------------------------------------------------- ~
   Step         Total Energy             Delta E       MAX Force       RMS Force        MAX Disp        RMS Disp  ~
  --------------------------------------------------------------------------------------------------------------- ~
      1    -314.975215373721   -314.975215373721      0.00000182      0.00000044      0.00015311      0.00004272  ~
      2    -314.975215365563      0.000000008158      0.00000348      0.00000087      0.00013523      0.00004530  ~
      3    -314.975215372778     -0.000000007215      0.00000110      0.00000024      0.00008114      0.00002182  ~
      4    -314.975215373883     -0.000000001105      0.00000239      0.00000058      0.00003834      0.00001159  ~
      5    -314.975215371910      0.000000001974      0.00000073      0.00000014      0.00003771      0.00000989  ~
      6    -314.975215370297      0.000000001613      0.00000071      0.00000014      0.00002781      0.00001001  ~
      7    -314.975215368710      0.000000001586      0.00000068      0.00000016      0.00002930      0.00001212  ~
      8    -314.975215370837     -0.000000002127      0.00000084      0.00000017      0.00002703      0.00000820  ~
      9    -314.975215371380     -0.000000000543      0.00000189      0.00000038      0.00002654      0.00000826  ~
     10    -314.975215371477     -0.000000000097      0.00000203      0.00000041      0.00091058      0.00025748  ~
     11    -314.975215345811      0.000000025666      0.00002840      0.00000512      0.00087400      0.00024684  ~
     12    -314.975215367301     -0.000000021490      0.00000030      0.00000007      0.00000847      0.00000235  ~
     13    -314.975215371730     -0.000000004429      0.00000131      0.00000027      0.00002048      0.00000785  ~
     14    -314.975215369732      0.000000001998      0.00000083      0.00000019      0.00002366      0.00000905  ~
     15    -314.975215370625     -0.000000000893      0.00000023      0.00000007      0.00001121      0.00000480  ~
     16    -314.975215373519     -0.000000002894      0.00000051      0.00000012      0.00001504      0.00000586  ~
     17    -314.975215370187      0.000000003331      0.00000070      0.00000014      0.00001568      0.00000623  ~
     18    -314.975215373570     -0.000000003382      0.00000078      0.00000018      0.00001602      0.00000546  ~
     19    -314.975215372060      0.000000001510      0.00000037      0.00000008      0.00002055      0.00000610  ~
     20    -314.975215373537     -0.000000001477      0.00000167      0.00000032      0.00002143      0.00000779  ~
     21    -314.975215369721      0.000000003816      0.00000141      0.00000033      0.00005674      0.00002311  ~
     22    -314.975215370006     -0.000000000286      0.00000298      0.00000063      0.00004689      0.00001829  ~
     23    -314.975215367070      0.000000002936      0.00000079      0.00000018      0.00001765      0.00000525  ~
     24    -314.975215368637     -0.000000001567      0.00000192      0.00000037      0.00001344      0.00000476  ~
     25    -314.975215369801     -0.000000001164      0.00000130      0.00000028      0.00000931      0.00000374  ~
     26    -314.975215372800     -0.000000002998      0.00000115      0.00000028      0.00001944      0.00000708  ~
     27    -314.975215369267      0.000000003533      0.00000242      0.00000053      0.00001700      0.00000644  ~
     28    -314.975215368811      0.000000000457      0.00000029      0.00000008      0.00001166      0.00000460  ~
     29    -314.975215372002     -0.000000003191      0.00000064      0.00000013      0.00000998      0.00000373  ~
     30    -314.975215374004     -0.000000002002      0.00000070      0.00000012      0.00000776      0.00000246  ~
     31    -314.975215370420      0.000000003583      0.00000085      0.00000020      0.00000686      0.00000273  ~
     32    -314.975215371883     -0.000000001462      0.00000164      0.00000037      0.00001493      0.00000403  ~
     33    -314.975215368895      0.000000002987      0.00000064      0.00000012      0.00000596      0.00000254  ~
  --------------------------------------------------------------------------------------------------------------- ~

	Writing optimization data to binary file.
	Final energy is   -314.9752153688955
	Final (previous) structure:
	Cartesian Geometry (in Angstrom)
	    C    -2.7949544312  -0.5103987598  -0.8287535957
	    H    -2.5134153558  -1.4117442491  -0.2844723639
	    H    -2.2581947541  -0.5124285473  -1.7788267454
	    H    -3.8608858671  -0.5753738160  -1.0469173323
	    C     2.3912253001   1.3602638565  -0.0005702683
	    H     2.7322269757   2.1723273225  -0.6433387032
	    H     3.1382597607   1.2197296046   0.7821043530
	    H     1.4676086583   1.6808940601   0.4755431466
	    C    -2.4794208321   0.7477071853  -0.0275380002
	    H    -3.0287901760   0.7203040297   0.9177638471
	    H    -2.8446619308   1.6214979306  -0.5724411394
	    C     2.2149668640   0.0698982736  -0.7966499597
	    H     1.4973289898   0.2206796580  -1.6079799820
	    H     3.1681256052  -0.1607330128  -1.2778926267
	    C    -0.9942604992   0.9399865249   0.2789264258
	    H    -0.8792365047   1.8845190210   0.8162244132
	    H    -0.4449851261   1.0499711819  -0.6598726815
	    C    -0.3894245106  -0.2058171133   1.1061471423
	    H     0.3372990558   0.1870192025   1.8214022157
	    H    -1.1911308726  -0.6422265300   1.7092865619
	    C     0.2876918230  -1.3130783779   0.2842762169
	    H     0.1488062922  -2.2691305511   0.7958351278
	    H    -0.2136898959  -1.4098210894  -0.6818089813
	    C     1.7892022725  -1.1409937806   0.0417034539
	    H     2.3057102548  -1.1034536298   1.0067820462
	    H     2.1416447581  -2.0477294671  -0.4565269261
	Saving final (previous) structure.
			--------------------------
			 OPTKING Finished Execution 
			--------------------------

    Final optimized geometry and variables:
    Molecular point group: c1
    Full point group: C1

    Geometry (in Angstrom), charge = 0, multiplicity = 1:

    C           -2.794954431173    -0.510398759780    -0.828753595697
    H           -2.513415355776    -1.411744249087    -0.284472363893
    H           -2.258194754062    -0.512428547335    -1.778826745387
    H           -3.860885867089    -0.575373816021    -1.046917332281
    C            2.391225300056     1.360263856479    -0.000570268291
    H            2.732226975663     2.172327322483    -0.643338703155
    H            3.138259760694     1.219729604646     0.782104352983
    H            1.467608658259     1.680894060137     0.475543146600
    C           -2.479420832116     0.747707185281    -0.027538000168
    H           -3.028790176034     0.720304029715     0.917763847055
    H           -2.844661930834     1.621497930588    -0.572441139444
    C            2.214966863980     0.069898273613    -0.796649959722
    H            1.497328989847     0.220679657999    -1.607979981977
    H            3.168125605160    -0.160733012822    -1.277892626725
    C           -0.994260499216     0.939986524877     0.278926425765
    H           -0.879236504690     1.884519020991     0.816224413202
    H           -0.444985126127     1.049971181869    -0.659872681476
    C           -0.389424510621    -0.205817113256     1.106147142277
    H            0.337299055801     0.187019202499     1.821402215659
    H           -1.191130872574    -0.642226530026     1.709286561936
    C            0.287691823009    -1.313078377867     0.284276216924
    H            0.148806292151    -2.269130551072     0.795835127769
    H           -0.213689895924    -1.409821089358    -0.681808981345
    C            1.789202272478    -1.140993780565     0.041703453892
    H            2.305710254767    -1.103453629800     1.006782046207
    H            2.141644758095    -2.047729467071    -0.456526926124

	Cleaning optimization helper files.

*** Psi4 exiting successfully. Buy a developer a beer!
