    -----------------------------------------------------------------------
          Psi4: An Open-Source Ab Initio Electronic Structure Package
                              Psi4 1.0.0 Driver

                          Git: Rev {master} 6a9a71b dirty

    J. M. Turney, A. C. Simmonett, R. M. Parrish, E. G. Hohenstein,
    F. A. Evangelista, J. T. Fermann, B. J. Mintz, L. A. Burns, J. J. Wilke,
    M. L. Abrams, N. J. Russ, M. L. Leininger, C. L. Janssen, E. T. Seidl,
    W. D. Allen, H. F. Schaefer, R. A. King, E. F. Valeev, C. D. Sherrill,
    and T. D. Crawford, WIREs Comput. Mol. Sci. 2, 556-565 (2012)
    (doi: 10.1002/wcms.93)

                         Additional Contributions by
    A. E. DePrince, U. Bozkaya, A. Yu. Sokolov, D. G. A. Smith, R. Di Remigio,
    R. M. Richard, J. F. Gonthier, H. R. McAlexander, M. Saitow, and
    B. P. Pritchard
    -----------------------------------------------------------------------


    Psi4 started on: Wed Sep 21 04:57:33 2016

    Process ID:  37515
    PSI4DATADIR: /usr/local/hpc5/psi4conda/share/psi4
    Memory level set to 256.000 MB

  ==> Input File <==

--------------------------------------------------------------------------
memory 60 Gb

molecule molecule_84_psi {
0 1
C           -3.221259285750     0.016540257186    -0.500283049106
H           -2.908969681462     1.060494605063    -0.475693206058
H           -3.837315603712    -0.166940060010     0.381919650663
H           -3.848150820580    -0.120180826212    -1.381091481466
C            3.466345787929    -0.576002855800    -0.570178367400
H            3.741672399598    -1.605087901275    -0.799695392554
H            4.030420844980    -0.266398118100     0.310787253493
H            3.783244362645     0.051760178677    -1.403892465022
C           -2.022027205742    -0.924332173516    -0.526471897198
H           -1.396103499446    -0.695445941028    -1.391852019333
H           -2.369515722976    -1.949934672610    -0.669893561365
C            1.968369133292    -0.434068845600    -0.326339473245
H            1.415806171053    -0.750084291506    -1.216015414930
H            1.671722155332    -1.104215084925     0.481637178466
C           -1.185300713846    -0.873941132457     0.751870408684
H           -0.341773019510    -1.556537319692     0.647441031203
H           -1.792136863521    -1.259575850319     1.577026844429
C           -0.699311478229     0.526749143632     1.141748671190
H           -0.088686188233     0.451048965542     2.047103257669
H           -1.573137151470     1.119027220794     1.422565716078
C            0.089258347162     1.296340085782     0.075617338245
H           -0.346074140800     1.120439837561    -0.911852773751
H           -0.029695803070     2.365630365766     0.267773018389
C            1.587722147015     1.000594853951     0.024354047220
H            2.045874083774     1.667347339887    -0.713117980637
H            2.035748015615     1.259069793688     0.989589794688
}

set globals {
  reference rhf
  g_convergence gau_verytight
  basis aug-cc-pvtz
  freeze_core true
  scf_type df
  mp_type df
}
optimize('mp2')
--------------------------------------------------------------------------
/usr/local/hpc5/psi4conda/lib/python2.7/site-packages/v2rdm_casscf/v2rdm_casscf.so loaded.

  Memory set to  60.000 GiB by Python script.
gradient() will perform analytic gradient computation.

*** tstart() called on wr34
*** at Wed Sep 21 04:57:34 2016


         ---------------------------------------------------------
                                   SCF
            by Justin Turney, Rob Parrish, and Andy Simmonett
                              RHF Reference
                       12 Threads,  60000 MiB Core
         ---------------------------------------------------------

  ==> Geometry <==

    Molecular point group: c1
    Full point group: C1

    Geometry (in Angstrom), charge = 0, multiplicity = 1:

       Center              X                  Y                   Z               Mass       
    ------------   -----------------  -----------------  -----------------  -----------------
           C         -3.221259285750     0.016540257186    -0.500283049106    12.000000000000
           H         -2.908969681462     1.060494605063    -0.475693206058     1.007825032070
           H         -3.837315603712    -0.166940060010     0.381919650663     1.007825032070
           H         -3.848150820580    -0.120180826212    -1.381091481466     1.007825032070
           C          3.466345787929    -0.576002855800    -0.570178367400    12.000000000000
           H          3.741672399598    -1.605087901275    -0.799695392554     1.007825032070
           H          4.030420844980    -0.266398118100     0.310787253493     1.007825032070
           H          3.783244362645     0.051760178677    -1.403892465022     1.007825032070
           C         -2.022027205742    -0.924332173516    -0.526471897198    12.000000000000
           H         -1.396103499446    -0.695445941028    -1.391852019333     1.007825032070
           H         -2.369515722976    -1.949934672610    -0.669893561365     1.007825032070
           C          1.968369133292    -0.434068845600    -0.326339473245    12.000000000000
           H          1.415806171053    -0.750084291506    -1.216015414930     1.007825032070
           H          1.671722155332    -1.104215084925     0.481637178466     1.007825032070
           C         -1.185300713846    -0.873941132457     0.751870408684    12.000000000000
           H         -0.341773019510    -1.556537319692     0.647441031203     1.007825032070
           H         -1.792136863521    -1.259575850319     1.577026844429     1.007825032070
           C         -0.699311478229     0.526749143632     1.141748671190    12.000000000000
           H         -0.088686188233     0.451048965542     2.047103257669     1.007825032070
           H         -1.573137151470     1.119027220794     1.422565716078     1.007825032070
           C          0.089258347162     1.296340085782     0.075617338245    12.000000000000
           H         -0.346074140800     1.120439837561    -0.911852773751     1.007825032070
           H         -0.029695803070     2.365630365766     0.267773018389     1.007825032070
           C          1.587722147015     1.000594853951     0.024354047220    12.000000000000
           H          2.045874083774     1.667347339887    -0.713117980637     1.007825032070
           H          2.035748015615     1.259069793688     0.989589794688     1.007825032070

  Running in c1 symmetry.

  Rotational constants: A =      0.11951  B =      0.02924  C =      0.02708 [cm^-1]
  Rotational constants: A =   3582.84681  B =    876.44455  C =    811.87387 [MHz]
  Nuclear repulsion =  401.490843451368619

  Charge       = 0
  Multiplicity = 1
  Electrons    = 66
  Nalpha       = 33
  Nbeta        = 33

  ==> Algorithm <==

  SCF Algorithm Type is DF.
  DIIS enabled.
  MOM disabled.
  Fractional occupation disabled.
  Guess Type is SAD.
  Energy threshold   = 1.00e-10
  Density threshold  = 1.00e-10
  Integral threshold = 0.00e+00

  ==> Primary Basis <==

  Basis Set: AUG-CC-PVTZ
    Number of shells: 274
    Number of basis function: 782
    Number of Cartesian functions: 890
    Spherical Harmonics?: true
    Max angular momentum: 3

  ==> Pre-Iterations <==

   -------------------------------------------------------
    Irrep   Nso     Nmo     Nalpha   Nbeta   Ndocc  Nsocc
   -------------------------------------------------------
     A        782     782       0       0       0       0
   -------------------------------------------------------
    Total     782     782      33      33      33       0
   -------------------------------------------------------

  ==> Integral Setup <==

  ==> DFJK: Density-Fitted J/K Matrices <==

    J tasked:                  Yes
    K tasked:                  Yes
    wK tasked:                  No
    OpenMP threads:             12
    Integrals threads:          12
    Memory (MB):             42915
    Algorithm:                Core
    Integral Cache:           NONE
    Schwarz Cutoff:          1E-12
    Fitting Condition:       1E-12

   => Auxiliary Basis Set <=

  Basis Set: 
    Number of shells: 492
    Number of basis function: 1660
    Number of Cartesian functions: 2038
    Spherical Harmonics?: true
    Max angular momentum: 4

  Minimum eigenvalue in the overlap matrix is 2.0473333613E-06.
  Using Symmetric Orthogonalization.
  SCF Guess: Superposition of Atomic Densities via on-the-fly atomic UHF.

  ==> Iterations <==

                           Total Energy        Delta E     RMS |[F,P]|

   @DF-RHF iter   0:  -316.93595241489516   -3.16936e+02   6.99968e-03 
   @DF-RHF iter   1:  -313.29770067163554    3.63825e+00   6.92844e-04 
   @DF-RHF iter   2:  -313.50585526348323   -2.08155e-01   2.44357e-04 DIIS
   @DF-RHF iter   3:  -313.53115988264710   -2.53046e-02   1.00246e-04 DIIS
   @DF-RHF iter   4:  -313.53603501116618   -4.87513e-03   1.64308e-05 DIIS
   @DF-RHF iter   5:  -313.53621004465003   -1.75033e-04   4.97939e-06 DIIS
   @DF-RHF iter   6:  -313.53622400258860   -1.39579e-05   1.32607e-06 DIIS
   @DF-RHF iter   7:  -313.53622505921942   -1.05663e-06   2.86650e-07 DIIS
   @DF-RHF iter   8:  -313.53622511618721   -5.69678e-08   8.86049e-08 DIIS
   @DF-RHF iter   9:  -313.53622512115396   -4.96675e-09   2.49923e-08 DIIS
   @DF-RHF iter  10:  -313.53622512160609   -4.52133e-10   6.80270e-09 DIIS
   @DF-RHF iter  11:  -313.53622512163633   -3.02407e-11   1.58145e-09 DIIS
   @DF-RHF iter  12:  -313.53622512163759   -1.25056e-12   3.86878e-10 DIIS
   @DF-RHF iter  13:  -313.53622512163895   -1.36424e-12   1.33267e-10 DIIS
   @DF-RHF iter  14:  -313.53622512163827    6.82121e-13   3.19144e-11 DIIS

  ==> Post-Iterations <==

    Orbital Energies (a.u.)
    -----------------------

    Doubly Occupied:                                                      

       1A    -11.212251     2A    -11.212025     3A    -11.210825  
       4A    -11.210453     5A    -11.209812     6A    -11.209200  
       7A    -11.207162     8A    -11.206623     9A     -1.093671  
      10A     -1.058438    11A     -1.006206    12A     -0.948681  
      13A     -0.888008    14A     -0.835060    15A     -0.787158  
      16A     -0.746973    17A     -0.646727    18A     -0.633306  
      19A     -0.617539    20A     -0.583331    21A     -0.578670  
      22A     -0.562762    23A     -0.539817    24A     -0.529671  
      25A     -0.521150    26A     -0.500071    27A     -0.493920  
      28A     -0.478198    29A     -0.463748    30A     -0.460798  
      31A     -0.443465    32A     -0.435554    33A     -0.431748  

    Virtual:                                                              

      34A      0.029463    35A      0.032607    36A      0.033920  
      37A      0.035019    38A      0.046844    39A      0.048372  
      40A      0.049601    41A      0.053796    42A      0.054452  
      43A      0.067076    44A      0.068662    45A      0.072393  
      46A      0.074558    47A      0.076509    48A      0.085120  
      49A      0.092076    50A      0.095447    51A      0.096905  
      52A      0.113057    53A      0.115988    54A      0.119610  
      55A      0.124741    56A      0.127156    57A      0.131708  
      58A      0.135288    59A      0.138903    60A      0.140218  
      61A      0.146565    62A      0.148594    63A      0.150808  
      64A      0.153211    65A      0.157133    66A      0.160528  
      67A      0.166444    68A      0.170187    69A      0.170584  
      70A      0.173513    71A      0.179753    72A      0.182261  
      73A      0.187469    74A      0.189923    75A      0.195308  
      76A      0.203268    77A      0.212113    78A      0.220242  
      79A      0.224973    80A      0.229470    81A      0.250144  
      82A      0.251325    83A      0.257498    84A      0.259382  
      85A      0.266040    86A      0.276418    87A      0.278388  
      88A      0.278780    89A      0.283469    90A      0.290353  
      91A      0.294857    92A      0.300835    93A      0.309555  
      94A      0.313611    95A      0.319179    96A      0.326551  
      97A      0.328860    98A      0.330691    99A      0.336668  
     100A      0.338843   101A      0.342765   102A      0.344973  
     103A      0.349530   104A      0.352486   105A      0.355174  
     106A      0.357651   107A      0.362662   108A      0.365652  
     109A      0.370099   110A      0.376119   111A      0.377546  
     112A      0.382841   113A      0.382965   114A      0.390963  
     115A      0.392676   116A      0.395058   117A      0.398792  
     118A      0.405103   119A      0.411986   120A      0.415195  
     121A      0.419860   122A      0.424501   123A      0.427055  
     124A      0.431043   125A      0.434557   126A      0.437953  
     127A      0.439499   128A      0.446773   129A      0.448537  
     130A      0.457219   131A      0.460831   132A      0.465467  
     133A      0.467467   134A      0.469923   135A      0.471913  
     136A      0.476106   137A      0.477802   138A      0.479408  
     139A      0.485555   140A      0.488427   141A      0.494846  
     142A      0.500785   143A      0.503758   144A      0.506663  
     145A      0.508262   146A      0.512556   147A      0.513949  
     148A      0.520271   149A      0.525217   150A      0.529569  
     151A      0.537557   152A      0.540133   153A      0.547601  
     154A      0.549341   155A      0.551071   156A      0.560583  
     157A      0.562160   158A      0.567358   159A      0.572429  
     160A      0.575099   161A      0.580648   162A      0.582712  
     163A      0.590490   164A      0.594240   165A      0.597267  
     166A      0.603426   167A      0.605805   168A      0.607337  
     169A      0.615999   170A      0.619094   171A      0.627778  
     172A      0.629555   173A      0.635066   174A      0.639210  
     175A      0.641453   176A      0.652279   177A      0.654157  
     178A      0.658580   179A      0.663678   180A      0.667605  
     181A      0.670437   182A      0.678650   183A      0.683662  
     184A      0.692969   185A      0.696337   186A      0.704726  
     187A      0.707484   188A      0.717488   189A      0.723348  
     190A      0.729266   191A      0.730775   192A      0.739459  
     193A      0.740915   194A      0.747859   195A      0.753448  
     196A      0.758970   197A      0.773559   198A      0.777445  
     199A      0.787669   200A      0.789362   201A      0.802743  
     202A      0.806325   203A      0.818263   204A      0.831707  
     205A      0.838378   206A      0.845532   207A      0.850300  
     208A      0.851753   209A      0.858739   210A      0.866561  
     211A      0.870556   212A      0.874814   213A      0.877215  
     214A      0.881927   215A      0.889480   216A      0.892360  
     217A      0.895327   218A      0.902799   219A      0.906600  
     220A      0.915013   221A      0.918149   222A      0.927388  
     223A      0.930521   224A      0.935782   225A      0.935953  
     226A      0.945112   227A      0.949568   228A      0.950946  
     229A      0.959143   230A      0.965777   231A      0.969556  
     232A      0.975360   233A      0.980747   234A      0.983033  
     235A      0.988722   236A      0.995788   237A      0.999579  
     238A      1.003918   239A      1.008843   240A      1.014124  
     241A      1.018657   242A      1.024028   243A      1.026279  
     244A      1.031335   245A      1.036841   246A      1.039771  
     247A      1.053317   248A      1.058596   249A      1.064713  
     250A      1.067351   251A      1.073612   252A      1.079458  
     253A      1.083254   254A      1.090251   255A      1.097286  
     256A      1.098885   257A      1.101092   258A      1.105652  
     259A      1.115118   260A      1.123603   261A      1.132012  
     262A      1.132637   263A      1.136561   264A      1.140867  
     265A      1.144221   266A      1.150009   267A      1.155974  
     268A      1.156792   269A      1.160643   270A      1.176896  
     271A      1.178575   272A      1.182544   273A      1.189289  
     274A      1.195283   275A      1.198925   276A      1.204343  
     277A      1.210103   278A      1.213556   279A      1.224566  
     280A      1.233107   281A      1.240050   282A      1.243701  
     283A      1.246083   284A      1.253538   285A      1.258641  
     286A      1.261823   287A      1.264884   288A      1.272133  
     289A      1.277345   290A      1.286637   291A      1.292142  
     292A      1.299608   293A      1.305461   294A      1.307591  
     295A      1.310898   296A      1.316919   297A      1.320633  
     298A      1.326648   299A      1.335911   300A      1.344278  
     301A      1.348802   302A      1.349399   303A      1.357943  
     304A      1.364171   305A      1.376951   306A      1.380202  
     307A      1.387268   308A      1.392029   309A      1.397988  
     310A      1.402890   311A      1.413599   312A      1.421067  
     313A      1.425387   314A      1.434855   315A      1.446591  
     316A      1.449839   317A      1.459267   318A      1.461656  
     319A      1.472213   320A      1.484815   321A      1.492681  
     322A      1.497859   323A      1.504551   324A      1.514810  
     325A      1.526086   326A      1.531644   327A      1.535885  
     328A      1.538047   329A      1.548170   330A      1.552965  
     331A      1.567565   332A      1.579200   333A      1.584447  
     334A      1.590485   335A      1.599979   336A      1.601786  
     337A      1.610254   338A      1.618096   339A      1.624440  
     340A      1.628932   341A      1.634189   342A      1.638702  
     343A      1.646523   344A      1.654477   345A      1.658498  
     346A      1.671459   347A      1.676109   348A      1.685993  
     349A      1.690280   350A      1.694339   351A      1.698286  
     352A      1.702492   353A      1.709765   354A      1.716014  
     355A      1.721902   356A      1.726789   357A      1.737986  
     358A      1.742983   359A      1.745367   360A      1.748291  
     361A      1.754936   362A      1.761127   363A      1.765306  
     364A      1.780191   365A      1.785864   366A      1.788137  
     367A      1.797577   368A      1.803567   369A      1.809984  
     370A      1.815875   371A      1.822791   372A      1.827058  
     373A      1.834634   374A      1.838897   375A      1.846698  
     376A      1.851174   377A      1.859417   378A      1.864508  
     379A      1.867262   380A      1.873354   381A      1.874860  
     382A      1.880920   383A      1.883673   384A      1.889861  
     385A      1.903159   386A      1.908000   387A      1.911134  
     388A      1.926910   389A      1.930181   390A      1.944771  
     391A      1.948333   392A      1.958244   393A      1.966580  
     394A      1.972072   395A      1.980634   396A      1.986994  
     397A      1.992604   398A      2.006435   399A      2.013762  
     400A      2.016104   401A      2.020585   402A      2.024445  
     403A      2.030893   404A      2.038861   405A      2.045137  
     406A      2.053796   407A      2.061705   408A      2.066733  
     409A      2.071669   410A      2.078308   411A      2.089783  
     412A      2.098997   413A      2.103269   414A      2.108706  
     415A      2.114668   416A      2.123212   417A      2.132666  
     418A      2.136849   419A      2.150522   420A      2.153029  
     421A      2.162077   422A      2.170664   423A      2.174608  
     424A      2.183011   425A      2.192920   426A      2.200894  
     427A      2.207134   428A      2.212408   429A      2.235643  
     430A      2.246601   431A      2.249314   432A      2.262078  
     433A      2.267191   434A      2.269630   435A      2.284537  
     436A      2.294513   437A      2.295982   438A      2.302382  
     439A      2.308964   440A      2.310923   441A      2.324710  
     442A      2.330865   443A      2.343869   444A      2.364481  
     445A      2.368114   446A      2.375770   447A      2.386855  
     448A      2.387502   449A      2.400351   450A      2.407204  
     451A      2.419354   452A      2.429006   453A      2.435969  
     454A      2.447063   455A      2.455547   456A      2.467530  
     457A      2.482221   458A      2.487287   459A      2.495772  
     460A      2.505732   461A      2.526009   462A      2.538240  
     463A      2.546536   464A      2.550140   465A      2.569247  
     466A      2.574994   467A      2.579026   468A      2.589580  
     469A      2.611365   470A      2.614038   471A      2.643072  
     472A      2.645357   473A      2.652750   474A      2.671424  
     475A      2.678131   476A      2.699978   477A      2.716681  
     478A      2.724800   479A      2.739656   480A      2.776336  
     481A      2.786891   482A      2.808390   483A      2.818841  
     484A      2.871673   485A      2.903709   486A      2.938794  
     487A      3.015401   488A      3.049609   489A      3.069203  
     490A      3.125765   491A      3.184024   492A      3.267224  
     493A      3.301481   494A      3.357342   495A      3.370867  
     496A      3.405992   497A      3.408569   498A      3.459533  
     499A      3.464590   500A      3.485604   501A      3.492039  
     502A      3.508274   503A      3.509468   504A      3.528210  
     505A      3.536876   506A      3.549383   507A      3.568435  
     508A      3.581043   509A      3.598546   510A      3.607870  
     511A      3.620367   512A      3.630959   513A      3.643584  
     514A      3.655503   515A      3.657569   516A      3.661952  
     517A      3.678177   518A      3.679326   519A      3.699857  
     520A      3.703170   521A      3.705158   522A      3.716412  
     523A      3.732179   524A      3.739999   525A      3.747971  
     526A      3.752730   527A      3.766096   528A      3.773442  
     529A      3.788894   530A      3.795918   531A      3.798897  
     532A      3.812339   533A      3.815864   534A      3.823596  
     535A      3.837962   536A      3.846569   537A      3.853180  
     538A      3.859457   539A      3.871888   540A      3.874516  
     541A      3.894068   542A      3.900050   543A      3.912402  
     544A      3.913599   545A      3.917395   546A      3.924003  
     547A      3.933673   548A      3.948076   549A      3.952015  
     550A      3.956240   551A      3.969970   552A      3.979498  
     553A      3.990168   554A      3.995633   555A      3.998932  
     556A      4.004980   557A      4.011866   558A      4.018134  
     559A      4.023510   560A      4.033046   561A      4.036968  
     562A      4.044775   563A      4.053002   564A      4.057650  
     565A      4.073741   566A      4.081356   567A      4.084409  
     568A      4.091521   569A      4.099564   570A      4.109314  
     571A      4.116034   572A      4.127281   573A      4.138978  
     574A      4.146673   575A      4.158864   576A      4.161170  
     577A      4.175206   578A      4.181189   579A      4.187857  
     580A      4.197696   581A      4.205734   582A      4.211848  
     583A      4.217836   584A      4.228349   585A      4.234761  
     586A      4.246303   587A      4.257255   588A      4.263407  
     589A      4.272961   590A      4.281276   591A      4.289239  
     592A      4.293898   593A      4.310359   594A      4.316553  
     595A      4.321311   596A      4.335625   597A      4.346373  
     598A      4.360872   599A      4.367356   600A      4.375554  
     601A      4.389282   602A      4.402421   603A      4.405641  
     604A      4.419725   605A      4.430863   606A      4.448522  
     607A      4.451808   608A      4.453920   609A      4.481065  
     610A      4.484446   611A      4.504401   612A      4.517276  
     613A      4.524602   614A      4.537386   615A      4.557272  
     616A      4.570907   617A      4.587049   618A      4.597154  
     619A      4.615213   620A      4.630819   621A      4.643475  
     622A      4.655306   623A      4.660367   624A      4.672543  
     625A      4.683153   626A      4.701232   627A      4.702049  
     628A      4.708881   629A      4.718303   630A      4.727860  
     631A      4.752099   632A      4.763815   633A      4.769917  
     634A      4.775622   635A      4.788082   636A      4.803848  
     637A      4.818269   638A      4.828001   639A      4.834042  
     640A      4.844512   641A      4.853393   642A      4.861392  
     643A      4.867430   644A      4.879979   645A      4.888212  
     646A      4.893051   647A      4.910328   648A      4.923164  
     649A      4.934583   650A      4.940729   651A      4.943277  
     652A      4.966410   653A      4.975721   654A      4.985364  
     655A      5.003475   656A      5.017215   657A      5.024587  
     658A      5.045942   659A      5.050879   660A      5.070162  
     661A      5.088092   662A      5.101929   663A      5.105209  
     664A      5.119155   665A      5.128927   666A      5.153400  
     667A      5.157113   668A      5.167225   669A      5.181237  
     670A      5.196949   671A      5.208913   672A      5.217354  
     673A      5.222287   674A      5.241295   675A      5.253360  
     676A      5.256667   677A      5.269498   678A      5.276607  
     679A      5.286084   680A      5.301694   681A      5.314262  
     682A      5.325214   683A      5.335438   684A      5.354732  
     685A      5.366472   686A      5.375530   687A      5.384197  
     688A      5.391614   689A      5.397850   690A      5.424205  
     691A      5.430084   692A      5.439822   693A      5.451156  
     694A      5.455869   695A      5.463744   696A      5.467751  
     697A      5.476809   698A      5.481515   699A      5.500988  
     700A      5.509067   701A      5.527147   702A      5.542502  
     703A      5.560525   704A      5.566847   705A      5.585853  
     706A      5.593854   707A      5.604282   708A      5.617392  
     709A      5.635910   710A      5.648300   711A      5.660249  
     712A      5.670488   713A      5.677539   714A      5.680954  
     715A      5.701615   716A      5.712096   717A      5.715847  
     718A      5.739022   719A      5.749216   720A      5.763508  
     721A      5.775888   722A      5.782792   723A      5.795206  
     724A      5.820313   725A      5.827906   726A      5.842733  
     727A      5.853652   728A      5.875863   729A      5.896691  
     730A      5.917235   731A      5.938579   732A      5.954970  
     733A      5.987840   734A      5.999132   735A      6.008808  
     736A      6.041121   737A      6.069775   738A      6.076713  
     739A      6.091223   740A      6.098752   741A      6.135905  
     742A      6.149377   743A      6.196964   744A      6.213454  
     745A      6.216354   746A      6.230853   747A      6.252245  
     748A      6.272922   749A      6.286936   750A      6.313852  
     751A      6.320008   752A      6.344167   753A      6.354372  
     754A      6.370100   755A      6.396111   756A      6.402346  
     757A      6.432367   758A      6.449497   759A      6.603578  
     760A      6.619138   761A      6.671742   762A      6.690767  
     763A      6.731328   764A      6.761797   765A      6.812216  
     766A      6.851905   767A      6.878073   768A      6.907239  
     769A      6.927362   770A      7.040100   771A      7.048758  
     772A      7.087581   773A      7.137701   774A      7.168844  
     775A     18.035724   776A     18.209043   777A     18.359507  
     778A     18.514732   779A     18.706490   780A     18.908441  
     781A     19.561905   782A     19.792141  

    Final Occupation by Irrep:
              A 
    DOCC [    33 ]

  Energy converged.

  @DF-RHF Final Energy:  -313.53622512163827

   => Energetics <=

    Nuclear Repulsion Energy =            401.4908434513686188
    One-Electron Energy =               -1218.1280935434592720
    Two-Electron Energy =                 503.1010249704525563
    DFT Exchange-Correlation Energy =       0.0000000000000000
    Empirical Dispersion Energy =           0.0000000000000000
    PCM Polarization Energy =               0.0000000000000000
    EFP Energy =                            0.0000000000000000
    Total Energy =                       -313.5362251216380969


  Saving occupied orbitals to File 180.

*** tstop() called on wr34 at Wed Sep 21 04:59:17 2016
Module time:
	user time   =    1098.73 seconds =      18.31 minutes
	system time =      13.90 seconds =       0.23 minutes
	total time  =        103 seconds =       1.72 minutes
Total time:
	user time   =    1098.73 seconds =      18.31 minutes
	system time =      13.90 seconds =       0.23 minutes
	total time  =        103 seconds =       1.72 minutes


Properties will be evaluated at   0.000000,   0.000000,   0.000000 Bohr

Properties computed using the SCF density matrix

  Nuclear Dipole Moment: (a.u.)
     X:     0.1809      Y:    -0.3558      Z:    -0.7849

  Electronic Dipole Moment: (a.u.)
     X:    -0.1914      Y:     0.3384      Z:     0.7867

  Dipole Moment: (a.u.)
     X:    -0.0105      Y:    -0.0175      Z:     0.0018     Total:     0.0205

  Dipole Moment: (Debye)
     X:    -0.0267      Y:    -0.0444      Z:     0.0045     Total:     0.0520


  //>>>>>>>>>>>>>>>>>>>>>>>>>>>>>>>>>>>//
  //               DFMP2               //
  //<<<<<<<<<<<<<<<<<<<<<<<<<<<<<<<<<<<//


*** tstart() called on wr34
*** at Wed Sep 21 04:59:17 2016


*** tstop() called on wr34 at Wed Sep 21 04:59:17 2016
Module time:
	user time   =       2.90 seconds =       0.05 minutes
	system time =       0.13 seconds =       0.00 minutes
	total time  =          0 seconds =       0.00 minutes
Total time:
	user time   =    1101.83 seconds =      18.36 minutes
	system time =      14.04 seconds =       0.23 minutes
	total time  =        103 seconds =       1.72 minutes
	 --------------------------------------------------------
	                          DF-MP2                         
	      2nd-Order Density-Fitted Moller-Plesset Theory     
	              RMP2 Wavefunction,  12 Threads             
	                                                         
	        Rob Parrish, Justin Turney, Andy Simmonett,      
	           Ed Hohenstein, and C. David Sherrill          
	 --------------------------------------------------------

   => Auxiliary Basis Set <=

  Basis Set: 
    Number of shells: 476
    Number of basis function: 1676
    Number of Cartesian functions: 2078
    Spherical Harmonics?: true
    Max angular momentum: 4

	 --------------------------------------------------------
	                 NBF =   782, NAUX =  1676
	 --------------------------------------------------------
	   CLASS    FOCC     OCC    AOCC    AVIR     VIR    FVIR
	   PAIRS       8      33      25     749     749       0
	 --------------------------------------------------------

DGAS Warning! /src/lib/libfock/apps.cc:80 is not currently checking restricted

         ------------------------------------------------------------
                                     CPHF                           
                                  Rob Parrish                       
         ------------------------------------------------------------

  ==> Geometry <==

    Molecular point group: c1
    Full point group: C1

    Geometry (in Angstrom), charge = 0, multiplicity = 1:

       Center              X                  Y                   Z               Mass       
    ------------   -----------------  -----------------  -----------------  -----------------
           C         -3.221259285750     0.016540257186    -0.500283049106    12.000000000000
           H         -2.908969681462     1.060494605063    -0.475693206058     1.007825032070
           H         -3.837315603712    -0.166940060010     0.381919650663     1.007825032070
           H         -3.848150820580    -0.120180826212    -1.381091481466     1.007825032070
           C          3.466345787929    -0.576002855800    -0.570178367400    12.000000000000
           H          3.741672399598    -1.605087901275    -0.799695392554     1.007825032070
           H          4.030420844980    -0.266398118100     0.310787253493     1.007825032070
           H          3.783244362645     0.051760178677    -1.403892465022     1.007825032070
           C         -2.022027205742    -0.924332173516    -0.526471897198    12.000000000000
           H         -1.396103499446    -0.695445941028    -1.391852019333     1.007825032070
           H         -2.369515722976    -1.949934672610    -0.669893561365     1.007825032070
           C          1.968369133292    -0.434068845600    -0.326339473245    12.000000000000
           H          1.415806171053    -0.750084291506    -1.216015414930     1.007825032070
           H          1.671722155332    -1.104215084925     0.481637178466     1.007825032070
           C         -1.185300713846    -0.873941132457     0.751870408684    12.000000000000
           H         -0.341773019510    -1.556537319692     0.647441031203     1.007825032070
           H         -1.792136863521    -1.259575850319     1.577026844429     1.007825032070
           C         -0.699311478229     0.526749143632     1.141748671190    12.000000000000
           H         -0.088686188233     0.451048965542     2.047103257669     1.007825032070
           H         -1.573137151470     1.119027220794     1.422565716078     1.007825032070
           C          0.089258347162     1.296340085782     0.075617338245    12.000000000000
           H         -0.346074140800     1.120439837561    -0.911852773751     1.007825032070
           H         -0.029695803070     2.365630365766     0.267773018389     1.007825032070
           C          1.587722147015     1.000594853951     0.024354047220    12.000000000000
           H          2.045874083774     1.667347339887    -0.713117980637     1.007825032070
           H          2.035748015615     1.259069793688     0.989589794688     1.007825032070

  Nuclear repulsion =  401.490843451368619
  Reference energy  = -313.536225121638267

  ==> Basis Set <==

  Basis Set: AUG-CC-PVTZ
    Number of shells: 274
    Number of basis function: 782
    Number of Cartesian functions: 890
    Spherical Harmonics?: true
    Max angular momentum: 3

  ==> CGRSolver (by Rob Parrish) <==

   Number of roots    =         1
   Preconditioning    =    JACOBI
   Convergence cutoff =     1E-06
   Maximum iterations =       100

  ==> CPHFRHamiltonian (by Rob Parrish) <== 

  ==> DFJK: Density-Fitted J/K Matrices <==

    J tasked:                  Yes
    K tasked:                  Yes
    wK tasked:                  No
    OpenMP threads:             12
    Integrals threads:          12
    Memory (MB):             42915
    Algorithm:                Core
    Integral Cache:           NONE
    Schwarz Cutoff:          1E-12
    Fitting Condition:       1E-12

   => Auxiliary Basis Set <=

  Basis Set: 
    Number of shells: 492
    Number of basis function: 1660
    Number of Cartesian functions: 2038
    Spherical Harmonics?: true
    Max angular momentum: 4

  ==> CPHF Iterations <==

  => Iterations <=

             Iter  Converged  Remaining    Residual
  CGR           1          0          1   9.291E-02
  CGR           2          0          1   1.355E-02
  CGR           3          0          1   4.155E-03
  CGR           4          0          1   9.017E-04
  CGR           5          0          1   2.079E-04
  CGR           6          0          1   4.912E-05
  CGR           7          0          1   1.418E-05
  CGR           8          0          1   3.250E-06
  CGR           9          1          0   8.645E-07

    CGRSolver converged.

  ==> DFCorrGrad: Density-Fitted Correlated Gradients <==

    OpenMP threads:             12
    Integrals threads:          12
    Memory (MB):             42915
    Schwarz Cutoff:          0E+00
    Fitting Condition:       1E-12

   => Auxiliary Basis Set <=

  Basis Set: 
    Number of shells: 492
    Number of basis function: 1660
    Number of Cartesian functions: 2038
    Spherical Harmonics?: true
    Max angular momentum: 4

	-----------------------------------------------------------
	 ==================> DF-MP2 Energies <==================== 
	-----------------------------------------------------------
	 Reference Energy          =    -313.5362251216382674 [Eh]
	 Singles Energy            =      -0.0000000000000001 [Eh]
	 Same-Spin Energy          =      -0.3171096596982811 [Eh]
	 Opposite-Spin Energy      =      -1.1266408278183446 [Eh]
	 Correlation Energy        =      -1.4437504875166258 [Eh]
	 Total Energy              =    -314.9799756091549057 [Eh]
	-----------------------------------------------------------
	 ================> DF-SCS-MP2 Energies <================== 
	-----------------------------------------------------------
	 SCS Same-Spin Scale       =       0.3333333333333333 [-]
	 SCS Opposite-Spin Scale   =       1.2000000000000000 [-]
	 SCS Same-Spin Energy      =      -0.1057032198994270 [Eh]
	 SCS Opposite-Spin Energy  =      -1.3519689933820136 [Eh]
	 SCS Correlation Energy    =      -1.4576722132814406 [Eh]
	 SCS Total Energy          =    -314.9938973349197227 [Eh]
	-----------------------------------------------------------


  -Total Gradient:
     Atom            X                  Y                   Z
    ------   -----------------  -----------------  -----------------
       1        0.000000420948    -0.000000279898     0.000000003391
       2       -0.000000027557     0.000000405789    -0.000000010192
       3       -0.000000168071    -0.000000016272     0.000000269993
       4       -0.000000047797    -0.000000010635    -0.000000139553
       5       -0.000000289141     0.000000270832    -0.000000076397
       6        0.000000075789    -0.000000155770    -0.000000077736
       7        0.000000102736     0.000000029494     0.000000124709
       8        0.000000085649     0.000000066790    -0.000000074096
       9       -0.000000545574     0.000000287934     0.000000518118
      10        0.000000348656     0.000000169773    -0.000000529960
      11       -0.000000130982    -0.000000301763    -0.000000019632
      12        0.000000666868     0.000000589664     0.000000105528
      13       -0.000000098055    -0.000000187218    -0.000000393288
      14       -0.000000159967    -0.000000339440     0.000000311198
      15       -0.000000607362     0.000000328610    -0.000000673499
      16        0.000001005771    -0.000000770924    -0.000000202013
      17       -0.000000647642    -0.000000229874     0.000000583671
      18        0.000000425030    -0.000000242934    -0.000000666219
      19        0.000000468112    -0.000000126203     0.000000624484
      20       -0.000000795752     0.000000553967     0.000000189195
      21        0.000000263323    -0.000000193249     0.000000779807
      22       -0.000000241444     0.000000108615    -0.000000755347
      23        0.000000035716     0.000000236325     0.000000190927
      24       -0.000000539865    -0.000000455365    -0.000000224804
      25        0.000000112072     0.000000159164    -0.000000118441
      26        0.000000288537     0.000000102593     0.000000260156


			-----------------------------------------
			 OPTKING 2.0: for geometry optimizations 
			  - R.A. King,  Bethel University        
			-----------------------------------------

	Internal coordinates to be generated automatically.
	Detected frag 1 with atoms:  1 2 3 4 5 6 7 8 9 10 11 12 13 14 15 16 17 18 19 20
	 21 22 23 24 25 26
	---Fragment 1 Bond Connectivity---
	 1 : 2 3 4 9
	 2 : 1
	 3 : 1
	 4 : 1
	 5 : 6 7 8 12
	 6 : 5
	 7 : 5
	 8 : 5
	 9 : 1 10 11 15
	 10 : 9
	 11 : 9
	 12 : 5 13 14 24
	 13 : 12
	 14 : 12
	 15 : 9 16 17 18
	 16 : 15
	 17 : 15
	 18 : 15 19 20 21
	 19 : 18
	 20 : 18
	 21 : 18 22 23 24
	 22 : 21
	 23 : 21
	 24 : 12 21 25 26
	 25 : 24
	 26 : 24

	---Fragment 1 Geometry and Gradient---
	 C          -6.0872978531        0.0312565562       -0.9453979517
	 H          -5.4971560268        2.0040443690       -0.8989298827
	 H          -7.2514755765       -0.3154709940        0.7217235445
	 H          -7.2719511689       -0.2271088480       -2.6098846644
	 C           6.5504442211       -1.0884876492       -1.0774809613
	 H           7.0707361142       -3.0331765526       -1.5112052817
	 H           7.6163915973       -0.5034194855        0.5873027947
	 H           7.1492957392        0.0978125623       -2.6529722789
	 C          -3.8210776521       -1.7467346638       -0.9948877024
	 H          -2.6382532671       -1.3142023688       -2.6302191340
	 H          -4.4777357840       -3.6848425083       -1.2659153692
	 C           3.7196785903       -0.8202712410       -0.6166922308
	 H           2.6754859205       -1.4174538875       -2.2979361076
	 H           3.1590970439       -2.0866641023        0.9101623627
	 C          -2.2398937343       -1.6515093966        1.4208291598
	 H          -0.6458574065       -2.9414292498        1.2234862362
	 H          -3.3866478647       -2.3802534007        2.9801488402
	 C          -1.3215071754        0.9954116222        2.1575923011
	 H          -0.1675926075        0.8523590174        3.8684645227
	 H          -2.9727983857        2.1146549825        2.6882596094
	 C           0.1686738312        2.4497277372        0.1428960602
	 H          -0.6539853478        2.1173244414       -1.7231520159
	 H          -0.0561169351        4.4703935229        0.5060176705
	 C           3.0003600330        1.8908502439        0.0460224795
	 H           3.8661417207        3.1508298408       -1.3475976838
	 H           3.8470062251        2.3792970923        1.8700536959
	             0.0000004209       -0.0000002799        0.0000000034
	            -0.0000000276        0.0000004058       -0.0000000102
	            -0.0000001681       -0.0000000163        0.0000002700
	            -0.0000000478       -0.0000000106       -0.0000001396
	            -0.0000002891        0.0000002708       -0.0000000764
	             0.0000000758       -0.0000001558       -0.0000000777
	             0.0000001027        0.0000000295        0.0000001247
	             0.0000000856        0.0000000668       -0.0000000741
	            -0.0000005456        0.0000002879        0.0000005181
	             0.0000003487        0.0000001698       -0.0000005300
	            -0.0000001310       -0.0000003018       -0.0000000196
	             0.0000006669        0.0000005897        0.0000001055
	            -0.0000000981       -0.0000001872       -0.0000003933
	            -0.0000001600       -0.0000003394        0.0000003112
	            -0.0000006074        0.0000003286       -0.0000006735
	             0.0000010058       -0.0000007709       -0.0000002020
	            -0.0000006476       -0.0000002299        0.0000005837
	             0.0000004250       -0.0000002429       -0.0000006662
	             0.0000004681       -0.0000001262        0.0000006245
	            -0.0000007958        0.0000005540        0.0000001892
	             0.0000002633       -0.0000001932        0.0000007798
	            -0.0000002414        0.0000001086       -0.0000007553
	             0.0000000357        0.0000002363        0.0000001909
	            -0.0000005399       -0.0000004554       -0.0000002248
	             0.0000001121        0.0000001592       -0.0000001184
	             0.0000002885        0.0000001026        0.0000002602

	Previous optimization step data not found.  Starting new optimization.

	---Fragment 1 Intrafragment Coordinates---
	 - Coordinate -           - BOHR/RAD -       - ANG/DEG -
	 R(1,2)           =         2.059689	       1.089940
	 R(1,3)           =         2.062722	       1.091546
	 R(1,4)           =         2.059289	       1.089729
	 R(1,9)           =         2.880878	       1.524495
	 R(5,6)           =         2.059280	       1.089724
	 R(5,7)           =         2.061566	       1.090934
	 R(5,8)           =         2.061093	       1.090683
	 R(5,12)          =         2.880538	       1.524315
	 R(9,10)          =         2.064090	       1.092269
	 R(9,11)          =         2.064199	       1.092327
	 R(9,15)          =         2.888754	       1.528663
	 R(12,13)         =         2.067256	       1.093945
	 R(12,14)         =         2.061380	       1.090835
	 R(12,24)         =         2.882150	       1.525168
	 R(15,16)         =         2.060046	       1.090129
	 R(15,17)         =         2.068234	       1.094462
	 R(15,18)         =         2.896972	       1.533011
	 R(18,19)         =         2.068590	       1.094651
	 R(18,20)         =         2.064237	       1.092347
	 R(18,21)         =         2.897357	       1.533215
	 R(21,22)         =         2.066252	       1.093413
	 R(21,23)         =         2.065303	       1.092912
	 R(21,24)         =         2.887936	       1.528230
	 R(24,25)         =         2.068648	       1.094681
	 R(24,26)         =         2.069415	       1.095087
	 B(1,9,10)        =         1.912472	     109.576561
	 B(1,9,11)        =         1.908669	     109.358693
	 B(1,9,15)        =         1.977806	     113.319945
	 B(2,1,3)         =         1.880183	     107.726576
	 B(2,1,4)         =         1.878879	     107.651857
	 B(2,1,9)         =         1.945643	     111.477120
	 B(3,1,4)         =         1.883359	     107.908512
	 B(3,1,9)         =         1.932764	     110.739204
	 B(4,1,9)         =         1.940368	     111.174926
	 B(5,12,13)       =         1.917063	     109.839608
	 B(5,12,14)       =         1.905542	     109.179495
	 B(5,12,24)       =         1.949412	     111.693094
	 B(6,5,7)         =         1.883308	     107.905603
	 B(6,5,8)         =         1.885079	     108.007047
	 B(6,5,12)        =         1.949714	     111.710398
	 B(7,5,8)         =         1.879369	     107.679920
	 B(7,5,12)        =         1.931058	     110.641499
	 B(8,5,12)        =         1.932870	     110.745311
	 B(9,15,16)       =         1.899471	     108.831684
	 B(9,15,17)       =         1.891649	     108.383511
	 B(9,15,18)       =         2.000187	     114.602258
	 B(10,9,11)       =         1.849409	     105.963344
	 B(10,9,15)       =         1.919809	     109.996946
	 B(11,9,15)       =         1.891120	     108.353190
	 B(12,24,21)      =         2.020242	     115.751365
	 B(12,24,25)      =         1.889757	     108.275113
	 B(12,24,26)      =         1.899260	     108.819609
	 B(13,12,14)      =         1.862471	     106.711706
	 B(13,12,24)      =         1.909933	     109.431094
	 B(14,12,24)      =         1.917396	     109.858713
	 B(15,18,19)      =         1.900747	     108.904802
	 B(15,18,20)      =         1.883034	     107.889904
	 B(15,18,21)      =         2.031776	     116.412164
	 B(16,15,17)      =         1.855247	     106.297796
	 B(16,15,18)      =         1.929621	     110.559139
	 B(17,15,18)      =         1.881751	     107.816409
	 B(18,21,22)      =         1.920329	     110.026773
	 B(18,21,23)      =         1.888999	     108.231659
	 B(18,21,24)      =         2.015837	     115.498944
	 B(19,18,20)      =         1.845342	     105.730318
	 B(19,18,21)      =         1.899607	     108.839474
	 B(20,18,21)      =         1.894454	     108.544219
	 B(21,24,25)      =         1.891360	     108.366919
	 B(21,24,26)      =         1.902771	     109.020768
	 B(22,21,23)      =         1.847146	     105.833679
	 B(22,21,24)      =         1.905998	     109.205646
	 B(23,21,24)      =         1.877542	     107.575250
	 B(25,24,26)      =         1.853353	     106.189299
	 D(1,9,15,16)     =        -3.123217	    -178.947181
	 D(1,9,15,17)     =         1.149339	      65.852273
	 D(1,9,15,18)     =        -0.952909	     -54.597669
	 D(2,1,9,10)      =        -1.005438	     -57.607352
	 D(2,1,9,11)      =        -3.025533	    -173.350286
	 D(2,1,9,15)      =         1.145976	      65.659582
	 D(3,1,9,10)      =        -3.098499	    -177.530925
	 D(3,1,9,11)      =         1.164591	      66.726141
	 D(3,1,9,15)      =        -0.947085	     -54.263990
	 D(4,1,9,10)      =         1.091111	      62.516053
	 D(4,1,9,11)      =        -0.928984	     -53.226882
	 D(4,1,9,15)      =        -3.040660	    -174.217013
	 D(5,12,24,21)    =         2.982815	     170.902687
	 D(5,12,24,25)    =         0.856099	      49.050835
	 D(5,12,24,26)    =        -1.151179	     -65.957699
	 D(6,5,12,13)     =        -1.040502	     -59.616399
	 D(6,5,12,14)     =         0.996126	      57.073806
	 D(6,5,12,24)     =         3.120168	     178.772457
	 D(7,5,12,13)     =        -3.139073	    -179.855651
	 D(7,5,12,14)     =        -1.102445	     -63.165445
	 D(7,5,12,24)     =         1.021597	      58.533206
	 D(8,5,12,13)     =         1.061550	      60.822348
	 D(8,5,12,14)     =         3.098179	     177.512553
	 D(8,5,12,24)     =        -1.060965	     -60.788796
	 D(9,15,18,19)    =        -3.112221	    -178.317140
	 D(9,15,18,20)    =         1.175875	      67.372700
	 D(9,15,18,21)    =        -0.957617	     -54.867389
	 D(10,9,15,16)    =        -0.975845	     -55.911794
	 D(10,9,15,17)    =        -2.986474	    -171.112340
	 D(10,9,15,18)    =         1.194464	      68.437718
	 D(11,9,15,16)    =         1.038424	      59.497285
	 D(11,9,15,17)    =        -0.972205	     -55.703261
	 D(11,9,15,18)    =        -3.074453	    -176.153203
	 D(12,24,21,18)   =         1.096975	      62.852017
	 D(12,24,21,22)   =        -1.077803	     -61.753546
	 D(12,24,21,23)   =        -3.074795	    -176.172779
	 D(13,12,24,21)   =         0.856186	      49.055822
	 D(13,12,24,25)   =        -1.270530	     -72.796030
	 D(13,12,24,26)   =         3.005377	     172.195436
	 D(14,12,24,21)   =        -1.183186	     -67.791546
	 D(14,12,24,25)   =         2.973284	     170.356602
	 D(14,12,24,26)   =         0.966006	      55.348068
	 D(15,18,21,22)   =         0.678258	      38.861301
	 D(15,18,21,23)   =         2.688921	     154.063849
	 D(15,18,21,24)   =        -1.489058	     -85.316718
	 D(16,15,18,19)   =        -0.957981	     -54.888273
	 D(16,15,18,20)   =        -2.953070	    -169.198433
	 D(16,15,18,21)   =         1.196624	      68.561478
	 D(17,15,18,19)   =         1.063247	      60.919578
	 D(17,15,18,20)   =        -0.931841	     -53.390583
	 D(17,15,18,21)   =        -3.065333	    -175.630671
	 D(18,21,24,25)   =        -3.060349	    -175.345108
	 D(18,21,24,26)   =        -1.050370	     -60.181772
	 D(19,18,21,22)   =         2.833452	     162.344834
	 D(19,18,21,23)   =        -1.439070	     -82.452618
	 D(19,18,21,24)   =         0.666137	      38.166815
	 D(20,18,21,22)   =        -1.449235	     -83.035074
	 D(20,18,21,23)   =         0.561428	      32.167474
	 D(20,18,21,24)   =         2.666635	     152.786907
	 D(22,21,24,25)   =         1.048059	      60.049329
	 D(22,21,24,26)   =         3.058038	     175.212665
	 D(23,21,24,25)   =        -0.948934	     -54.369903
	 D(23,21,24,26)   =         1.061046	      60.793433
	 R(1,21)          =         6.794893	       3.595702
	 R(12,15)         =         6.352870	       3.361794

	Current energy   :      -314.9799756092

	Generating empirical Hessian (Schlegel '84) for each fragment.
	Taking RFO optimization step.
	Going to follow RFO solution 1.
	Using RFO vector 1.
	Norm of target step-size    0.00033
	Projected energy change by RFO approximation:         0.0000000001

	Back-transformation to cartesian coordinates...
	Successfully converged to displaced geometry.

	--- Internal Coordinate Step in ANG or DEG, aJ/ANG or AJ/DEG ---
	 ---------------------------------------------------------------------------
	   Coordinate                Previous        Force       Change         New 
	   ----------                --------       ------       ------       ------
	    1 R(1,2)          =      1.089940    -0.000003    -0.000001     1.089940
	    2 R(1,3)          =      1.091546    -0.000003    -0.000000     1.091545
	    3 R(1,4)          =      1.089729    -0.000001    -0.000000     1.089729
	    4 R(1,9)          =      1.524495     0.000001     0.000000     1.524495
	    5 R(5,6)          =      1.089724    -0.000002    -0.000000     1.089724
	    6 R(5,7)          =      1.090934    -0.000001    -0.000000     1.090933
	    7 R(5,8)          =      1.090683    -0.000001    -0.000000     1.090683
	    8 R(5,12)         =      1.524315     0.000000     0.000000     1.524315
	    9 R(9,10)         =      1.092269    -0.000005    -0.000001     1.092268
	   10 R(9,11)         =      1.092327    -0.000003    -0.000001     1.092327
	   11 R(9,15)         =      1.528663     0.000000     0.000000     1.528663
	   12 R(12,13)        =      1.093945    -0.000003    -0.000001     1.093944
	   13 R(12,14)        =      1.090835    -0.000004    -0.000001     1.090835
	   14 R(12,24)        =      1.525168     0.000001     0.000000     1.525168
	   15 R(15,16)        =      1.090129    -0.000010    -0.000002     1.090127
	   16 R(15,17)        =      1.094462    -0.000007    -0.000001     1.094461
	   17 R(15,18)        =      1.533011    -0.000003    -0.000001     1.533011
	   18 R(18,19)        =      1.094651    -0.000006    -0.000001     1.094650
	   19 R(18,20)        =      1.092347    -0.000008    -0.000002     1.092346
	   20 R(18,21)        =      1.533215     0.000001     0.000000     1.533215
	   21 R(21,22)        =      1.093413    -0.000007    -0.000001     1.093412
	   22 R(21,23)        =      1.092912    -0.000002    -0.000000     1.092911
	   23 R(21,24)        =      1.528230     0.000001     0.000000     1.528230
	   24 R(24,25)        =      1.094681    -0.000002    -0.000000     1.094681
	   25 R(24,26)        =      1.095087    -0.000003    -0.000001     1.095087
	   26 B(1,9,10)       =    109.576561     0.000000     0.000011   109.576572
	   27 B(1,9,11)       =    109.358693    -0.000000    -0.000024   109.358669
	   28 B(1,9,15)       =    113.319945     0.000000     0.000040   113.319985
	   29 B(2,1,3)        =    107.726576     0.000000     0.000010   107.726587
	   30 B(2,1,4)        =    107.651857     0.000000     0.000031   107.651888
	   31 B(2,1,9)        =    111.477120    -0.000000    -0.000079   111.477040
	   32 B(3,1,4)        =    107.908512    -0.000000    -0.000003   107.908510
	   33 B(3,1,9)        =    110.739204    -0.000000    -0.000014   110.739189
	   34 B(4,1,9)        =    111.174926     0.000000     0.000056   111.174982
	   35 B(5,12,13)      =    109.839608     0.000000     0.000027   109.839634
	   36 B(5,12,14)      =    109.179495    -0.000000    -0.000007   109.179488
	   37 B(5,12,24)      =    111.693094     0.000000     0.000088   111.693182
	   38 B(6,5,7)        =    107.905603     0.000000     0.000020   107.905624
	   39 B(6,5,8)        =    108.007047     0.000000     0.000011   108.007058
	   40 B(6,5,12)       =    111.710398    -0.000000    -0.000004   111.710395
	   41 B(7,5,8)        =    107.679920     0.000000     0.000008   107.679928
	   42 B(7,5,12)       =    110.641499     0.000000     0.000005   110.641504
	   43 B(8,5,12)       =    110.745311    -0.000000    -0.000039   110.745273
	   44 B(9,15,16)      =    108.831684    -0.000000    -0.000130   108.831554
	   45 B(9,15,17)      =    108.383511     0.000000     0.000155   108.383666
	   46 B(9,15,18)      =    114.602258     0.000000     0.000060   114.602317
	   47 B(10,9,11)      =    105.963344    -0.000000    -0.000029   105.963315
	   48 B(10,9,15)      =    109.996946    -0.000000    -0.000037   109.996909
	   49 B(11,9,15)      =    108.353190     0.000000     0.000034   108.353223
	   50 B(12,24,21)     =    115.751365    -0.000000    -0.000121   115.751244
	   51 B(12,24,25)     =    108.275113     0.000000    -0.000046   108.275068
	   52 B(12,24,26)     =    108.819609     0.000000     0.000118   108.819727
	   53 B(13,12,14)     =    106.711706     0.000000    -0.000003   106.711703
	   54 B(13,12,24)     =    109.431094    -0.000000    -0.000095   109.430998
	   55 B(14,12,24)     =    109.858713    -0.000000    -0.000013   109.858700
	   56 B(15,18,19)     =    108.904802    -0.000000    -0.000034   108.904768
	   57 B(15,18,20)     =    107.889904     0.000000     0.000025   107.889928
	   58 B(15,18,21)     =    116.412164    -0.000000    -0.000019   116.412145
	   59 B(16,15,17)     =    106.297796    -0.000000    -0.000088   106.297708
	   60 B(16,15,18)     =    110.559139    -0.000000    -0.000128   110.559011
	   61 B(17,15,18)     =    107.816409     0.000000     0.000130   107.816539
	   62 B(18,21,22)     =    110.026773    -0.000000    -0.000098   110.026676
	   63 B(18,21,23)     =    108.231659    -0.000000    -0.000000   108.231659
	   64 B(18,21,24)     =    115.498944     0.000000     0.000045   115.498989
	   65 B(19,18,20)     =    105.730318    -0.000000    -0.000037   105.730281
	   66 B(19,18,21)     =    108.839474     0.000000     0.000011   108.839484
	   67 B(20,18,21)     =    108.544219     0.000000     0.000053   108.544272
	   68 B(21,24,25)     =    108.366919     0.000000    -0.000020   108.366899
	   69 B(21,24,26)     =    109.020768     0.000000     0.000014   109.020782
	   70 B(22,21,23)     =    105.833679     0.000000     0.000022   105.833701
	   71 B(22,21,24)     =    109.205646    -0.000000    -0.000049   109.205596
	   72 B(23,21,24)     =    107.575250     0.000000     0.000085   107.575334
	   73 B(25,24,26)     =    106.189299    -0.000000     0.000068   106.189367
	   74 D(1,9,15,16)    =   -178.947181    -0.000000    -0.002155  -178.949335
	   75 D(1,9,15,17)    =     65.852273     0.000000    -0.002065    65.850208
	   76 D(1,9,15,18)    =    -54.597669    -0.000000    -0.002383   -54.600051
	   77 D(2,1,9,10)     =    -57.607352    -0.000000    -0.000703   -57.608055
	   78 D(2,1,9,11)     =   -173.350286    -0.000000    -0.000662  -173.350948
	   79 D(2,1,9,15)     =     65.659582    -0.000000    -0.000715    65.658868
	   80 D(3,1,9,10)     =   -177.530925     0.000000    -0.000654  -177.531579
	   81 D(3,1,9,11)     =     66.726141     0.000000    -0.000612    66.725529
	   82 D(3,1,9,15)     =    -54.263990    -0.000000    -0.000666   -54.264656
	   83 D(4,1,9,10)     =     62.516053    -0.000000    -0.000679    62.515374
	   84 D(4,1,9,11)     =    -53.226882     0.000000    -0.000637   -53.227519
	   85 D(4,1,9,15)     =   -174.217013    -0.000000    -0.000690  -174.217703
	   86 D(5,12,24,21)   =    170.902687    -0.000000    -0.000707   170.901980
	   87 D(5,12,24,25)   =     49.050835     0.000000    -0.000562    49.050273
	   88 D(5,12,24,26)   =    -65.957699    -0.000000    -0.000681   -65.958380
	   89 D(6,5,12,13)    =    -59.616399    -0.000000     0.000155   -59.616244
	   90 D(6,5,12,14)    =     57.073806     0.000000     0.000163    57.073969
	   91 D(6,5,12,24)    =    178.772457     0.000000     0.000199   178.772656
	   92 D(7,5,12,13)    =   -179.855651    -0.000000     0.000129  -179.855522
	   93 D(7,5,12,14)    =    -63.165445    -0.000000     0.000136   -63.165309
	   94 D(7,5,12,24)    =     58.533206     0.000000     0.000173    58.533379
	   95 D(8,5,12,13)    =     60.822348    -0.000000     0.000140    60.822488
	   96 D(8,5,12,14)    =    177.512553    -0.000000     0.000148   177.512701
	   97 D(8,5,12,24)    =    -60.788796     0.000000     0.000184   -60.788612
	   98 D(9,15,18,19)   =   -178.317140     0.000000     0.002807  -178.314332
	   99 D(9,15,18,20)   =     67.372700     0.000000     0.002855    67.375556
	  100 D(9,15,18,21)   =    -54.867389     0.000000     0.002779   -54.864609
	  101 D(10,9,15,16)   =    -55.911794    -0.000000    -0.002139   -55.913934
	  102 D(10,9,15,17)   =   -171.112340     0.000000    -0.002049  -171.114390
	  103 D(10,9,15,18)   =     68.437718    -0.000000    -0.002367    68.435351
	  104 D(11,9,15,16)   =     59.497285    -0.000000    -0.002175    59.495111
	  105 D(11,9,15,17)   =    -55.703261     0.000000    -0.002085   -55.705346
	  106 D(11,9,15,18)   =   -176.153203    -0.000000    -0.002402  -176.155605
	  107 D(12,24,21,18)  =     62.852017     0.000000     0.003930    62.855947
	  108 D(12,24,21,22)  =    -61.753546     0.000000     0.004068   -61.749479
	  109 D(12,24,21,23)  =   -176.172779     0.000000     0.004023  -176.168756
	  110 D(13,12,24,21)  =     49.055822    -0.000000    -0.000733    49.055089
	  111 D(13,12,24,25)  =    -72.796030    -0.000000    -0.000589   -72.796619
	  112 D(13,12,24,26)  =    172.195436    -0.000000    -0.000708   172.194728
	  113 D(14,12,24,21)  =    -67.791546     0.000000    -0.000666   -67.792212
	  114 D(14,12,24,25)  =    170.356602     0.000000    -0.000522   170.356080
	  115 D(14,12,24,26)  =     55.348068    -0.000000    -0.000640    55.347428
	  116 D(15,18,21,22)  =     38.861301     0.000000     0.003245    38.864546
	  117 D(15,18,21,23)  =    154.063849    -0.000000     0.003219   154.067068
	  118 D(15,18,21,24)  =    -85.316718     0.000000     0.003358   -85.313360
	  119 D(16,15,18,19)  =    -54.888273     0.000000     0.002577   -54.885696
	  120 D(16,15,18,20)  =   -169.198433     0.000000     0.002625  -169.195808
	  121 D(16,15,18,21)  =     68.561478     0.000000     0.002549    68.564027
	  122 D(17,15,18,19)  =     60.919578    -0.000000     0.002477    60.922055
	  123 D(17,15,18,20)  =    -53.390583    -0.000000     0.002525   -53.388057
	  124 D(17,15,18,21)  =   -175.630671    -0.000000     0.002449  -175.628222
	  125 D(18,21,24,25)  =   -175.345108    -0.000000     0.003772  -175.341335
	  126 D(18,21,24,26)  =    -60.181772     0.000000     0.003850   -60.177922
	  127 D(19,18,21,22)  =    162.344834     0.000000     0.003194   162.348028
	  128 D(19,18,21,23)  =    -82.452618    -0.000000     0.003168   -82.449450
	  129 D(19,18,21,24)  =     38.166815     0.000000     0.003307    38.170122
	  130 D(20,18,21,22)  =    -83.035074     0.000000     0.003184   -83.031891
	  131 D(20,18,21,23)  =     32.167474    -0.000000     0.003158    32.170631
	  132 D(20,18,21,24)  =    152.786907     0.000000     0.003297   152.790203
	  133 D(22,21,24,25)  =     60.049329     0.000000     0.003910    60.053239
	  134 D(22,21,24,26)  =    175.212665     0.000000     0.003987   175.216652
	  135 D(23,21,24,25)  =    -54.369903     0.000000     0.003865   -54.366038
	  136 D(23,21,24,26)  =     60.793433     0.000000     0.003942    60.797375
	  137 R(1,21)         =      3.595702    -0.000000    -0.000004     3.595699
	  138 R(12,15)        =      3.361794    -0.000004    -0.000020     3.361774
	 ---------------------------------------------------------------------------

  ==> Convergence Check <==

  Measures of convergence in internal coordinates in au.
  Criteria marked as inactive (o), active & met (*), and active & unmet ( ).
  --------------------------------------------------------------------------------------------- ~
   Step     Total Energy     Delta E     MAX Force     RMS Force      MAX Disp      RMS Disp    ~
  --------------------------------------------------------------------------------------------- ~
    Convergence Criteria             o    2.00e-06 *    1.00e-06 *    6.00e-06 *    4.00e-06 *  ~
  --------------------------------------------------------------------------------------------- ~
      1    -314.97997561   -3.15e+02 o    1.26e-06 *    2.33e-07 *    7.10e-05      2.79e-05    ~
  ---------------------------------------------------------------------------------------------

	Writing optimization data to binary file.
	Structure for next step:
	Cartesian Geometry (in Angstrom)
	    C    -3.2212017943   0.0164854530  -0.5003543624
	    H    -2.9089479535   1.0604497200  -0.4757561369
	    H    -3.8373162720  -0.1670027707   0.3818054830
	    H    -3.8480243245  -0.1202686922  -1.3812064937
	    C     3.4662819135  -0.5760345437  -0.5702539276
	    H     3.7415728320  -1.6051130047  -0.7998418871
	    H     4.0303724678  -0.2665075727   0.3107287651
	    H     3.7831955872   0.0517741013  -1.4039277516
	    C    -2.0219358244  -0.9243470328  -0.5264412587
	    H    -1.3959628477  -0.6954604386  -1.3917844229
	    H    -2.3693802023  -1.9499640138  -0.6698623475
	    C     1.9683113733  -0.4340672027  -0.3263965179
	    H     1.4157323964  -0.7500066515  -1.2160887217
	    H     1.6716478054  -1.1042554978   0.4815381318
	    C    -1.1852950270  -0.8738977678   0.7519550266
	    H    -0.3417610755  -1.5564960830   0.6476101800
	    H    -1.7921820500  -1.2594980449   1.5770883195
	    C    -0.6993299272   0.5268087874   1.1418022484
	    H    -0.0887249672   0.4511416742   2.0471718757
	    H    -1.5731667331   1.1190850755   1.4225824532
	    C     0.0892562210   1.2963758768   0.0756654636
	    H    -0.3460876582   1.1204861192  -0.9118001397
	    H    -0.0296663893   2.3656694278   0.2678202190
	    C     1.5877111389   1.0005861325   0.0243914504
	    H     2.0458879567   1.6673715320  -0.7130348011
	    H     2.0357396238   1.2589829917   0.9896462808
			--------------------------
			 OPTKING Finished Execution 
			--------------------------

    Structure for next step:
    Molecular point group: c1
    Full point group: C1

    Geometry (in Angstrom), charge = 0, multiplicity = 1:

    C           -3.221201923559     0.016482528303    -0.500359220358
    H           -2.908948082721     1.060446795255    -0.475760994830
    H           -3.837316401200    -0.167005695447     0.381800625076
    H           -3.848024453772    -0.120271616910    -1.381211351611
    C            3.466281784221    -0.576037468401    -0.570258785542
    H            3.741572702764    -1.605115929409    -0.799846745068
    H            4.030372338596    -0.266510497432     0.310723907155
    H            3.783195458003     0.051771176620    -1.403932609527
    C           -2.021935953587    -0.924349957468    -0.526446116617
    H           -1.395962976962    -0.695463363271    -1.391789280788
    H           -2.369380331505    -1.949966938543    -0.669867205437
    C            1.968311244030    -0.434070127429    -0.326401375858
    H            1.415732267152    -0.750009576178    -1.216093579590
    H            1.671647676200    -1.104258422532     0.481533273925
    C           -1.185295156231    -0.873900692457     0.751950168701
    H           -0.341761204686    -1.556499007720     0.647605322120
    H           -1.792182179204    -1.259500969612     1.577083461590
    C           -0.699330056435     0.526805862740     1.141797390430
    H           -0.088725096398     0.451138749528     2.047167017804
    H           -1.573166862377     1.119082150803     1.422577595322
    C            0.089256091815     1.296372952066     0.075660605642
    H           -0.346087787387     1.120483194468    -0.911804997594
    H           -0.029666518519     2.365666503082     0.267815361119
    C            1.587711009647     1.000583207813     0.024386592448
    H            2.045887827488     1.667368607292    -0.713039659055
    H            2.035739494592     1.258980067022     0.989641422858

gradient() will perform analytic gradient computation.

*** tstart() called on wr34
*** at Wed Sep 21 05:05:59 2016


         ---------------------------------------------------------
                                   SCF
            by Justin Turney, Rob Parrish, and Andy Simmonett
                              RHF Reference
                       12 Threads,  60000 MiB Core
         ---------------------------------------------------------

  ==> Geometry <==

    Molecular point group: c1
    Full point group: C1

    Geometry (in Angstrom), charge = 0, multiplicity = 1:

       Center              X                  Y                   Z               Mass       
    ------------   -----------------  -----------------  -----------------  -----------------
           C         -3.221201923559     0.016482528303    -0.500359220358    12.000000000000
           H         -2.908948082721     1.060446795255    -0.475760994830     1.007825032070
           H         -3.837316401200    -0.167005695447     0.381800625076     1.007825032070
           H         -3.848024453772    -0.120271616910    -1.381211351611     1.007825032070
           C          3.466281784221    -0.576037468401    -0.570258785542    12.000000000000
           H          3.741572702764    -1.605115929409    -0.799846745068     1.007825032070
           H          4.030372338596    -0.266510497432     0.310723907155     1.007825032070
           H          3.783195458003     0.051771176620    -1.403932609527     1.007825032070
           C         -2.021935953587    -0.924349957468    -0.526446116617    12.000000000000
           H         -1.395962976962    -0.695463363271    -1.391789280788     1.007825032070
           H         -2.369380331505    -1.949966938543    -0.669867205437     1.007825032070
           C          1.968311244030    -0.434070127429    -0.326401375858    12.000000000000
           H          1.415732267152    -0.750009576178    -1.216093579590     1.007825032070
           H          1.671647676200    -1.104258422532     0.481533273925     1.007825032070
           C         -1.185295156231    -0.873900692457     0.751950168701    12.000000000000
           H         -0.341761204686    -1.556499007720     0.647605322120     1.007825032070
           H         -1.792182179204    -1.259500969612     1.577083461590     1.007825032070
           C         -0.699330056435     0.526805862740     1.141797390430    12.000000000000
           H         -0.088725096398     0.451138749528     2.047167017804     1.007825032070
           H         -1.573166862377     1.119082150803     1.422577595322     1.007825032070
           C          0.089256091815     1.296372952066     0.075660605642    12.000000000000
           H         -0.346087787387     1.120483194468    -0.911804997594     1.007825032070
           H         -0.029666518519     2.365666503082     0.267815361119     1.007825032070
           C          1.587711009647     1.000583207813     0.024386592448    12.000000000000
           H          2.045887827488     1.667368607292    -0.713039659055     1.007825032070
           H          2.035739494592     1.258980067022     0.989641422858     1.007825032070

  Running in c1 symmetry.

  Rotational constants: A =      0.11950  B =      0.02924  C =      0.02708 [cm^-1]
  Rotational constants: A =   3582.65819  B =    876.47193  C =    811.89438 [MHz]
  Nuclear repulsion =  401.491905153098685

  Charge       = 0
  Multiplicity = 1
  Electrons    = 66
  Nalpha       = 33
  Nbeta        = 33

  ==> Algorithm <==

  SCF Algorithm Type is DF.
  DIIS enabled.
  MOM disabled.
  Fractional occupation disabled.
  Guess Type is READ.
  Energy threshold   = 1.00e-10
  Density threshold  = 1.00e-10
  Integral threshold = 0.00e+00

  ==> Primary Basis <==

  Basis Set: AUG-CC-PVTZ
    Number of shells: 274
    Number of basis function: 782
    Number of Cartesian functions: 890
    Spherical Harmonics?: true
    Max angular momentum: 3

  ==> Pre-Iterations <==

   -------------------------------------------------------
    Irrep   Nso     Nmo     Nalpha   Nbeta   Ndocc  Nsocc
   -------------------------------------------------------
     A        782     782       0       0       0       0
   -------------------------------------------------------
    Total     782     782      33      33      33       0
   -------------------------------------------------------

  ==> Integral Setup <==

  ==> DFJK: Density-Fitted J/K Matrices <==

    J tasked:                  Yes
    K tasked:                  Yes
    wK tasked:                  No
    OpenMP threads:             12
    Integrals threads:          12
    Memory (MB):             42915
    Algorithm:                Core
    Integral Cache:           NONE
    Schwarz Cutoff:          1E-12
    Fitting Condition:       1E-12

   => Auxiliary Basis Set <=

  Basis Set: 
    Number of shells: 492
    Number of basis function: 1660
    Number of Cartesian functions: 2038
    Spherical Harmonics?: true
    Max angular momentum: 4

  Minimum eigenvalue in the overlap matrix is 2.0472953983E-06.
  Using Symmetric Orthogonalization.
  SCF Guess: Reading in previously saved MOs, projecting if necessary.

  Using orbitals from previous SCF, no projection.
  Recomputing DOCC and SOCC from number of alpha and beta electrons from previous calculation.
              A 
    DOCC [    33 ]

  ==> Iterations <==

                           Total Energy        Delta E     RMS |[F,P]|

   @DF-RHF iter   0:  -313.53625896328930   -3.13536e+02   2.63829e-07 
   @DF-RHF iter   1:  -313.53622495540532    3.40079e-05   5.17051e-08 
   @DF-RHF iter   2:  -313.53622495691405   -1.50874e-09   2.01542e-08 DIIS
   @DF-RHF iter   3:  -313.53622495712585   -2.11799e-10   9.04039e-09 DIIS
   @DF-RHF iter   4:  -313.53622495716860   -4.27463e-11   1.03785e-09 DIIS
   @DF-RHF iter   5:  -313.53622495716962   -1.02318e-12   3.04773e-10 DIIS
   @DF-RHF iter   6:  -313.53622495717019   -5.68434e-13   8.31433e-11 DIIS

  ==> Post-Iterations <==

    Orbital Energies (a.u.)
    -----------------------

    Doubly Occupied:                                                      

       1A    -11.212251     2A    -11.212025     3A    -11.210824  
       4A    -11.210453     5A    -11.209812     6A    -11.209200  
       7A    -11.207162     8A    -11.206623     9A     -1.093671  
      10A     -1.058438    11A     -1.006206    12A     -0.948681  
      13A     -0.888008    14A     -0.835059    15A     -0.787159  
      16A     -0.746973    17A     -0.646728    18A     -0.633307  
      19A     -0.617539    20A     -0.583330    21A     -0.578671  
      22A     -0.562762    23A     -0.539816    24A     -0.529671  
      25A     -0.521151    26A     -0.500071    27A     -0.493920  
      28A     -0.478200    29A     -0.463748    30A     -0.460797  
      31A     -0.443465    32A     -0.435555    33A     -0.431747  

    Virtual:                                                              

      34A      0.029463    35A      0.032607    36A      0.033919  
      37A      0.035019    38A      0.046845    39A      0.048372  
      40A      0.049601    41A      0.053795    42A      0.054452  
      43A      0.067076    44A      0.068662    45A      0.072393  
      46A      0.074558    47A      0.076509    48A      0.085120  
      49A      0.092076    50A      0.095449    51A      0.096906  
      52A      0.113057    53A      0.115988    54A      0.119611  
      55A      0.124742    56A      0.127156    57A      0.131708  
      58A      0.135286    59A      0.138903    60A      0.140218  
      61A      0.146564    62A      0.148595    63A      0.150808  
      64A      0.153214    65A      0.157133    66A      0.160530  
      67A      0.166444    68A      0.170186    69A      0.170587  
      70A      0.173514    71A      0.179753    72A      0.182261  
      73A      0.187468    74A      0.189923    75A      0.195307  
      76A      0.203267    77A      0.212115    78A      0.220238  
      79A      0.224973    80A      0.229471    81A      0.250144  
      82A      0.251326    83A      0.257499    84A      0.259383  
      85A      0.266042    86A      0.276418    87A      0.278388  
      88A      0.278781    89A      0.283470    90A      0.290353  
      91A      0.294858    92A      0.300836    93A      0.309559  
      94A      0.313610    95A      0.319182    96A      0.326552  
      97A      0.328859    98A      0.330690    99A      0.336670  
     100A      0.338845   101A      0.342765   102A      0.344977  
     103A      0.349530   104A      0.352488   105A      0.355174  
     106A      0.357651   107A      0.362662   108A      0.365655  
     109A      0.370100   110A      0.376120   111A      0.377547  
     112A      0.382842   113A      0.382962   114A      0.390961  
     115A      0.392677   116A      0.395057   117A      0.398791  
     118A      0.405103   119A      0.411987   120A      0.415195  
     121A      0.419861   122A      0.424501   123A      0.427057  
     124A      0.431044   125A      0.434558   126A      0.437953  
     127A      0.439499   128A      0.446778   129A      0.448535  
     130A      0.457222   131A      0.460831   132A      0.465469  
     133A      0.467465   134A      0.469923   135A      0.471913  
     136A      0.476107   137A      0.477802   138A      0.479408  
     139A      0.485554   140A      0.488427   141A      0.494847  
     142A      0.500786   143A      0.503757   144A      0.506666  
     145A      0.508262   146A      0.512558   147A      0.513950  
     148A      0.520271   149A      0.525217   150A      0.529571  
     151A      0.537557   152A      0.540134   153A      0.547600  
     154A      0.549344   155A      0.551072   156A      0.560580  
     157A      0.562166   158A      0.567354   159A      0.572429  
     160A      0.575098   161A      0.580651   162A      0.582712  
     163A      0.590489   164A      0.594244   165A      0.597268  
     166A      0.603435   167A      0.605808   168A      0.607339  
     169A      0.615999   170A      0.619092   171A      0.627781  
     172A      0.629560   173A      0.635069   174A      0.639208  
     175A      0.641455   176A      0.652282   177A      0.654156  
     178A      0.658577   179A      0.663673   180A      0.667608  
     181A      0.670441   182A      0.678654   183A      0.683662  
     184A      0.692971   185A      0.696344   186A      0.704734  
     187A      0.707482   188A      0.717488   189A      0.723354  
     190A      0.729268   191A      0.730775   192A      0.739470  
     193A      0.740913   194A      0.747864   195A      0.753454  
     196A      0.758966   197A      0.773563   198A      0.777445  
     199A      0.787666   200A      0.789368   201A      0.802753  
     202A      0.806319   203A      0.818263   204A      0.831706  
     205A      0.838378   206A      0.845531   207A      0.850301  
     208A      0.851758   209A      0.858746   210A      0.866561  
     211A      0.870555   212A      0.874811   213A      0.877221  
     214A      0.881932   215A      0.889476   216A      0.892360  
     217A      0.895329   218A      0.902797   219A      0.906600  
     220A      0.915011   221A      0.918149   222A      0.927388  
     223A      0.930520   224A      0.935777   225A      0.935954  
     226A      0.945112   227A      0.949570   228A      0.950947  
     229A      0.959145   230A      0.965777   231A      0.969556  
     232A      0.975361   233A      0.980750   234A      0.983034  
     235A      0.988717   236A      0.995793   237A      0.999576  
     238A      1.003918   239A      1.008846   240A      1.014128  
     241A      1.018662   242A      1.024025   243A      1.026283  
     244A      1.031332   245A      1.036837   246A      1.039779  
     247A      1.053317   248A      1.058595   249A      1.064714  
     250A      1.067351   251A      1.073610   252A      1.079462  
     253A      1.083254   254A      1.090253   255A      1.097287  
     256A      1.098884   257A      1.101096   258A      1.105659  
     259A      1.115121   260A      1.123599   261A      1.132015  
     262A      1.132644   263A      1.136561   264A      1.140868  
     265A      1.144224   266A      1.150011   267A      1.155979  
     268A      1.156794   269A      1.160640   270A      1.176902  
     271A      1.178574   272A      1.182552   273A      1.189286  
     274A      1.195284   275A      1.198920   276A      1.204340  
     277A      1.210107   278A      1.213558   279A      1.224565  
     280A      1.233108   281A      1.240050   282A      1.243698  
     283A      1.246091   284A      1.253540   285A      1.258648  
     286A      1.261838   287A      1.264885   288A      1.272143  
[...]
		Projected    :         0.0000000000
		Actual       :         0.0000000038

	Performing BFGS update.
	Previous computed or guess Hessian on step 1.
	Denominators (dg)(dq) or (dq)(dq) are very small.
	 Skipping Hessian update for step 14.
	Denominators (dg)(dq) or (dq)(dq) are very small.
	 Skipping Hessian update for step 13.
	Denominators (dg)(dq) or (dq)(dq) are very small.
	 Skipping Hessian update for step 12.
	Denominators (dg)(dq) or (dq)(dq) are very small.
	 Skipping Hessian update for step 11.
	Denominators (dg)(dq) or (dq)(dq) are very small.
	 Skipping Hessian update for step 10.
	Denominators (dg)(dq) or (dq)(dq) are very small.
	 Skipping Hessian update for step 9.
	Denominators (dg)(dq) or (dq)(dq) are very small.
	 Skipping Hessian update for step 8.
	Denominators (dg)(dq) or (dq)(dq) are very small.
	 Skipping Hessian update for step 7.
	Denominators (dg)(dq) or (dq)(dq) are very small.
	 Skipping Hessian update for step 6.
	Denominators (dg)(dq) or (dq)(dq) are very small.
	 Skipping Hessian update for step 5.
	Denominators (dg)(dq) or (dq)(dq) are very small.
	 Skipping Hessian update for step 4.
	Denominators (dg)(dq) or (dq)(dq) are very small.
	 Skipping Hessian update for step 3.
	Denominators (dg)(dq) or (dq)(dq) are very small.
	 Skipping Hessian update for step 2.
	Steps to be used in Hessian update: 1
	Taking RFO optimization step.
	Going to follow RFO solution 1.
	Rejecting RFO root 1 because normalization gives large value.
	Rejecting RFO root 2 because normalization gives large value.
	Rejecting RFO root 3 because normalization gives large value.
	Rejecting RFO root 4 because normalization gives large value.
	Using RFO vector 5.
	Norm of target step-size    0.00001
	Projected energy change by RFO approximation:        -0.0000000000

	Back-transformation to cartesian coordinates...
	Successfully converged to displaced geometry.

	--- Internal Coordinate Step in ANG or DEG, aJ/ANG or AJ/DEG ---
	 ---------------------------------------------------------------------------
	   Coordinate                Previous        Force       Change         New 
	   ----------                --------       ------       ------       ------
	    1 R(1,2)          =      1.089941     0.000007     0.000000     1.089941
	    2 R(1,3)          =      1.091546     0.000007     0.000000     1.091546
	    3 R(1,4)          =      1.089729     0.000006     0.000000     1.089729
	    4 R(1,9)          =      1.524495     0.000000    -0.000000     1.524495
	    5 R(5,6)          =      1.089724     0.000004    -0.000000     1.089724
	    6 R(5,7)          =      1.090934     0.000004     0.000000     1.090934
	    7 R(5,8)          =      1.090683     0.000004    -0.000000     1.090683
	    8 R(5,12)         =      1.524315     0.000001    -0.000000     1.524315
	    9 R(9,10)         =      1.092269     0.000008    -0.000001     1.092269
	   10 R(9,11)         =      1.092327     0.000006     0.000000     1.092327
	   11 R(9,15)         =      1.528663     0.000001     0.000000     1.528663
	   12 R(12,13)        =      1.093945     0.000005    -0.000001     1.093944
	   13 R(12,14)        =      1.090835     0.000005    -0.000001     1.090835
	   14 R(12,24)        =      1.525168     0.000005     0.000000     1.525168
	   15 R(15,16)        =      1.090129     0.000012     0.000000     1.090129
	   16 R(15,17)        =      1.094462     0.000005     0.000000     1.094463
	   17 R(15,18)        =      1.533011     0.000001     0.000000     1.533011
	   18 R(18,19)        =      1.094651     0.000005    -0.000000     1.094651
	   19 R(18,20)        =      1.092348     0.000008     0.000000     1.092348
	   20 R(18,21)        =      1.533215    -0.000000     0.000000     1.533215
	   21 R(21,22)        =      1.093413     0.000009    -0.000000     1.093413
	   22 R(21,23)        =      1.092912     0.000004     0.000000     1.092912
	   23 R(21,24)        =      1.528230     0.000000     0.000000     1.528230
	   24 R(24,25)        =      1.094681     0.000007     0.000000     1.094682
	   25 R(24,26)        =      1.095088     0.000006    -0.000000     1.095087
	   26 B(1,9,10)       =    109.576575    -0.000000     0.000001   109.576576
	   27 B(1,9,11)       =    109.358693    -0.000000    -0.000003   109.358690
	   28 B(1,9,15)       =    113.319938     0.000000     0.000002   113.319940
	   29 B(2,1,3)        =    107.726585    -0.000000    -0.000003   107.726582
	   30 B(2,1,4)        =    107.651862     0.000000     0.000001   107.651863
	   31 B(2,1,9)        =    111.477087     0.000000    -0.000005   111.477082
	   32 B(3,1,4)        =    107.908512     0.000000    -0.000000   107.908512
	   33 B(3,1,9)        =    110.739211     0.000000     0.000004   110.739216
	   34 B(4,1,9)        =    111.174938    -0.000000     0.000003   111.174940
	   35 B(5,12,13)      =    109.839631    -0.000000    -0.000002   109.839629
	   36 B(5,12,14)      =    109.179479    -0.000000    -0.000009   109.179469
	   37 B(5,12,24)      =    111.693070     0.000000     0.000009   111.693079
	   38 B(6,5,7)        =    107.905610    -0.000000     0.000001   107.905611
	   39 B(6,5,8)        =    108.007054     0.000000     0.000001   108.007055
	   40 B(6,5,12)       =    111.710396     0.000000    -0.000000   111.710396
	   41 B(7,5,8)        =    107.679925    -0.000000     0.000002   107.679927
	   42 B(7,5,12)       =    110.641503     0.000000     0.000001   110.641504
	   43 B(8,5,12)       =    110.745291    -0.000000    -0.000004   110.745287
	   44 B(9,15,16)      =    108.831696     0.000000     0.000003   108.831699
	   45 B(9,15,17)      =    108.383522     0.000000    -0.000006   108.383516
	   46 B(9,15,18)      =    114.602233    -0.000000     0.000012   114.602245
	   47 B(10,9,11)      =    105.963339     0.000000     0.000002   105.963341
	   48 B(10,9,15)      =    109.996936    -0.000000    -0.000004   109.996931
	   49 B(11,9,15)      =    108.353197    -0.000000     0.000003   108.353199
	   50 B(12,24,21)     =    115.751305     0.000000     0.000008   115.751314
	   51 B(12,24,25)     =    108.275122    -0.000000    -0.000009   108.275113
	   52 B(12,24,26)     =    108.819615    -0.000000     0.000005   108.819620
	   53 B(13,12,14)     =    106.711731    -0.000000     0.000004   106.711735
	   54 B(13,12,24)     =    109.431079     0.000000    -0.000004   109.431075
	   55 B(14,12,24)     =    109.858723     0.000000     0.000003   109.858726
	   56 B(15,18,19)     =    108.904814     0.000000    -0.000014   108.904800
	   57 B(15,18,20)     =    107.889870     0.000000     0.000006   107.889876
	   58 B(15,18,21)     =    116.412153    -0.000000     0.000020   116.412172
	   59 B(16,15,17)     =    106.297777     0.000000     0.000002   106.297779
	   60 B(16,15,18)     =    110.559140     0.000000    -0.000004   110.559136
	   61 B(17,15,18)     =    107.816427    -0.000000    -0.000006   107.816421
	   62 B(18,21,22)     =    110.026764     0.000000     0.000009   110.026773
	   63 B(18,21,23)     =    108.231653     0.000000    -0.000013   108.231640
	   64 B(18,21,24)     =    115.498918    -0.000000     0.000011   115.498928
	   65 B(19,18,20)     =    105.730318     0.000000    -0.000007   105.730311
	   66 B(19,18,21)     =    108.839484    -0.000000    -0.000013   108.839471
	   67 B(20,18,21)     =    108.544244     0.000000     0.000006   108.544250
	   68 B(21,24,25)     =    108.366943     0.000000     0.000002   108.366945
	   69 B(21,24,26)     =    109.020774    -0.000000    -0.000005   109.020769
	   70 B(22,21,23)     =    105.833730    -0.000000    -0.000001   105.833729
	   71 B(22,21,24)     =    109.205626     0.000000    -0.000001   109.205626
	   72 B(23,21,24)     =    107.575268    -0.000000    -0.000006   107.575262
	   73 B(25,24,26)     =    106.189319     0.000000    -0.000001   106.189318
	   74 D(1,9,15,16)    =   -178.947157     0.000000    -0.000055  -178.947213
	   75 D(1,9,15,17)    =     65.852306    -0.000000    -0.000055    65.852250
	   76 D(1,9,15,18)    =    -54.597652     0.000000    -0.000050   -54.597702
	   77 D(2,1,9,10)     =    -57.607423     0.000000    -0.000070   -57.607493
	   78 D(2,1,9,11)     =   -173.350361     0.000000    -0.000071  -173.350432
	   79 D(2,1,9,15)     =     65.659503     0.000000    -0.000074    65.659429
	   80 D(3,1,9,10)     =   -177.530990    -0.000000    -0.000066  -177.531057
	   81 D(3,1,9,11)     =     66.726072    -0.000000    -0.000067    66.726005
	   82 D(3,1,9,15)     =    -54.264064    -0.000000    -0.000070   -54.264134
	   83 D(4,1,9,10)     =     62.515974     0.000000    -0.000071    62.515904
	   84 D(4,1,9,11)     =    -53.226963    -0.000000    -0.000072   -53.227035
	   85 D(4,1,9,15)     =   -174.217099     0.000000    -0.000075  -174.217174
	   86 D(5,12,24,21)   =    170.902678     0.000000     0.000120   170.902798
	   87 D(5,12,24,25)   =     49.050828     0.000000     0.000119    49.050946
	   88 D(5,12,24,26)   =    -65.957739     0.000000     0.000122   -65.957616
	   89 D(6,5,12,13)    =    -59.616463     0.000000    -0.000008   -59.616471
	   90 D(6,5,12,14)    =     57.073776    -0.000000    -0.000010    57.073766
	   91 D(6,5,12,24)    =    178.772412    -0.000000    -0.000007   178.772406
	   92 D(7,5,12,13)    =   -179.855724     0.000000    -0.000010  -179.855734
	   93 D(7,5,12,14)    =    -63.165485    -0.000000    -0.000012   -63.165497
	   94 D(7,5,12,24)    =     58.533152    -0.000000    -0.000009    58.533143
	   95 D(8,5,12,13)    =     60.822278     0.000000    -0.000010    60.822268
	   96 D(8,5,12,14)    =    177.512517    -0.000000    -0.000012   177.512505
	   97 D(8,5,12,24)    =    -60.788847    -0.000000    -0.000009   -60.788856
	   98 D(9,15,18,19)   =   -178.317345     0.000000     0.000083  -178.317262
	   99 D(9,15,18,20)   =     67.372507    -0.000000     0.000095    67.372602
	  100 D(9,15,18,21)   =    -54.867580    -0.000000     0.000069   -54.867511
	  101 D(10,9,15,16)   =    -55.911765     0.000000    -0.000056   -55.911821
	  102 D(10,9,15,17)   =   -171.112302    -0.000000    -0.000057  -171.112358
	  103 D(10,9,15,18)   =     68.437741     0.000000    -0.000051    68.437689
	  104 D(11,9,15,16)   =     59.497308     0.000000    -0.000055    59.497253
	  105 D(11,9,15,17)   =    -55.703229    -0.000000    -0.000055   -55.703284
	  106 D(11,9,15,18)   =   -176.153186     0.000000    -0.000050  -176.153237
	  107 D(12,24,21,18)  =     62.852297    -0.000000     0.000126    62.852422
	  108 D(12,24,21,22)  =    -61.753218    -0.000000     0.000106   -61.753112
	  109 D(12,24,21,23)  =   -176.172510    -0.000000     0.000111  -176.172399
	  110 D(13,12,24,21)  =     49.055810     0.000000     0.000119    49.055929
	  111 D(13,12,24,25)  =    -72.796040     0.000000     0.000118   -72.795922
	  112 D(13,12,24,26)  =    172.195393     0.000000     0.000122   172.195515
	  113 D(14,12,24,21)  =    -67.791585     0.000000     0.000116   -67.791469
	  114 D(14,12,24,25)  =    170.356565    -0.000000     0.000115   170.356679
	  115 D(14,12,24,26)  =     55.347998     0.000000     0.000118    55.348117
	  116 D(15,18,21,22)  =     38.861051     0.000000     0.000013    38.861064
	  117 D(15,18,21,23)  =    154.063651     0.000000     0.000009   154.063660
	  118 D(15,18,21,24)  =    -85.316914    -0.000000    -0.000001   -85.316915
	  119 D(16,15,18,19)  =    -54.888480     0.000000     0.000092   -54.888387
	  120 D(16,15,18,20)  =   -169.198627     0.000000     0.000104  -169.198524
	  121 D(16,15,18,21)  =     68.561286     0.000000     0.000078    68.561364
	  122 D(17,15,18,19)  =     60.919360     0.000000     0.000088    60.919449
	  123 D(17,15,18,20)  =    -53.390787     0.000000     0.000100   -53.390688
	  124 D(17,15,18,21)  =   -175.630874     0.000000     0.000074  -175.630800
	  125 D(18,21,24,25)  =   -175.344838    -0.000000     0.000121  -175.344717
	  126 D(18,21,24,26)  =    -60.181461    -0.000000     0.000118   -60.181344
	  127 D(19,18,21,22)  =    162.344599    -0.000000    -0.000001   162.344597
	  128 D(19,18,21,23)  =    -82.452801     0.000000    -0.000005   -82.452807
	  129 D(19,18,21,24)  =     38.166634    -0.000000    -0.000016    38.166618
	  130 D(20,18,21,22)  =    -83.035292     0.000000    -0.000013   -83.035304
	  131 D(20,18,21,23)  =     32.167309     0.000000    -0.000017    32.167292
	  132 D(20,18,21,24)  =    152.786744    -0.000000    -0.000027   152.786716
	  133 D(22,21,24,25)  =     60.049647    -0.000000     0.000101    60.049749
	  134 D(22,21,24,26)  =    175.213023    -0.000000     0.000098   175.213122
	  135 D(23,21,24,25)  =    -54.369645    -0.000000     0.000106   -54.369538
	  136 D(23,21,24,26)  =     60.793732    -0.000000     0.000103    60.793835
	  137 R(1,21)         =      3.595704     0.000001     0.000000     3.595705
	  138 R(12,15)        =      3.361797     0.000002     0.000002     3.361799
	 ---------------------------------------------------------------------------

  ==> Convergence Check <==

  Measures of convergence in internal coordinates in au.
  Criteria marked as inactive (o), active & met (*), and active & unmet ( ).
  ---------------------------------------------------------------------------------------------
   Step     Total Energy     Delta E     MAX Force     RMS Force      MAX Disp      RMS Disp   
  ---------------------------------------------------------------------------------------------
    Convergence Criteria             o    2.00e-06 *    1.00e-06 *    6.00e-06 *    4.00e-06 *
  ---------------------------------------------------------------------------------------------
     15    -314.97997561    3.80e-09 o    1.43e-06 *    2.98e-07 *    4.08e-06 *    1.01e-06 *  ~
  ---------------------------------------------------------------------------------------------


  **** Optimization is complete! (in 15 steps) ****

  ==> Optimization Summary <==

  Measures of convergence in internal coordinates in au.
  --------------------------------------------------------------------------------------------------------------- ~
   Step         Total Energy             Delta E       MAX Force       RMS Force        MAX Disp        RMS Disp  ~
  --------------------------------------------------------------------------------------------------------------- ~
      1    -314.979975609155   -314.979975609155      0.00000126      0.00000023      0.00007100      0.00002789  ~
      2    -314.979975608714      0.000000000441      0.00000335      0.00000083      0.00004693      0.00001681  ~
      3    -314.979975609615     -0.000000000901      0.00000088      0.00000023      0.00003080      0.00000978  ~
      4    -314.979975605553      0.000000004062      0.00000115      0.00000022      0.00002245      0.00000869  ~
      5    -314.979975609523     -0.000000003970      0.00000066      0.00000016      0.00003859      0.00001516  ~
      6    -314.979975605230      0.000000004293      0.00000105      0.00000023      0.00019317      0.00006299  ~
      7    -314.979975609089     -0.000000003859      0.00000298      0.00000070      0.00013368      0.00004735  ~
      8    -314.979975609050      0.000000000039      0.00000216      0.00000055      0.00005741      0.00002210  ~
      9    -314.979975609671     -0.000000000620      0.00000041      0.00000010      0.00006178      0.00001823  ~
     10    -314.979975608896      0.000000000775      0.00000139      0.00000035      0.00006829      0.00002046  ~
     11    -314.979975612035     -0.000000003140      0.00000082      0.00000020      0.00008887      0.00002515  ~
     12    -314.979975606799      0.000000005237      0.00000357      0.00000067      0.00002492      0.00000939  ~
     13    -314.979975609712     -0.000000002914      0.00000134      0.00000032      0.00000614      0.00000218  ~
     14    -314.979975612807     -0.000000003094      0.00000187      0.00000048      0.00000714      0.00000268  ~
     15    -314.979975609004      0.000000003802      0.00000143      0.00000030      0.00000408      0.00000101  ~
  --------------------------------------------------------------------------------------------------------------- ~

	Writing optimization data to binary file.
	Final energy is   -314.9799756090044
	Final (previous) structure:
	Cartesian Geometry (in Angstrom)
	    C    -3.2212808893   0.0165508853  -0.5001630639
	    H    -2.9089864015   1.0605041821  -0.4755822027
	    H    -3.8373045394  -0.1669297367   0.3820626093
	    H    -3.8482063406  -0.1201655858  -1.3809482267
	    C     3.4663270884  -0.5760102515  -0.5703003861
	    H     3.7416439397  -1.6050952711  -0.7998289364
	    H     4.0304319457  -0.2664086415   0.3106471285
	    H     3.7831989777   0.0517541120  -1.4040235560
	    C    -2.0220527324  -0.9243253146  -0.5263998621
	    H    -1.3961614147  -0.6954397012  -1.3918038648
	    H    -2.3695500180  -1.9499264865  -0.6698098355
	    C     1.9683588973  -0.4340737509  -0.3264116215
	    H     1.4157654297  -0.7500848439  -1.2160703682
	    H     1.6717374332  -1.1042218765   0.4815730264
	    C    -1.1852767577  -0.8739388673   0.7519101729
	    H    -0.3417551350  -1.5565369517   0.6474472365
	    H    -1.7920819397  -1.2595735461   1.5770895322
	    C    -0.6992689335   0.5267491520   1.1417714414
	    H    -0.0886116718   0.4510467938   2.0471046343
	    H    -1.5730830247   1.1190297317   1.4226196818
	    C     0.0892655161   1.2963374277   0.0756121176
	    H    -0.3461003559   1.1204351880  -0.9118431593
	    H    -0.0296809775   2.3656283040   0.2677702190
	    C     1.5877272233   1.0005899071   0.0242989196
	    H     2.0458565519   1.6673436651  -0.7131861056
	    H     2.0357851641   1.2590606381   0.9895211690
	Saving final (previous) structure.
			--------------------------
			 OPTKING Finished Execution 
			--------------------------

    Final optimized geometry and variables:
    Molecular point group: c1
    Full point group: C1

    Geometry (in Angstrom), charge = 0, multiplicity = 1:

    C           -3.221280889260     0.016550885256    -0.500163063933
    H           -2.908986401492     1.060504182146    -0.475582202725
    H           -3.837304539429    -0.166929736698     0.382062609303
    H           -3.848206340572    -0.120165585808    -1.380948226747
    C            3.466327088378    -0.576010251512    -0.570300386132
    H            3.741643939687    -1.605095271131    -0.799828936407
    H            4.030431945749    -0.266408641494     0.310647128525
    H            3.783198977749     0.051754112036    -1.404023555968
    C           -2.022052732361    -0.924325314576    -0.526399862130
    H           -1.396161414712    -0.695439701156    -1.391803864769
    H           -2.369550017975    -1.949926486510    -0.669809835517
    C            1.968358897343    -0.434073750932    -0.326411621533
    H            1.415765429670    -0.750084843886    -1.216070368198
    H            1.671737433219    -1.104221876535     0.481573026405
    C           -1.185276757706    -0.873938867307     0.751910172909
    H           -0.341755135008    -1.556536951673     0.647447236536
    H           -1.792081939655    -1.259573546091     1.577089532183
    C           -0.699268933548     0.526749151987     1.141771441365
    H           -0.088611671785     0.451046793808     2.047104634311
    H           -1.573083024671     1.119029731664     1.422619681750
    C            0.089265516071     1.296337427685     0.075612117590
    H           -0.346100355857     1.120435188012    -0.911843159257
    H           -0.029680977478     2.365628304020     0.267770219042
    C            1.587727223283     1.000589907060     0.024298919574
    H            2.045856551944     1.667343665106    -0.713186105611
    H            2.035785164112     1.259060638130     0.989521168953

	Cleaning optimization helper files.

*** Psi4 exiting successfully. Buy a developer a beer!
