    -----------------------------------------------------------------------
          Psi4: An Open-Source Ab Initio Electronic Structure Package
                              Psi4 1.0.0 Driver

                          Git: Rev {master} 6a9a71b dirty

    J. M. Turney, A. C. Simmonett, R. M. Parrish, E. G. Hohenstein,
    F. A. Evangelista, J. T. Fermann, B. J. Mintz, L. A. Burns, J. J. Wilke,
    M. L. Abrams, N. J. Russ, M. L. Leininger, C. L. Janssen, E. T. Seidl,
    W. D. Allen, H. F. Schaefer, R. A. King, E. F. Valeev, C. D. Sherrill,
    and T. D. Crawford, WIREs Comput. Mol. Sci. 2, 556-565 (2012)
    (doi: 10.1002/wcms.93)

                         Additional Contributions by
    A. E. DePrince, U. Bozkaya, A. Yu. Sokolov, D. G. A. Smith, R. Di Remigio,
    R. M. Richard, J. F. Gonthier, H. R. McAlexander, M. Saitow, and
    B. P. Pritchard
    -----------------------------------------------------------------------


    Psi4 started on: Wed Sep 21 04:57:33 2016

    Process ID:   1305
    PSI4DATADIR: /usr/local/hpc5/psi4conda/share/psi4
    Memory level set to 256.000 MB

  ==> Input File <==

--------------------------------------------------------------------------
memory 60 Gb

molecule molecule_43_psi {
0 1
C           -2.881731876606     0.641293575574     0.886628464646
H           -3.942525408702     0.850594393276     1.022869022113
H           -2.324237121913     1.530356972448     1.186885335998
H           -2.615451383989    -0.165277920646     1.568584198578
C            2.288359513470     1.470894422567    -0.467603852775
H            2.274164337141     2.549707363210    -0.312600365130
H            1.629512801980     1.248415653951    -1.306295539981
H            3.301466223721     1.187681013882    -0.758197597058
C           -2.571899518311     0.279184836857    -0.562390246601
H           -2.941846060885     1.072723399112    -1.215482987687
H           -3.114173853427    -0.629322103079    -0.839425782297
C            1.867466235146     0.725293808937     0.793704641381
H            2.521470259543     1.021380168843     1.617292719738
H            0.858475324221     1.023710402940     1.088218545409
C           -1.081642842471     0.073810892378    -0.824300634756
H           -0.543152047971     0.979057149407    -0.533952156620
H           -0.917758533454    -0.052083655035    -1.898635596579
C           -0.501587628048    -1.144189969341    -0.107825679389
H           -1.085833937760    -2.015892908229    -0.416714802637
H           -0.642815775843    -1.049738054542     0.972637074373
C            0.985500951919    -1.397569484658    -0.393115480608
H            1.168606790966    -2.474112814815    -0.415732649884
H            1.232344659985    -1.030277136766    -1.393096038578
C            1.934363237807    -0.793098253411     0.643952081431
H            1.717837924092    -1.254759097644     1.611760793599
H            2.961596590100    -1.073052863732     0.390410588606
}

set globals {
  reference rhf
  g_convergence gau_verytight
  basis aug-cc-pvtz
  freeze_core true
  scf_type df
  mp_type df
}
optimize('mp2')
--------------------------------------------------------------------------
/usr/local/hpc5/psi4conda/lib/python2.7/site-packages/v2rdm_casscf/v2rdm_casscf.so loaded.

  Memory set to  60.000 GiB by Python script.
gradient() will perform analytic gradient computation.

*** tstart() called on wr39
*** at Wed Sep 21 04:57:34 2016


         ---------------------------------------------------------
                                   SCF
            by Justin Turney, Rob Parrish, and Andy Simmonett
                              RHF Reference
                       12 Threads,  60000 MiB Core
         ---------------------------------------------------------

  ==> Geometry <==

    Molecular point group: c1
    Full point group: C1

    Geometry (in Angstrom), charge = 0, multiplicity = 1:

       Center              X                  Y                   Z               Mass       
    ------------   -----------------  -----------------  -----------------  -----------------
           C         -2.881731876606     0.641293575574     0.886628464646    12.000000000000
           H         -3.942525408702     0.850594393276     1.022869022113     1.007825032070
           H         -2.324237121913     1.530356972448     1.186885335998     1.007825032070
           H         -2.615451383989    -0.165277920646     1.568584198578     1.007825032070
           C          2.288359513470     1.470894422567    -0.467603852775    12.000000000000
           H          2.274164337141     2.549707363210    -0.312600365130     1.007825032070
           H          1.629512801980     1.248415653951    -1.306295539981     1.007825032070
           H          3.301466223721     1.187681013882    -0.758197597058     1.007825032070
           C         -2.571899518311     0.279184836857    -0.562390246601    12.000000000000
           H         -2.941846060885     1.072723399112    -1.215482987687     1.007825032070
           H         -3.114173853427    -0.629322103079    -0.839425782297     1.007825032070
           C          1.867466235146     0.725293808937     0.793704641381    12.000000000000
           H          2.521470259543     1.021380168843     1.617292719738     1.007825032070
           H          0.858475324221     1.023710402940     1.088218545409     1.007825032070
           C         -1.081642842471     0.073810892378    -0.824300634756    12.000000000000
           H         -0.543152047971     0.979057149407    -0.533952156620     1.007825032070
           H         -0.917758533454    -0.052083655035    -1.898635596579     1.007825032070
           C         -0.501587628048    -1.144189969341    -0.107825679389    12.000000000000
           H         -1.085833937760    -2.015892908229    -0.416714802637     1.007825032070
           H         -0.642815775843    -1.049738054542     0.972637074373     1.007825032070
           C          0.985500951919    -1.397569484658    -0.393115480608    12.000000000000
           H          1.168606790966    -2.474112814815    -0.415732649884     1.007825032070
           H          1.232344659985    -1.030277136766    -1.393096038578     1.007825032070
           C          1.934363237807    -0.793098253411     0.643952081431    12.000000000000
           H          1.717837924092    -1.254759097644     1.611760793599     1.007825032070
           H          2.961596590100    -1.073052863732     0.390410588606     1.007825032070

  Running in c1 symmetry.

  Rotational constants: A =      0.09424  B =      0.03314  C =      0.02980 [cm^-1]
  Rotational constants: A =   2825.23569  B =    993.48046  C =    893.52477 [MHz]
  Nuclear repulsion =  403.770194594646682

  Charge       = 0
  Multiplicity = 1
  Electrons    = 66
  Nalpha       = 33
  Nbeta        = 33

  ==> Algorithm <==

  SCF Algorithm Type is DF.
  DIIS enabled.
  MOM disabled.
  Fractional occupation disabled.
  Guess Type is SAD.
  Energy threshold   = 1.00e-10
  Density threshold  = 1.00e-10
  Integral threshold = 0.00e+00

  ==> Primary Basis <==

  Basis Set: AUG-CC-PVTZ
    Number of shells: 274
    Number of basis function: 782
    Number of Cartesian functions: 890
    Spherical Harmonics?: true
    Max angular momentum: 3

  ==> Pre-Iterations <==

   -------------------------------------------------------
    Irrep   Nso     Nmo     Nalpha   Nbeta   Ndocc  Nsocc
   -------------------------------------------------------
     A        782     782       0       0       0       0
   -------------------------------------------------------
    Total     782     782      33      33      33       0
   -------------------------------------------------------

  ==> Integral Setup <==

  ==> DFJK: Density-Fitted J/K Matrices <==

    J tasked:                  Yes
    K tasked:                  Yes
    wK tasked:                  No
    OpenMP threads:             12
    Integrals threads:          12
    Memory (MB):             42915
    Algorithm:                Core
    Integral Cache:           NONE
    Schwarz Cutoff:          1E-12
    Fitting Condition:       1E-12

   => Auxiliary Basis Set <=

  Basis Set: 
    Number of shells: 492
    Number of basis function: 1660
    Number of Cartesian functions: 2038
    Spherical Harmonics?: true
    Max angular momentum: 4

  Minimum eigenvalue in the overlap matrix is 1.2843720461E-06.
  Using Symmetric Orthogonalization.
  SCF Guess: Superposition of Atomic Densities via on-the-fly atomic UHF.

  ==> Iterations <==

                           Total Energy        Delta E     RMS |[F,P]|

   @DF-RHF iter   0:  -317.12629210621208   -3.17126e+02   7.08528e-03 
   @DF-RHF iter   1:  -313.31109923610654    3.81519e+00   6.81228e-04 
   @DF-RHF iter   2:  -313.50707104473850   -1.95972e-01   2.50132e-04 DIIS
   @DF-RHF iter   3:  -313.53161724249321   -2.45462e-02   1.00938e-04 DIIS
   @DF-RHF iter   4:  -313.53644791226270   -4.83067e-03   1.51901e-05 DIIS
   @DF-RHF iter   5:  -313.53660349477536   -1.55583e-04   4.57603e-06 DIIS
   @DF-RHF iter   6:  -313.53661442383770   -1.09291e-05   1.30814e-06 DIIS
   @DF-RHF iter   7:  -313.53661535632875   -9.32491e-07   2.30107e-07 DIIS
   @DF-RHF iter   8:  -313.53661539398081   -3.76521e-08   6.11883e-08 DIIS
   @DF-RHF iter   9:  -313.53661539629070   -2.30989e-09   1.76517e-08 DIIS
   @DF-RHF iter  10:  -313.53661539649636   -2.05659e-10   5.14104e-09 DIIS
   @DF-RHF iter  11:  -313.53661539651341   -1.70530e-11   1.25173e-09 DIIS
   @DF-RHF iter  12:  -313.53661539651421   -7.95808e-13   3.08648e-10 DIIS
   @DF-RHF iter  13:  -313.53661539651466   -4.54747e-13   8.97868e-11 DIIS

  ==> Post-Iterations <==

    Orbital Energies (a.u.)
    -----------------------

    Doubly Occupied:                                                      

       1A    -11.212739     2A    -11.212219     3A    -11.210895  
       4A    -11.210292     5A    -11.209793     6A    -11.209431  
       7A    -11.206969     8A    -11.206318     9A     -1.094039  
      10A     -1.059226    11A     -1.006072    12A     -0.947847  
      13A     -0.887458    14A     -0.836499    15A     -0.779091  
      16A     -0.756932    17A     -0.649135    18A     -0.624355  
      19A     -0.609367    20A     -0.605155    21A     -0.572894  
      22A     -0.552834    23A     -0.548574    24A     -0.536633  
      25A     -0.513271    26A     -0.503427    27A     -0.488003  
      28A     -0.475967    29A     -0.465376    30A     -0.459689  
      31A     -0.445280    32A     -0.439006    33A     -0.431270  

    Virtual:                                                              

      34A      0.028923    35A      0.033166    36A      0.034175  
      37A      0.034745    38A      0.046768    39A      0.048616  
      40A      0.049263    41A      0.053190    42A      0.055819  
      43A      0.068503    44A      0.068800    45A      0.072317  
      46A      0.073852    47A      0.077355    48A      0.081378  
      49A      0.095492    50A      0.098218    51A      0.099882  
      52A      0.116177    53A      0.117910    54A      0.120254  
      55A      0.122400    56A      0.128170    57A      0.132164  
      58A      0.135017    59A      0.138795    60A      0.141435  
      61A      0.142608    62A      0.146287    63A      0.147143  
      64A      0.155040    65A      0.156026    66A      0.162997  
      67A      0.164392    68A      0.166876    69A      0.170490  
      70A      0.176538    71A      0.181712    72A      0.183301  
      73A      0.186370    74A      0.192169    75A      0.196934  
      76A      0.198227    77A      0.204611    78A      0.217481  
      79A      0.222989    80A      0.230027    81A      0.233437  
      82A      0.242651    83A      0.253939    84A      0.265852  
      85A      0.269857    86A      0.270791    87A      0.283412  
      88A      0.284720    89A      0.295616    90A      0.297636  
      91A      0.304511    92A      0.306214    93A      0.312341  
      94A      0.315846    95A      0.319286    96A      0.323598  
      97A      0.326312    98A      0.327388    99A      0.336456  
     100A      0.340327   101A      0.342066   102A      0.345867  
     103A      0.348038   104A      0.350989   105A      0.354859  
     106A      0.359973   107A      0.362956   108A      0.368020  
     109A      0.370643   110A      0.375112   111A      0.378159  
     112A      0.381286   113A      0.383747   114A      0.388857  
     115A      0.389384   116A      0.394178   117A      0.401331  
     118A      0.403995   119A      0.405878   120A      0.411036  
     121A      0.420237   122A      0.422341   123A      0.429531  
     124A      0.435142   125A      0.436785   126A      0.442882  
     127A      0.443664   128A      0.448042   129A      0.451771  
     130A      0.454553   131A      0.457637   132A      0.459762  
     133A      0.468280   134A      0.468487   135A      0.472831  
     136A      0.477851   137A      0.481665   138A      0.485551  
     139A      0.489828   140A      0.492267   141A      0.495303  
     142A      0.499556   143A      0.507416   144A      0.510040  
     145A      0.513794   146A      0.517529   147A      0.521275  
     148A      0.523247   149A      0.525338   150A      0.529273  
     151A      0.534859   152A      0.538818   153A      0.540523  
     154A      0.556428   155A      0.558212   156A      0.559957  
     157A      0.563072   158A      0.567510   159A      0.574069  
     160A      0.576008   161A      0.581425   162A      0.584157  
     163A      0.590853   164A      0.592547   165A      0.599168  
     166A      0.604895   167A      0.611702   168A      0.617026  
     169A      0.624186   170A      0.627789   171A      0.628427  
     172A      0.634276   173A      0.641138   174A      0.643413  
     175A      0.648689   176A      0.654437   177A      0.663005  
     178A      0.664124   179A      0.668299   180A      0.671131  
     181A      0.676499   182A      0.686698   183A      0.689291  
     184A      0.692240   185A      0.696480   186A      0.702364  
     187A      0.708433   188A      0.713330   189A      0.715457  
     190A      0.721114   191A      0.728135   192A      0.736209  
     193A      0.744520   194A      0.748528   195A      0.751254  
     196A      0.756068   197A      0.768104   198A      0.769989  
     199A      0.778029   200A      0.792018   201A      0.794669  
     202A      0.806692   203A      0.816103   204A      0.825326  
     205A      0.831904   206A      0.837674   207A      0.842107  
     208A      0.854031   209A      0.858565   210A      0.868015  
     211A      0.870078   212A      0.876009   213A      0.881290  
     214A      0.884867   215A      0.888832   216A      0.895516  
     217A      0.902144   218A      0.911980   219A      0.914839  
     220A      0.918428   221A      0.927605   222A      0.928903  
     223A      0.932116   224A      0.938244   225A      0.946827  
     226A      0.948931   227A      0.955855   228A      0.960759  
     229A      0.961785   230A      0.968277   231A      0.973382  
     232A      0.977083   233A      0.980259   234A      0.985032  
     235A      0.988854   236A      0.992445   237A      1.004191  
     238A      1.012389   239A      1.014581   240A      1.019466  
     241A      1.020595   242A      1.026252   243A      1.030312  
     244A      1.037962   245A      1.040886   246A      1.051256  
     247A      1.055099   248A      1.067533   249A      1.071282  
     250A      1.074818   251A      1.076919   252A      1.079382  
     253A      1.089384   254A      1.092070   255A      1.099661  
     256A      1.104461   257A      1.111526   258A      1.117310  
     259A      1.118553   260A      1.124985   261A      1.133761  
     262A      1.137644   263A      1.142022   264A      1.150555  
     265A      1.155997   266A      1.158296   267A      1.162032  
     268A      1.169790   269A      1.181694   270A      1.184475  
     271A      1.187348   272A      1.195366   273A      1.197230  
     274A      1.200104   275A      1.205364   276A      1.213845  
     277A      1.221150   278A      1.223332   279A      1.226271  
     280A      1.229650   281A      1.233168   282A      1.238260  
     283A      1.247369   284A      1.253400   285A      1.257815  
     286A      1.268720   287A      1.271920   288A      1.276428  
     289A      1.282007   290A      1.286751   291A      1.294902  
     292A      1.298138   293A      1.301804   294A      1.311232  
     295A      1.318663   296A      1.325999   297A      1.327540  
     298A      1.334445   299A      1.341534   300A      1.349745  
     301A      1.351378   302A      1.359316   303A      1.367837  
     304A      1.373177   305A      1.382374   306A      1.384694  
     307A      1.393401   308A      1.395246   309A      1.411623  
     310A      1.415042   311A      1.423003   312A      1.431853  
     313A      1.435262   314A      1.444775   315A      1.452156  
     316A      1.456873   317A      1.462858   318A      1.473506  
     319A      1.479511   320A      1.490169   321A      1.497765  
     322A      1.503246   323A      1.510304   324A      1.515471  
     325A      1.519215   326A      1.525965   327A      1.533500  
     328A      1.541562   329A      1.545082   330A      1.551234  
     331A      1.555351   332A      1.562460   333A      1.569908  
     334A      1.575075   335A      1.587966   336A      1.593147  
     337A      1.602541   338A      1.609548   339A      1.626449  
     340A      1.632572   341A      1.634968   342A      1.646316  
     343A      1.651365   344A      1.655608   345A      1.665679  
     346A      1.668976   347A      1.677725   348A      1.684847  
     349A      1.688664   350A      1.695846   351A      1.699754  
     352A      1.703943   353A      1.713301   354A      1.719543  
     355A      1.722637   356A      1.726675   357A      1.735707  
     358A      1.743031   359A      1.755680   360A      1.760562  
     361A      1.762676   362A      1.771020   363A      1.783229  
     364A      1.787335   365A      1.796179   366A      1.796849  
     367A      1.800928   368A      1.810827   369A      1.812216  
     370A      1.822576   371A      1.832179   372A      1.836331  
     373A      1.840409   374A      1.847591   375A      1.848349  
     376A      1.856220   377A      1.859631   378A      1.866944  
     379A      1.873076   380A      1.877529   381A      1.879889  
     382A      1.884656   383A      1.890485   384A      1.898728  
     385A      1.908589   386A      1.913031   387A      1.916271  
     388A      1.921848   389A      1.932603   390A      1.950216  
     391A      1.953281   392A      1.957186   393A      1.970772  
     394A      1.973936   395A      1.982669   396A      1.986910  
     397A      1.992667   398A      2.002640   399A      2.010313  
     400A      2.016392   401A      2.025250   402A      2.033870  
     403A      2.039432   404A      2.043296   405A      2.047094  
     406A      2.054434   407A      2.061293   408A      2.065926  
     409A      2.071434   410A      2.078052   411A      2.081970  
     412A      2.094717   413A      2.100400   414A      2.112063  
     415A      2.117551   416A      2.121582   417A      2.132513  
     418A      2.137297   419A      2.148871   420A      2.153429  
     421A      2.160843   422A      2.168139   423A      2.181154  
     424A      2.185196   425A      2.199747   426A      2.207307  
     427A      2.214965   428A      2.233707   429A      2.239796  
     430A      2.251056   431A      2.254610   432A      2.264830  
     433A      2.268825   434A      2.278570   435A      2.289614  
     436A      2.291212   437A      2.304779   438A      2.320558  
     439A      2.328789   440A      2.338481   441A      2.342878  
     442A      2.348577   443A      2.351399   444A      2.375835  
     445A      2.382615   446A      2.385440   447A      2.391590  
     448A      2.398729   449A      2.402535   450A      2.415847  
     451A      2.416257   452A      2.431780   453A      2.436905  
     454A      2.441199   455A      2.448984   456A      2.464817  
     457A      2.485585   458A      2.489019   459A      2.499049  
     460A      2.511544   461A      2.524182   462A      2.529062  
     463A      2.539303   464A      2.554171   465A      2.557626  
     466A      2.565206   467A      2.589824   468A      2.599442  
     469A      2.600294   470A      2.622323   471A      2.632218  
     472A      2.642139   473A      2.655695   474A      2.670920  
     475A      2.689133   476A      2.702781   477A      2.713036  
     478A      2.729440   479A      2.740816   480A      2.747539  
     481A      2.765824   482A      2.781116   483A      2.826957  
     484A      2.851492   485A      2.916554   486A      2.973656  
     487A      2.993129   488A      3.031372   489A      3.115745  
     490A      3.129344   491A      3.191834   492A      3.259247  
     493A      3.278697   494A      3.355463   495A      3.380402  
     496A      3.391877   497A      3.429780   498A      3.456269  
     499A      3.459172   500A      3.476985   501A      3.493221  
     502A      3.506897   503A      3.508475   504A      3.529108  
     505A      3.552003   506A      3.571399   507A      3.574701  
     508A      3.587840   509A      3.596286   510A      3.599914  
     511A      3.627874   512A      3.633576   513A      3.647494  
     514A      3.653317   515A      3.667290   516A      3.678973  
     517A      3.683610   518A      3.688151   519A      3.705699  
     520A      3.718078   521A      3.722361   522A      3.729724  
     523A      3.740170   524A      3.745513   525A      3.762203  
     526A      3.775529   527A      3.788381   528A      3.790563  
     529A      3.799706   530A      3.812694   531A      3.821205  
     532A      3.824357   533A      3.837252   534A      3.843203  
     535A      3.848095   536A      3.854651   537A      3.863467  
     538A      3.871394   539A      3.883090   540A      3.889700  
     541A      3.895955   542A      3.910187   543A      3.913427  
     544A      3.922090   545A      3.923200   546A      3.933541  
     547A      3.942558   548A      3.944805   549A      3.954062  
     550A      3.955320   551A      3.969399   552A      3.970747  
     553A      3.984306   554A      3.996121   555A      4.002613  
     556A      4.011718   557A      4.015229   558A      4.022939  
     559A      4.027245   560A      4.031048   561A      4.040551  
     562A      4.047348   563A      4.050502   564A      4.059082  
     565A      4.068795   566A      4.075314   567A      4.082113  
     568A      4.089466   569A      4.101092   570A      4.106813  
     571A      4.117915   572A      4.127682   573A      4.139832  
     574A      4.148899   575A      4.158310   576A      4.169400  
     577A      4.174042   578A      4.177177   579A      4.184666  
     580A      4.189505   581A      4.198167   582A      4.209701  
     583A      4.212744   584A      4.220621   585A      4.235380  
     586A      4.239458   587A      4.250565   588A      4.257668  
     589A      4.272135   590A      4.292772   591A      4.295932  
     592A      4.296958   593A      4.300122   594A      4.322159  
     595A      4.330344   596A      4.341669   597A      4.344919  
     598A      4.356749   599A      4.375811   600A      4.379801  
     601A      4.393704   602A      4.400976   603A      4.411742  
     604A      4.412309   605A      4.419075   606A      4.434017  
     607A      4.440728   608A      4.460247   609A      4.478077  
     610A      4.491210   611A      4.503793   612A      4.518148  
     613A      4.532044   614A      4.559418   615A      4.568190  
     616A      4.589037   617A      4.591215   618A      4.608375  
     619A      4.623667   620A      4.633888   621A      4.643623  
     622A      4.657569   623A      4.677187   624A      4.681491  
     625A      4.689713   626A      4.695916   627A      4.717087  
     628A      4.725075   629A      4.737168   630A      4.744531  
     631A      4.755479   632A      4.766071   633A      4.772273  
     634A      4.779384   635A      4.795828   636A      4.807514  
     637A      4.822539   638A      4.835963   639A      4.837887  
     640A      4.852342   641A      4.866512   642A      4.879737  
     643A      4.884191   644A      4.891411   645A      4.895395  
     646A      4.905781   647A      4.917109   648A      4.926202  
     649A      4.939019   650A      4.954157   651A      4.960443  
     652A      4.974673   653A      4.983799   654A      4.991287  
     655A      5.000749   656A      5.019445   657A      5.027125  
     658A      5.035750   659A      5.055050   660A      5.063642  
     661A      5.076610   662A      5.105943   663A      5.117331  
     664A      5.118786   665A      5.128365   666A      5.152326  
     667A      5.165719   668A      5.171849   669A      5.176731  
     670A      5.190738   671A      5.203323   672A      5.216894  
     673A      5.226600   674A      5.239078   675A      5.241162  
     676A      5.260665   677A      5.275338   678A      5.278484  
     679A      5.298065   680A      5.303971   681A      5.308405  
     682A      5.320250   683A      5.327504   684A      5.343047  
     685A      5.366747   686A      5.374028   687A      5.377771  
     688A      5.390127   689A      5.401999   690A      5.410672  
     691A      5.416998   692A      5.427817   693A      5.445546  
     694A      5.453386   695A      5.464107   696A      5.476778  
     697A      5.496641   698A      5.504714   699A      5.512336  
     700A      5.525658   701A      5.542032   702A      5.551295  
     703A      5.561068   704A      5.581426   705A      5.587967  
     706A      5.598025   707A      5.601431   708A      5.605354  
     709A      5.635298   710A      5.639549   711A      5.640982  
     712A      5.669325   713A      5.687265   714A      5.699852  
     715A      5.702199   716A      5.706895   717A      5.723732  
     718A      5.730247   719A      5.749402   720A      5.752436  
     721A      5.767817   722A      5.777454   723A      5.796964  
     724A      5.802348   725A      5.818350   726A      5.846155  
     727A      5.853958   728A      5.869228   729A      5.878587  
     730A      5.894109   731A      5.914269   732A      5.981198  
     733A      5.986215   734A      6.012485   735A      6.045840  
     736A      6.062605   737A      6.069974   738A      6.078923  
     739A      6.099598   740A      6.127966   741A      6.151159  
     742A      6.162425   743A      6.172351   744A      6.196773  
     745A      6.236315   746A      6.241657   747A      6.266693  
     748A      6.291572   749A      6.304474   750A      6.321632  
     751A      6.338309   752A      6.345717   753A      6.362689  
     754A      6.386342   755A      6.391499   756A      6.416003  
     757A      6.431827   758A      6.476531   759A      6.592707  
     760A      6.644176   761A      6.693969   762A      6.734902  
     763A      6.752181   764A      6.782995   765A      6.811913  
     766A      6.907437   767A      6.919833   768A      6.936522  
     769A      6.961647   770A      7.006643   771A      7.036801  
     772A      7.091262   773A      7.102868   774A      7.151636  
     775A     17.981311   776A     18.108278   777A     18.299330  
     778A     18.517530   779A     18.975583   780A     19.110575  
     781A     19.701231   782A     19.864438  

    Final Occupation by Irrep:
              A 
    DOCC [    33 ]

  Energy converged.

  @DF-RHF Final Energy:  -313.53661539651466

   => Energetics <=

    Nuclear Repulsion Energy =            403.7701945946466822
    One-Electron Energy =               -1222.6815095695674245
    Two-Electron Energy =                 505.3746995784061369
    DFT Exchange-Correlation Energy =       0.0000000000000000
    Empirical Dispersion Energy =           0.0000000000000000
    PCM Polarization Energy =               0.0000000000000000
    EFP Energy =                            0.0000000000000000
    Total Energy =                       -313.5366153965146054


  Saving occupied orbitals to File 180.

*** tstop() called on wr39 at Wed Sep 21 04:59:03 2016
Module time:
	user time   =     936.65 seconds =      15.61 minutes
	system time =      12.71 seconds =       0.21 minutes
	total time  =         89 seconds =       1.48 minutes
Total time:
	user time   =     936.65 seconds =      15.61 minutes
	system time =      12.71 seconds =       0.21 minutes
	total time  =         89 seconds =       1.48 minutes


Properties will be evaluated at   0.000000,   0.000000,   0.000000 Bohr

Properties computed using the SCF density matrix

  Nuclear Dipole Moment: (a.u.)
     X:    -0.4334      Y:     1.6116      Z:     0.3455

  Electronic Dipole Moment: (a.u.)
     X:     0.4286      Y:    -1.6318      Z:    -0.3490

  Dipole Moment: (a.u.)
     X:    -0.0048      Y:    -0.0202      Z:    -0.0035     Total:     0.0210

  Dipole Moment: (Debye)
     X:    -0.0121      Y:    -0.0513      Z:    -0.0089     Total:     0.0534


  //>>>>>>>>>>>>>>>>>>>>>>>>>>>>>>>>>>>//
  //               DFMP2               //
  //<<<<<<<<<<<<<<<<<<<<<<<<<<<<<<<<<<<//


*** tstart() called on wr39
*** at Wed Sep 21 04:59:03 2016


*** tstop() called on wr39 at Wed Sep 21 04:59:04 2016
Module time:
	user time   =       4.25 seconds =       0.07 minutes
	system time =       0.22 seconds =       0.00 minutes
	total time  =          1 seconds =       0.02 minutes
Total time:
	user time   =     942.17 seconds =      15.70 minutes
	system time =      13.00 seconds =       0.22 minutes
	total time  =         90 seconds =       1.50 minutes
	 --------------------------------------------------------
	                          DF-MP2                         
	      2nd-Order Density-Fitted Moller-Plesset Theory     
	              RMP2 Wavefunction,  12 Threads             
	                                                         
	        Rob Parrish, Justin Turney, Andy Simmonett,      
	           Ed Hohenstein, and C. David Sherrill          
	 --------------------------------------------------------

   => Auxiliary Basis Set <=

  Basis Set: 
    Number of shells: 476
    Number of basis function: 1676
    Number of Cartesian functions: 2078
    Spherical Harmonics?: true
    Max angular momentum: 4

	 --------------------------------------------------------
	                 NBF =   782, NAUX =  1676
	 --------------------------------------------------------
	   CLASS    FOCC     OCC    AOCC    AVIR     VIR    FVIR
	   PAIRS       8      33      25     749     749       0
	 --------------------------------------------------------

DGAS Warning! /src/lib/libfock/apps.cc:80 is not currently checking restricted

         ------------------------------------------------------------
                                     CPHF                           
                                  Rob Parrish                       
         ------------------------------------------------------------

  ==> Geometry <==

    Molecular point group: c1
    Full point group: C1

    Geometry (in Angstrom), charge = 0, multiplicity = 1:

       Center              X                  Y                   Z               Mass       
    ------------   -----------------  -----------------  -----------------  -----------------
           C         -2.881731876606     0.641293575574     0.886628464646    12.000000000000
           H         -3.942525408702     0.850594393276     1.022869022113     1.007825032070
           H         -2.324237121913     1.530356972448     1.186885335998     1.007825032070
           H         -2.615451383989    -0.165277920646     1.568584198578     1.007825032070
           C          2.288359513470     1.470894422567    -0.467603852775    12.000000000000
           H          2.274164337141     2.549707363210    -0.312600365130     1.007825032070
           H          1.629512801980     1.248415653951    -1.306295539981     1.007825032070
           H          3.301466223721     1.187681013882    -0.758197597058     1.007825032070
           C         -2.571899518311     0.279184836857    -0.562390246601    12.000000000000
           H         -2.941846060885     1.072723399112    -1.215482987687     1.007825032070
           H         -3.114173853427    -0.629322103079    -0.839425782297     1.007825032070
           C          1.867466235146     0.725293808937     0.793704641381    12.000000000000
           H          2.521470259543     1.021380168843     1.617292719738     1.007825032070
           H          0.858475324221     1.023710402940     1.088218545409     1.007825032070
           C         -1.081642842471     0.073810892378    -0.824300634756    12.000000000000
           H         -0.543152047971     0.979057149407    -0.533952156620     1.007825032070
           H         -0.917758533454    -0.052083655035    -1.898635596579     1.007825032070
           C         -0.501587628048    -1.144189969341    -0.107825679389    12.000000000000
           H         -1.085833937760    -2.015892908229    -0.416714802637     1.007825032070
           H         -0.642815775843    -1.049738054542     0.972637074373     1.007825032070
           C          0.985500951919    -1.397569484658    -0.393115480608    12.000000000000
           H          1.168606790966    -2.474112814815    -0.415732649884     1.007825032070
           H          1.232344659985    -1.030277136766    -1.393096038578     1.007825032070
           C          1.934363237807    -0.793098253411     0.643952081431    12.000000000000
           H          1.717837924092    -1.254759097644     1.611760793599     1.007825032070
           H          2.961596590100    -1.073052863732     0.390410588606     1.007825032070

  Nuclear repulsion =  403.770194594646682
  Reference energy  = -313.536615396514662

  ==> Basis Set <==

  Basis Set: AUG-CC-PVTZ
    Number of shells: 274
    Number of basis function: 782
    Number of Cartesian functions: 890
    Spherical Harmonics?: true
    Max angular momentum: 3

  ==> CGRSolver (by Rob Parrish) <==

   Number of roots    =         1
   Preconditioning    =    JACOBI
   Convergence cutoff =     1E-06
   Maximum iterations =       100

  ==> CPHFRHamiltonian (by Rob Parrish) <== 

  ==> DFJK: Density-Fitted J/K Matrices <==

    J tasked:                  Yes
    K tasked:                  Yes
    wK tasked:                  No
    OpenMP threads:             12
    Integrals threads:          12
    Memory (MB):             42915
    Algorithm:                Core
    Integral Cache:           NONE
    Schwarz Cutoff:          1E-12
    Fitting Condition:       1E-12

   => Auxiliary Basis Set <=

  Basis Set: 
    Number of shells: 492
    Number of basis function: 1660
    Number of Cartesian functions: 2038
    Spherical Harmonics?: true
    Max angular momentum: 4

  ==> CPHF Iterations <==

  => Iterations <=

             Iter  Converged  Remaining    Residual
  CGR           1          0          1   9.350E-02
  CGR           2          0          1   1.352E-02
  CGR           3          0          1   3.948E-03
  CGR           4          0          1   8.891E-04
  CGR           5          0          1   2.293E-04
  CGR           6          0          1   4.674E-05
  CGR           7          0          1   1.313E-05
  CGR           8          0          1   3.487E-06
  CGR           9          1          0   9.167E-07

    CGRSolver converged.

  ==> DFCorrGrad: Density-Fitted Correlated Gradients <==

    OpenMP threads:             12
    Integrals threads:          12
    Memory (MB):             42915
    Schwarz Cutoff:          0E+00
    Fitting Condition:       1E-12

   => Auxiliary Basis Set <=

  Basis Set: 
    Number of shells: 492
    Number of basis function: 1660
    Number of Cartesian functions: 2038
    Spherical Harmonics?: true
    Max angular momentum: 4

	-----------------------------------------------------------
	 ==================> DF-MP2 Energies <==================== 
	-----------------------------------------------------------
	 Reference Energy          =    -313.5366153965146623 [Eh]
	 Singles Energy            =      -0.0000000000000004 [Eh]
	 Same-Spin Energy          =      -0.3172690657420698 [Eh]
	 Opposite-Spin Energy      =      -1.1268380274697722 [Eh]
	 Correlation Energy        =      -1.4441070932118425 [Eh]
	 Total Energy              =    -314.9807224897265314 [Eh]
	-----------------------------------------------------------
	 ================> DF-SCS-MP2 Energies <================== 
	-----------------------------------------------------------
	 SCS Same-Spin Scale       =       0.3333333333333333 [-]
	 SCS Opposite-Spin Scale   =       1.2000000000000000 [-]
	 SCS Same-Spin Energy      =      -0.1057563552473566 [Eh]
	 SCS Opposite-Spin Energy  =      -1.3522056329637266 [Eh]
	 SCS Correlation Energy    =      -1.4579619882110837 [Eh]
	 SCS Total Energy          =    -314.9945773847257442 [Eh]
	-----------------------------------------------------------


  -Total Gradient:
     Atom            X                  Y                   Z
    ------   -----------------  -----------------  -----------------
       1        0.000000156268    -0.000000135645    -0.000000263424
       2       -0.000000156996     0.000000006824     0.000000024688
       3        0.000000102427     0.000000150142     0.000000085684
       4        0.000000064706    -0.000000175222     0.000000181678
       5       -0.000000356449    -0.000000653894     0.000000559911
       6        0.000000014941     0.000000573904     0.000000122562
       7       -0.000000412945    -0.000000077417    -0.000000549207
       8        0.000000608899    -0.000000138149    -0.000000207469
       9        0.000000468028     0.000000041237     0.000000239340
      10       -0.000000108225     0.000000155246    -0.000000078742
      11       -0.000000192235    -0.000000181896    -0.000000060423
      12        0.000000811756     0.000000139650    -0.000000923248
      13        0.000000471130     0.000000078448     0.000000198352
      14       -0.000001250435     0.000000531914     0.000000415542
      15        0.000000452959    -0.000001145005     0.000000472901
      16       -0.000000076496     0.000001031441     0.000000113179
      17       -0.000000002919    -0.000000106888    -0.000000683975
      18       -0.000000682733     0.000000855899    -0.000001107947
      19       -0.000000481905    -0.000000641353    -0.000000348750
      20        0.000000031281    -0.000000004064     0.000000885002
      21       -0.000000504834     0.000000313028     0.000001833254
      22        0.000000262651    -0.000000720158     0.000000230225
      23        0.000000353790     0.000000494593    -0.000001563599
      24       -0.000000242573     0.000000256105    -0.000000086604
      25       -0.000000151103    -0.000000383051     0.000000769675
      26        0.000000821005    -0.000000265691    -0.000000258603


			-----------------------------------------
			 OPTKING 2.0: for geometry optimizations 
			  - R.A. King,  Bethel University        
			-----------------------------------------

	Internal coordinates to be generated automatically.
	Detected frag 1 with atoms:  1 2 3 4 5 6 7 8 9 10 11 12 13 14 15 16 17 18 19 20
	 21 22 23 24 25 26
	---Fragment 1 Bond Connectivity---
	 1 : 2 3 4 9
	 2 : 1
	 3 : 1
	 4 : 1
	 5 : 6 7 8 12
	 6 : 5
	 7 : 5
	 8 : 5
	 9 : 1 10 11 15
	 10 : 9
	 11 : 9
	 12 : 5 13 14 24
	 13 : 12
	 14 : 12
	 15 : 9 16 17 18
	 16 : 15
	 17 : 15
	 18 : 15 19 20 21
	 19 : 18
	 20 : 18
	 21 : 18 22 23 24
	 22 : 21
	 23 : 21
	 24 : 12 21 25 26
	 25 : 24
	 26 : 24

	---Fragment 1 Geometry and Gradient---
	 C          -5.4456840352        1.2118692286        1.6754849798
	 H          -7.4502932944        1.6073904535        1.9329423216
	 H          -4.3921716283        2.8919555635        2.2428882362
	 H          -4.9424868296       -0.3123300058        2.9641945517
	 C           4.3243727740        2.7795876290       -0.8836432204
	 H           4.2975477784        4.8182486355       -0.5907290791
	 H           3.0793329258        2.3591636860       -2.4685408192
	 H           6.2388669998        2.2443918495       -1.4327858131
	 C          -4.8601857309        0.5275828821       -1.0627635459
	 H          -5.5592833802        2.0271534407       -2.2969299659
	 H          -5.8849357132       -1.1892464242       -1.5862848374
	 C           3.5289997468        1.3706066648        1.4998844026
	 H           4.7648882428        1.9301287967        3.0562403170
	 H           1.6222832546        1.9345323009        2.0564350236
	 C          -2.0440087459        0.1394823722       -1.5577024509
	 H          -1.0264086192        1.8501498808       -1.0090233441
	 H          -1.7343122843       -0.0984238440       -3.5879013037
	 C          -0.9478632487       -2.1622056860       -0.2037610041
	 H          -2.0519287682       -3.8094855098       -0.7874768525
	 H          -1.2147457702       -1.9837174344        1.8380176973
	 C           1.8623269028       -2.6410235777       -0.7428805969
	 H           2.2083467920       -4.6753956419       -0.7856208528
	 H           2.3287939087       -1.9469416295       -2.6325699897
	 C           3.6554167610       -1.4987384954        1.2168930766
	 H           3.2462432172       -2.3711510573        3.0457864916
	 H           5.5966064714       -2.0277760386        0.7377690918
	             0.0000001563       -0.0000001356       -0.0000002634
	            -0.0000001570        0.0000000068        0.0000000247
	             0.0000001024        0.0000001501        0.0000000857
	             0.0000000647       -0.0000001752        0.0000001817
	            -0.0000003564       -0.0000006539        0.0000005599
	             0.0000000149        0.0000005739        0.0000001226
	            -0.0000004129       -0.0000000774       -0.0000005492
	             0.0000006089       -0.0000001381       -0.0000002075
	             0.0000004680        0.0000000412        0.0000002393
	            -0.0000001082        0.0000001552       -0.0000000787
	            -0.0000001922       -0.0000001819       -0.0000000604
	             0.0000008118        0.0000001397       -0.0000009232
	             0.0000004711        0.0000000784        0.0000001984
	            -0.0000012504        0.0000005319        0.0000004155
	             0.0000004530       -0.0000011450        0.0000004729
	            -0.0000000765        0.0000010314        0.0000001132
	            -0.0000000029       -0.0000001069       -0.0000006840
	            -0.0000006827        0.0000008559       -0.0000011079
	            -0.0000004819       -0.0000006414       -0.0000003487
	             0.0000000313       -0.0000000041        0.0000008850
	            -0.0000005048        0.0000003130        0.0000018333
	             0.0000002627       -0.0000007202        0.0000002302
	             0.0000003538        0.0000004946       -0.0000015636
	            -0.0000002426        0.0000002561       -0.0000000866
	            -0.0000001511       -0.0000003831        0.0000007697
	             0.0000008210       -0.0000002657       -0.0000002586

	Previous optimization step data not found.  Starting new optimization.

	---Fragment 1 Intrafragment Coordinates---
	 - Coordinate -           - BOHR/RAD -       - ANG/DEG -
	 R(1,2)           =         2.059412	       1.089794
	 R(1,3)           =         2.062650	       1.091507
	 R(1,4)           =         2.058437	       1.089278
	 R(1,9)           =         2.882544	       1.525377
	 R(5,6)           =         2.059771	       1.089984
	 R(5,7)           =         2.058830	       1.089486
	 R(5,8)           =         2.062348	       1.091348
	 R(5,12)          =         2.880807	       1.524457
	 R(9,10)          =         2.064126	       1.092288
	 R(9,11)          =         2.066807	       1.093707
	 R(9,15)          =         2.885557	       1.526971
	 R(12,13)         =         2.064638	       1.092559
	 R(12,14)         =         2.064783	       1.092636
	 R(12,24)         =         2.886037	       1.527225
	 R(15,16)         =         2.064689	       1.092587
	 R(15,17)         =         2.067418	       1.094031
	 R(15,18)         =         2.886600	       1.527523
	 R(18,19)         =         2.067176	       1.093902
	 R(18,20)         =         2.066868	       1.093740
	 R(18,21)         =         2.901221	       1.535260
	 R(21,22)         =         2.064032	       1.092238
	 R(21,23)         =         2.066462	       1.093525
	 R(21,24)         =         2.891487	       1.530109
	 R(24,25)         =         2.067215	       1.093923
	 R(24,26)         =         2.068250	       1.094471
	 B(1,9,10)        =         1.903634	     109.070177
	 B(1,9,11)        =         1.914634	     109.700464
	 B(1,9,15)        =         1.974797	     113.147518
	 B(2,1,3)         =         1.882143	     107.838847
	 B(2,1,4)         =         1.877475	     107.571382
	 B(2,1,9)         =         1.941276	     111.226900
	 B(3,1,4)         =         1.881839	     107.821430
	 B(3,1,9)         =         1.929361	     110.544251
	 B(4,1,9)         =         1.949042	     111.671855
	 B(5,12,13)       =         1.902737	     109.018820
	 B(5,12,14)       =         1.922391	     110.144865
	 B(5,12,24)       =         1.974733	     113.143841
	 B(6,5,7)         =         1.879379	     107.680486
	 B(6,5,8)         =         1.882629	     107.866701
	 B(6,5,12)        =         1.942094	     111.273766
	 B(7,5,8)         =         1.879064	     107.662410
	 B(7,5,12)        =         1.949897	     111.720845
	 B(8,5,12)        =         1.928030	     110.467996
	 B(9,15,16)       =         1.900742	     108.904474
	 B(9,15,17)       =         1.907215	     109.275392
	 B(9,15,18)       =         1.979476	     113.415625
	 B(10,9,11)       =         1.858859	     106.504792
	 B(10,9,15)       =         1.902550	     109.008099
	 B(11,9,15)       =         1.905747	     109.191250
	 B(12,24,21)      =         2.017574	     115.598501
	 B(12,24,25)      =         1.900921	     108.914772
	 B(12,24,26)      =         1.894561	     108.550342
	 B(13,12,14)      =         1.849981	     105.996075
	 B(13,12,24)      =         1.893499	     108.489477
	 B(14,12,24)      =         1.916030	     109.780434
	 B(15,18,19)      =         1.875640	     107.466238
	 B(15,18,20)      =         1.923524	     110.209789
	 B(15,18,21)      =         1.995728	     114.346813
	 B(16,15,17)      =         1.857168	     106.407875
	 B(16,15,18)      =         1.927137	     110.416821
	 B(17,15,18)      =         1.888051	     108.177329
	 B(18,21,22)      =         1.905934	     109.201968
	 B(18,21,23)      =         1.910433	     109.459757
	 B(18,21,24)      =         1.992727	     114.174871
	 B(19,18,20)      =         1.853338	     106.188424
	 B(19,18,21)      =         1.910648	     109.472060
	 B(20,18,21)      =         1.899582	     108.838049
	 B(21,24,25)      =         1.886168	     108.069487
	 B(21,24,26)      =         1.900719	     108.903159
	 B(22,21,23)      =         1.848632	     105.918793
	 B(22,21,24)      =         1.874912	     107.424526
	 B(23,21,24)      =         1.925297	     110.311392
	 B(25,24,26)      =         1.857483	     106.425920
	 D(1,9,15,16)     =        -0.991271	     -56.795672
	 D(1,9,15,17)     =        -3.013299	    -172.649331
	 D(1,9,15,18)     =         1.162053	      66.580750
	 D(2,1,9,10)      =         0.949596	      54.407833
	 D(2,1,9,11)      =        -1.080211	     -61.891549
	 D(2,1,9,15)      =         3.070264	     175.913185
	 D(3,1,9,10)      =        -1.140788	     -65.362349
	 D(3,1,9,11)      =         3.112590	     178.338269
	 D(3,1,9,15)      =         0.979880	      56.143003
	 D(4,1,9,10)      =         3.047284	     174.596498
	 D(4,1,9,11)      =         1.017477	      58.297116
	 D(4,1,9,15)      =        -1.115233	     -63.898150
	 D(5,12,24,21)    =        -1.113465	     -63.796858
	 D(5,12,24,25)    =         3.043002	     174.351144
	 D(5,12,24,26)    =         1.027395	      58.865390
	 D(6,5,12,13)     =        -0.986637	     -56.530112
	 D(6,5,12,14)     =         1.036335	      59.377619
	 D(6,5,12,24)     =        -3.095104	    -177.336406
	 D(7,5,12,13)     =        -3.087898	    -176.923528
	 D(7,5,12,14)     =        -1.064927	     -61.015797
	 D(7,5,12,24)     =         1.086820	      62.270178
	 D(8,5,12,13)     =         1.104012	      63.255200
	 D(8,5,12,14)     =         3.126983	     179.162931
	 D(8,5,12,24)     =        -1.004456	     -57.551094
	 D(9,15,18,19)    =         0.983662	      56.359670
	 D(9,15,18,20)    =        -1.028614	     -58.935222
	 D(9,15,18,21)    =         3.108292	     178.091998
	 D(10,9,15,16)    =         1.130007	      64.744607
	 D(10,9,15,17)    =        -0.892021	     -51.109052
	 D(10,9,15,18)    =        -2.999854	    -171.878970
	 D(11,9,15,16)    =        -3.128938	    -179.274915
	 D(11,9,15,17)    =         1.132220	      64.871426
	 D(11,9,15,18)    =        -0.975613	     -55.898492
	 D(12,24,21,18)   =        -1.060760	     -60.777085
	 D(12,24,21,22)   =         3.106252	     177.975126
	 D(12,24,21,23)   =         1.099040	      62.970362
	 D(13,12,24,21)   =         3.056023	     175.097206
	 D(13,12,24,25)   =         0.929304	      53.245208
	 D(13,12,24,26)   =        -1.086302	     -62.240546
	 D(14,12,24,21)   =         1.041787	      59.689976
	 D(14,12,24,25)   =        -1.084932	     -62.162023
	 D(14,12,24,26)   =        -3.100539	    -177.647776
	 D(15,18,21,22)   =        -2.529687	    -144.940373
	 D(15,18,21,23)   =        -0.513196	     -29.403979
	 D(15,18,21,24)   =         1.654582	      94.800583
	 D(16,15,18,19)   =         3.122442	     178.902748
	 D(16,15,18,20)   =         1.110167	      63.607856
	 D(16,15,18,21)   =        -1.036113	     -59.364925
	 D(17,15,18,19)   =        -1.134950	     -65.027844
	 D(17,15,18,20)   =         3.135960	     179.677264
	 D(17,15,18,21)   =         0.989680	      56.704483
	 D(18,21,24,25)   =         1.073831	      61.525974
	 D(18,21,24,26)   =         3.084833	     176.747916
	 D(19,18,21,22)   =        -0.424381	     -24.315251
	 D(19,18,21,23)   =         1.592109	      91.221143
	 D(19,18,21,24)   =        -2.523297	    -144.574296
	 D(20,18,21,22)   =         1.594315	      91.347537
	 D(20,18,21,23)   =        -2.672380	    -153.116069
	 D(20,18,21,24)   =        -0.504601	     -28.911508
	 D(22,21,24,25)   =        -1.042342	     -59.721815
	 D(22,21,24,26)   =         0.968660	      55.500127
	 D(23,21,24,25)   =        -3.049554	    -174.726579
	 D(23,21,24,26)   =        -1.038552	     -59.504637
	 R(5,15)          =         6.926817	       3.665514
	 R(12,15)         =         6.474792	       3.426312

	Current energy   :      -314.9807224897

	Generating empirical Hessian (Schlegel '84) for each fragment.
	Taking RFO optimization step.
	Going to follow RFO solution 1.
	Using RFO vector 1.
	Norm of target step-size    0.00045
	Projected energy change by RFO approximation:         0.0000000006

	Back-transformation to cartesian coordinates...
	Successfully converged to displaced geometry.

	--- Internal Coordinate Step in ANG or DEG, aJ/ANG or AJ/DEG ---
	 ---------------------------------------------------------------------------
	   Coordinate                Previous        Force       Change         New 
	   ----------                --------       ------       ------       ------
	    1 R(1,2)          =      1.089794    -0.000001    -0.000000     1.089794
	    2 R(1,3)          =      1.091507    -0.000002    -0.000000     1.091507
	    3 R(1,4)          =      1.089278    -0.000002    -0.000000     1.089278
	    4 R(1,9)          =      1.525377     0.000000     0.000000     1.525377
	    5 R(5,6)          =      1.089984    -0.000005    -0.000001     1.089983
	    6 R(5,7)          =      1.089486    -0.000005    -0.000001     1.089485
	    7 R(5,8)          =      1.091348    -0.000005    -0.000001     1.091347
	    8 R(5,12)         =      1.524457     0.000001     0.000000     1.524458
	    9 R(9,10)         =      1.092288    -0.000002    -0.000000     1.092288
	   10 R(9,11)         =      1.093707    -0.000002    -0.000000     1.093707
	   11 R(9,15)         =      1.526971     0.000003     0.000001     1.526972
	   12 R(12,13)        =      1.092559    -0.000004    -0.000001     1.092559
	   13 R(12,14)        =      1.092636    -0.000012    -0.000002     1.092634
	   14 R(12,24)        =      1.527225    -0.000003    -0.000001     1.527224
	   15 R(15,16)        =      1.092587    -0.000007    -0.000001     1.092585
	   16 R(15,17)        =      1.094031    -0.000006    -0.000001     1.094030
	   17 R(15,18)        =      1.527523     0.000006     0.000001     1.527524
	   18 R(18,19)        =      1.093902    -0.000007    -0.000001     1.093901
	   19 R(18,20)        =      1.093740    -0.000007    -0.000001     1.093738
	   20 R(18,21)        =      1.535260    -0.000001    -0.000001     1.535259
	   21 R(21,22)        =      1.092238    -0.000006    -0.000001     1.092237
	   22 R(21,23)        =      1.093525    -0.000014    -0.000003     1.093522
	   23 R(21,24)        =      1.530109    -0.000001    -0.000001     1.530108
	   24 R(24,25)        =      1.093923    -0.000007    -0.000001     1.093922
	   25 R(24,26)        =      1.094471    -0.000007    -0.000001     1.094469
	   26 B(1,9,10)       =    109.070177    -0.000000    -0.000098   109.070078
	   27 B(1,9,11)       =    109.700464     0.000000     0.000093   109.700557
	   28 B(1,9,15)       =    113.147518     0.000000     0.000115   113.147633
	   29 B(2,1,3)        =    107.838847     0.000000    -0.000015   107.838832
	   30 B(2,1,4)        =    107.571382     0.000000     0.000021   107.571403
	   31 B(2,1,9)        =    111.226900    -0.000000    -0.000003   111.226897
	   32 B(3,1,4)        =    107.821430     0.000000     0.000018   107.821448
	   33 B(3,1,9)        =    110.544251    -0.000000    -0.000039   110.544212
	   34 B(4,1,9)        =    111.671855     0.000000     0.000019   111.671874
	   35 B(5,12,13)      =    109.018820    -0.000000     0.000047   109.018866
	   36 B(5,12,14)      =    110.144865     0.000000    -0.000004   110.144860
	   37 B(5,12,24)      =    113.143841     0.000000     0.000042   113.143883
	   38 B(6,5,7)        =    107.680486    -0.000000     0.000004   107.680491
	   39 B(6,5,8)        =    107.866701    -0.000000     0.000024   107.866724
	   40 B(6,5,12)       =    111.273766     0.000000     0.000074   111.273840
	   41 B(7,5,8)        =    107.662410     0.000000    -0.000026   107.662384
	   42 B(7,5,12)       =    111.720845    -0.000000    -0.000050   111.720794
	   43 B(8,5,12)       =    110.467996    -0.000000    -0.000025   110.467971
	   44 B(9,15,16)      =    108.904474     0.000000     0.000252   108.904726
	   45 B(9,15,17)      =    109.275392    -0.000000    -0.000094   109.275298
	   46 B(9,15,18)      =    113.415625     0.000000     0.000319   113.415944
	   47 B(10,9,11)      =    106.504792     0.000000    -0.000011   106.504781
	   48 B(10,9,15)      =    109.008099    -0.000000    -0.000099   109.008000
	   49 B(11,9,15)      =    109.191250    -0.000000    -0.000009   109.191241
	   50 B(12,24,21)     =    115.598501     0.000000    -0.000206   115.598295
	   51 B(12,24,25)     =    108.914772    -0.000000    -0.000171   108.914601
	   52 B(12,24,26)     =    108.550342    -0.000000     0.000211   108.550553
	   53 B(13,12,14)     =    105.996075    -0.000000    -0.000047   105.996028
	   54 B(13,12,24)     =    108.489477     0.000000     0.000099   108.489576
	   55 B(14,12,24)     =    109.780434    -0.000000    -0.000139   109.780295
	   56 B(15,18,19)     =    107.466238    -0.000000     0.000118   107.466356
	   57 B(15,18,20)     =    110.209789     0.000000    -0.000024   110.209766
	   58 B(15,18,21)     =    114.346813    -0.000000    -0.000259   114.346554
	   59 B(16,15,17)     =    106.407875     0.000000    -0.000082   106.407793
	   60 B(16,15,18)     =    110.416821    -0.000000    -0.000191   110.416630
	   61 B(17,15,18)     =    108.177329    -0.000000    -0.000233   108.177096
	   62 B(18,21,22)     =    109.201968     0.000000     0.000201   109.202169
	   63 B(18,21,23)     =    109.459757     0.000000    -0.000016   109.459741
	   64 B(18,21,24)     =    114.174871    -0.000000    -0.000510   114.174361
	   65 B(19,18,20)     =    106.188424    -0.000000     0.000007   106.188432
	   66 B(19,18,21)     =    109.472060     0.000000     0.000069   109.472129
	   67 B(20,18,21)     =    108.838049     0.000000     0.000106   108.838155
	   68 B(21,24,25)     =    108.069487    -0.000000    -0.000135   108.069353
	   69 B(21,24,26)     =    108.903159     0.000000     0.000279   108.903438
	   70 B(22,21,23)     =    105.918793    -0.000000     0.000075   105.918868
	   71 B(22,21,24)     =    107.424526     0.000000     0.000300   107.424826
	   72 B(23,21,24)     =    110.311392     0.000000     0.000001   110.311393
	   73 B(25,24,26)     =    106.425920     0.000000     0.000038   106.425958
	   74 D(1,9,15,16)    =    -56.795672     0.000000     0.004334   -56.791338
	   75 D(1,9,15,17)    =   -172.649331     0.000000     0.004345  -172.644986
	   76 D(1,9,15,18)    =     66.580750     0.000000     0.004497    66.585247
	   77 D(2,1,9,10)     =     54.407833    -0.000000     0.000006    54.407839
	   78 D(2,1,9,11)     =    -61.891549    -0.000000     0.000022   -61.891527
	   79 D(2,1,9,15)     =    175.913185    -0.000000    -0.000114   175.913071
	   80 D(3,1,9,10)     =    -65.362349     0.000000     0.000052   -65.362296
	   81 D(3,1,9,11)     =    178.338269     0.000000     0.000069   178.338338
	   82 D(3,1,9,15)     =     56.143003    -0.000000    -0.000067    56.142936
	   83 D(4,1,9,10)     =    174.596498     0.000000     0.000043   174.596541
	   84 D(4,1,9,11)     =     58.297116     0.000000     0.000060    58.297176
	   85 D(4,1,9,15)     =    -63.898150    -0.000000    -0.000076   -63.898226
	   86 D(5,12,24,21)   =    -63.796858    -0.000000    -0.003645   -63.800502
	   87 D(5,12,24,25)   =    174.351144    -0.000000    -0.003191   174.347953
	   88 D(5,12,24,26)   =     58.865390     0.000000    -0.003258    58.862132
	   89 D(6,5,12,13)    =    -56.530112     0.000000    -0.000569   -56.530682
	   90 D(6,5,12,14)    =     59.377619     0.000000    -0.000602    59.377017
	   91 D(6,5,12,24)    =   -177.336406    -0.000000    -0.000756  -177.337162
	   92 D(7,5,12,13)    =   -176.923528     0.000000    -0.000591  -176.924120
	   93 D(7,5,12,14)    =    -61.015797    -0.000000    -0.000624   -61.016421
	   94 D(7,5,12,24)    =     62.270178    -0.000000    -0.000778    62.269400
	   95 D(8,5,12,13)    =     63.255200     0.000000    -0.000508    63.254692
	   96 D(8,5,12,14)    =    179.162931     0.000000    -0.000540   179.162391
	   97 D(8,5,12,24)    =    -57.551094    -0.000000    -0.000695   -57.551788
	   98 D(9,15,18,19)   =     56.359670    -0.000000    -0.000259    56.359411
	   99 D(9,15,18,20)   =    -58.935222    -0.000000    -0.000322   -58.935543
	  100 D(9,15,18,21)   =    178.091998    -0.000000    -0.000254   178.091744
	  101 D(10,9,15,16)   =     64.744607     0.000000     0.004215    64.748822
	  102 D(10,9,15,17)   =    -51.109052     0.000000     0.004225   -51.104826
	  103 D(10,9,15,18)   =   -171.878970     0.000000     0.004377  -171.874593
	  104 D(11,9,15,16)   =   -179.274915     0.000000     0.004142  -179.270772
	  105 D(11,9,15,17)   =     64.871426    -0.000000     0.004153    64.875579
	  106 D(11,9,15,18)   =    -55.898492     0.000000     0.004305   -55.894187
	  107 D(12,24,21,18)  =    -60.777085     0.000000     0.004879   -60.772206
	  108 D(12,24,21,22)  =    177.975126     0.000000     0.004735   177.979861
	  109 D(12,24,21,23)  =     62.970362     0.000000     0.004478    62.974841
	  110 D(13,12,24,21)  =    175.097206    -0.000000    -0.003801   175.093405
	  111 D(13,12,24,25)  =     53.245208    -0.000000    -0.003347    53.241861
	  112 D(13,12,24,26)  =    -62.240546    -0.000000    -0.003414   -62.243960
	  113 D(14,12,24,21)  =     59.689976    -0.000000    -0.003725    59.686251
	  114 D(14,12,24,25)  =    -62.162023    -0.000000    -0.003271   -62.165293
	  115 D(14,12,24,26)  =   -177.647776     0.000000    -0.003338  -177.651114
	  116 D(15,18,21,22)  =   -144.940373     0.000000     0.004787  -144.935586
	  117 D(15,18,21,23)  =    -29.403979     0.000000     0.004980   -29.398998
	  118 D(15,18,21,24)  =     94.800583     0.000000     0.004596    94.805179
	  119 D(16,15,18,19)  =    178.902748     0.000000     0.000155   178.902903
	  120 D(16,15,18,20)  =     63.607856     0.000000     0.000093    63.607948
	  121 D(16,15,18,21)  =    -59.364925     0.000000     0.000160   -59.364765
	  122 D(17,15,18,19)  =    -65.027844    -0.000000    -0.000182   -65.028026
	  123 D(17,15,18,20)  =    179.677264    -0.000000    -0.000245   179.677020
	  124 D(17,15,18,21)  =     56.704483    -0.000000    -0.000177    56.704307
	  125 D(18,21,24,25)  =     61.525974    -0.000000     0.004410    61.530383
	  126 D(18,21,24,26)  =    176.747916    -0.000000     0.004528   176.752444
	  127 D(19,18,21,22)  =    -24.315251     0.000000     0.004815   -24.310437
	  128 D(19,18,21,23)  =     91.221143     0.000000     0.005008    91.226151
	  129 D(19,18,21,24)  =   -144.574296     0.000000     0.004624  -144.569672
	  130 D(20,18,21,22)  =     91.347537     0.000000     0.004920    91.352457
	  131 D(20,18,21,23)  =   -153.116069     0.000000     0.005114  -153.110955
	  132 D(20,18,21,24)  =    -28.911508     0.000000     0.004729   -28.906778
	  133 D(22,21,24,25)  =    -59.721815     0.000000     0.004266   -59.717550
	  134 D(22,21,24,26)  =     55.500127     0.000000     0.004384    55.504511
	  135 D(23,21,24,25)  =   -174.726579    -0.000000     0.004009  -174.722570
	  136 D(23,21,24,26)  =    -59.504637    -0.000000     0.004128   -59.500510
	  137 R(5,15)         =      3.665514     0.000001     0.000003     3.665516
	  138 R(12,15)        =      3.426312    -0.000003     0.000019     3.426331
	 ---------------------------------------------------------------------------

  ==> Convergence Check <==

  Measures of convergence in internal coordinates in au.
  Criteria marked as inactive (o), active & met (*), and active & unmet ( ).
  --------------------------------------------------------------------------------------------- ~
   Step     Total Energy     Delta E     MAX Force     RMS Force      MAX Disp      RMS Disp    ~
  --------------------------------------------------------------------------------------------- ~
    Convergence Criteria             o    2.00e-06 *    1.00e-06 *    6.00e-06 *    4.00e-06 *  ~
  --------------------------------------------------------------------------------------------- ~
      1    -314.98072249   -3.15e+02 o    1.70e-06 *    3.45e-07 *    8.93e-05      3.85e-05    ~
  ---------------------------------------------------------------------------------------------

	Writing optimization data to binary file.
	Structure for next step:
	Cartesian Geometry (in Angstrom)
	    C    -2.8816746875   0.6414176123   0.8866074900
	    H    -3.9424647927   0.8507191291   1.0228717613
	    H    -2.3241794438   1.5305242174   1.1867344362
	    H    -2.6153513236  -0.1650698586   1.5686451834
	    C     2.2882866314   1.4709568041  -0.4674740657
	    H     2.2740222249   2.5497545080  -0.3123772980
	    H     1.6294631461   1.2485095840  -1.3061910626
	    H     3.3014129772   1.1878319873  -0.7580819663
	    C    -2.5719029812   0.2791444520  -0.5623831316
	    H    -2.9418909293   1.0726024050  -1.2155498249
	    H    -3.1141763686  -0.6294018684  -0.8392898353
	    C     1.8674269243   0.7252185460   0.7937646708
	    H     2.5214091302   1.0212653343   1.6173833648
	    H     0.8584201805   1.0235529837   1.0882995359
	    C    -1.0816550607   0.0737632475  -0.8243409507
	    H    -0.5431522981   0.9790202815  -0.5340532525
	    H    -0.9178127814  -0.0521764518  -1.8986759608
	    C    -0.5015624948  -1.1442064431  -0.1078417310
	    H    -1.0858164783  -2.0159248269  -0.4166679893
	    H    -0.6427425025  -1.0497104547   0.9726221437
	    C     0.9855137647  -1.3975850245  -0.3931906151
	    H     1.1686143699  -2.4741270122  -0.4158591088
	    H     1.2323273025  -1.0302507460  -1.3931603510
	    C     1.9344033161  -0.7931555293   0.6438744502
	    H     1.7179539564  -1.2549108883   1.6116535561
	    H     2.9616370790  -1.0730321972   0.3902546066
			--------------------------
			 OPTKING Finished Execution 
			--------------------------

    Structure for next step:
    Molecular point group: c1
    Full point group: C1

    Geometry (in Angstrom), charge = 0, multiplicity = 1:

    C           -2.881675394321     0.641423984092     0.886610685013
    H           -3.942465499548     0.850725500969     1.022874956364
    H           -2.324180150637     1.530530589257     1.186737631246
    H           -2.615352030363    -0.165063486771     1.568648378440
    C            2.288285924572     1.470963175948    -0.467470870722
    H            2.274021518054     2.549760879794    -0.312374102981
    H            1.629462439273     1.248515955842    -1.306187867575
    H            3.301412270405     1.187838359158    -0.758078771255
    C           -2.571903687972     0.279150823828    -0.562379936601
    H           -2.941891636128     1.072608776859    -1.215546629918
    H           -3.114177075412    -0.629395496552    -0.839286640293
    C            1.867426217459     0.725224917806     0.793767865837
    H            2.521408423368     1.021271706089     1.617386559812
    H            0.858419473731     1.023559355515     1.088302730960
    C           -1.081655767501     0.073769619291    -0.824337755726
    H           -0.543153004905     0.979026653373    -0.534050057480
    H           -0.917813488211    -0.052170079981    -1.898672765778
    C           -0.501563201572    -1.144200071244    -0.107838536016
    H           -1.085817185137    -2.015918455027    -0.416664794264
    H           -0.642743209289    -1.049704082911     0.972625338729
    C            0.985513057912    -1.397578652719    -0.393187420092
    H            1.168613663121    -2.474120640326    -0.415855913770
    H            1.232326595731    -1.030244374146    -1.393157155981
    C            1.934402609245    -0.793149157431     0.643877645251
    H            1.717953249567    -1.254904516470     1.611656751096
    H            2.961636372153    -1.073025825326     0.390257801615

gradient() will perform analytic gradient computation.

*** tstart() called on wr39
*** at Wed Sep 21 05:04:28 2016


         ---------------------------------------------------------
                                   SCF
            by Justin Turney, Rob Parrish, and Andy Simmonett
                              RHF Reference
                       12 Threads,  60000 MiB Core
         ---------------------------------------------------------

  ==> Geometry <==

    Molecular point group: c1
    Full point group: C1

    Geometry (in Angstrom), charge = 0, multiplicity = 1:

       Center              X                  Y                   Z               Mass       
    ------------   -----------------  -----------------  -----------------  -----------------
           C         -2.881675394321     0.641423984092     0.886610685013    12.000000000000
           H         -3.942465499548     0.850725500969     1.022874956364     1.007825032070
           H         -2.324180150637     1.530530589257     1.186737631246     1.007825032070
           H         -2.615352030363    -0.165063486771     1.568648378440     1.007825032070
           C          2.288285924572     1.470963175948    -0.467470870722    12.000000000000
           H          2.274021518054     2.549760879794    -0.312374102981     1.007825032070
           H          1.629462439273     1.248515955842    -1.306187867575     1.007825032070
           H          3.301412270405     1.187838359158    -0.758078771255     1.007825032070
           C         -2.571903687972     0.279150823828    -0.562379936601    12.000000000000
           H         -2.941891636128     1.072608776859    -1.215546629918     1.007825032070
           H         -3.114177075412    -0.629395496552    -0.839286640293     1.007825032070
           C          1.867426217459     0.725224917806     0.793767865837    12.000000000000
           H          2.521408423368     1.021271706089     1.617386559812     1.007825032070
           H          0.858419473731     1.023559355515     1.088302730960     1.007825032070
           C         -1.081655767501     0.073769619291    -0.824337755726    12.000000000000
           H         -0.543153004905     0.979026653373    -0.534050057480     1.007825032070
           H         -0.917813488211    -0.052170079981    -1.898672765778     1.007825032070
           C         -0.501563201572    -1.144200071244    -0.107838536016    12.000000000000
           H         -1.085817185137    -2.015918455027    -0.416664794264     1.007825032070
           H         -0.642743209289    -1.049704082911     0.972625338729     1.007825032070
           C          0.985513057912    -1.397578652719    -0.393187420092    12.000000000000
           H          1.168613663121    -2.474120640326    -0.415855913770     1.007825032070
           H          1.232326595731    -1.030244374146    -1.393157155981     1.007825032070
           C          1.934402609245    -0.793149157431     0.643877645251    12.000000000000
           H          1.717953249567    -1.254904516470     1.611656751096     1.007825032070
           H          2.961636372153    -1.073025825326     0.390257801615     1.007825032070

  Running in c1 symmetry.

  Rotational constants: A =      0.09424  B =      0.03314  C =      0.02980 [cm^-1]
  Rotational constants: A =   2825.16702  B =    993.50261  C =    893.52796 [MHz]
  Nuclear repulsion =  403.770556191707328

  Charge       = 0
  Multiplicity = 1
  Electrons    = 66
  Nalpha       = 33
  Nbeta        = 33

  ==> Algorithm <==

  SCF Algorithm Type is DF.
  DIIS enabled.
  MOM disabled.
  Fractional occupation disabled.
  Guess Type is READ.
  Energy threshold   = 1.00e-10
  Density threshold  = 1.00e-10
  Integral threshold = 0.00e+00

  ==> Primary Basis <==

  Basis Set: AUG-CC-PVTZ
    Number of shells: 274
    Number of basis function: 782
    Number of Cartesian functions: 890
    Spherical Harmonics?: true
    Max angular momentum: 3

  ==> Pre-Iterations <==

   -------------------------------------------------------
    Irrep   Nso     Nmo     Nalpha   Nbeta   Ndocc  Nsocc
   -------------------------------------------------------
     A        782     782       0       0       0       0
   -------------------------------------------------------
    Total     782     782      33      33      33       0
   -------------------------------------------------------

  ==> Integral Setup <==

  ==> DFJK: Density-Fitted J/K Matrices <==

    J tasked:                  Yes
    K tasked:                  Yes
    wK tasked:                  No
    OpenMP threads:             12
    Integrals threads:          12
    Memory (MB):             42915
    Algorithm:                Core
    Integral Cache:           NONE
    Schwarz Cutoff:          1E-12
    Fitting Condition:       1E-12

   => Auxiliary Basis Set <=

  Basis Set: 
    Number of shells: 492
    Number of basis function: 1660
    Number of Cartesian functions: 2038
    Spherical Harmonics?: true
    Max angular momentum: 4

  Minimum eigenvalue in the overlap matrix is 1.2843262032E-06.
  Using Symmetric Orthogonalization.
  SCF Guess: Reading in previously saved MOs, projecting if necessary.

  Using orbitals from previous SCF, no projection.
  Recomputing DOCC and SOCC from number of alpha and beta electrons from previous calculation.
              A 
    DOCC [    33 ]

  ==> Iterations <==

                           Total Energy        Delta E     RMS |[F,P]|

   @DF-RHF iter   0:  -313.53664304041104   -3.13537e+02   3.76451e-07 
   @DF-RHF iter   1:  -313.53661559356738    2.74468e-05   7.98201e-08 
   @DF-RHF iter   2:  -313.53661559693819   -3.37081e-09   3.33330e-08 DIIS
   @DF-RHF iter   3:  -313.53661559743477   -4.96584e-10   1.37356e-08 DIIS
   @DF-RHF iter   4:  -313.53661559754505   -1.10276e-10   1.50958e-09 DIIS
   @DF-RHF iter   5:  -313.53661559754710   -2.04636e-12   5.12487e-10 DIIS
   @DF-RHF iter   6:  -313.53661559754653    5.68434e-13   1.21807e-10 DIIS
   @DF-RHF iter   7:  -313.53661559754642    1.13687e-13   2.96068e-11 DIIS

  ==> Post-Iterations <==

    Orbital Energies (a.u.)
    -----------------------

    Doubly Occupied:                                                      

       1A    -11.212739     2A    -11.212219     3A    -11.210895  
       4A    -11.210291     5A    -11.209793     6A    -11.209431  
       7A    -11.206969     8A    -11.206317     9A     -1.094039  
      10A     -1.059226    11A     -1.006072    12A     -0.947848  
      13A     -0.887457    14A     -0.836500    15A     -0.779093  
      16A     -0.756932    17A     -0.649136    18A     -0.624356  
      19A     -0.609367    20A     -0.605155    21A     -0.572894  
      22A     -0.552835    23A     -0.548571    24A     -0.536635  
      25A     -0.513270    26A     -0.503429    27A     -0.488001  
      28A     -0.475966    29A     -0.465377    30A     -0.459688  
      31A     -0.445279    32A     -0.439007    33A     -0.431270  

    Virtual:                                                              

      34A      0.028923    35A      0.033166    36A      0.034174  
      37A      0.034745    38A      0.046768    39A      0.048616  
      40A      0.049263    41A      0.053190    42A      0.055819  
      43A      0.068504    44A      0.068800    45A      0.072317  
      46A      0.073852    47A      0.077355    48A      0.081378  
      49A      0.095491    50A      0.098218    51A      0.099882  
      52A      0.116177    53A      0.117910    54A      0.120255  
      55A      0.122401    56A      0.128170    57A      0.132163  
      58A      0.135016    59A      0.138793    60A      0.141435  
      61A      0.142609    62A      0.146287    63A      0.147143  
      64A      0.155041    65A      0.156025    66A      0.162997  
      67A      0.164392    68A      0.166874    69A      0.170491  
      70A      0.176539    71A      0.181712    72A      0.183301  
      73A      0.186370    74A      0.192171    75A      0.196933  
      76A      0.198226    77A      0.204611    78A      0.217481  
      79A      0.222987    80A      0.230027    81A      0.233437  
      82A      0.242651    83A      0.253938    84A      0.265851  
      85A      0.269859    86A      0.270790    87A      0.283411  
      88A      0.284716    89A      0.295615    90A      0.297637  
      91A      0.304512    92A      0.306214    93A      0.312341  
      94A      0.315843    95A      0.319287    96A      0.323598  
      97A      0.326314    98A      0.327391    99A      0.336454  
     100A      0.340326   101A      0.342065   102A      0.345866  
     103A      0.348040   104A      0.350992   105A      0.354861  
     106A      0.359974   107A      0.362959   108A      0.368021  
     109A      0.370642   110A      0.375115   111A      0.378159  
     112A      0.381286   113A      0.383744   114A      0.388857  
     115A      0.389385   116A      0.394173   117A      0.401333  
     118A      0.403994   119A      0.405879   120A      0.411034  
     121A      0.420236   122A      0.422338   123A      0.429529  
     124A      0.435141   125A      0.436782   126A      0.442881  
     127A      0.443665   128A      0.448045   129A      0.451773  
     130A      0.454554   131A      0.457639   132A      0.459763  
     133A      0.468281   134A      0.468484   135A      0.472835  
     136A      0.477850   137A      0.481662   138A      0.485549  
     139A      0.489833   140A      0.492265   141A      0.495305  
     142A      0.499558   143A      0.507419   144A      0.510039  
     145A      0.513797   146A      0.517527   147A      0.521274  
     148A      0.523247   149A      0.525334   150A      0.529274  
     151A      0.534854   152A      0.538816   153A      0.540522  
     154A      0.556427   155A      0.558212   156A      0.559959  
     157A      0.563073   158A      0.567512   159A      0.574071  
     160A      0.576009   161A      0.581425   162A      0.584158  
     163A      0.590858   164A      0.592545   165A      0.599172  
     166A      0.604893   167A      0.611704   168A      0.617028  
     169A      0.624184   170A      0.627793   171A      0.628429  
     172A      0.634274   173A      0.641133   174A      0.643418  
     175A      0.648686   176A      0.654439   177A      0.663007  
     178A      0.664125   179A      0.668295   180A      0.671130  
     181A      0.676496   182A      0.686703   183A      0.689286  
     184A      0.692243   185A      0.696480   186A      0.702366  
     187A      0.708434   188A      0.713331   189A      0.715454  
     190A      0.721119   191A      0.728130   192A      0.736208  
     193A      0.744516   194A      0.748534   195A      0.751253  
     196A      0.756062   197A      0.768104   198A      0.769983  
     199A      0.778030   200A      0.792014   201A      0.794665  
     202A      0.806695   203A      0.816109   204A      0.825330  
     205A      0.831905   206A      0.837677   207A      0.842107  
     208A      0.854031   209A      0.858569   210A      0.868025  
     211A      0.870076   212A      0.875999   213A      0.881287  
     214A      0.884871   215A      0.888837   216A      0.895516  
     217A      0.902146   218A      0.911979   219A      0.914837  
     220A      0.918420   221A      0.927599   222A      0.928908  
     223A      0.932127   224A      0.938240   225A      0.946824  
     226A      0.948936   227A      0.955858   228A      0.960753  
     229A      0.961788   230A      0.968280   231A      0.973382  
     232A      0.977078   233A      0.980258   234A      0.985036  
     235A      0.988857   236A      0.992446   237A      1.004192  
     238A      1.012391   239A      1.014582   240A      1.019469  
     241A      1.020597   242A      1.026249   243A      1.030313  
     244A      1.037957   245A      1.040890   246A      1.051259  
     247A      1.055099   248A      1.067538   249A      1.071285  
     250A      1.074824   251A      1.076921   252A      1.079394  
     253A      1.089384   254A      1.092068   255A      1.099659  
     256A      1.104457   257A      1.111528   258A      1.117310  
     259A      1.118550   260A      1.124981   261A      1.133763  
     262A      1.137644   263A      1.142021   264A      1.150558  
     265A      1.155998   266A      1.158293   267A      1.162025  
     268A      1.169793   269A      1.181696   270A      1.184481  
     271A      1.187349   272A      1.195366   273A      1.197230  
     274A      1.200090   275A      1.205361   276A      1.213848  
     277A      1.221145   278A      1.223335   279A      1.226276  
     280A      1.229651   281A      1.233172   282A      1.238258  
     283A      1.247363   284A      1.253400   285A      1.257816  
     286A      1.268725   287A      1.271922   288A      1.276435  
[...]
	Projected energy change by RFO approximation:        -0.0000000000

	Back-transformation to cartesian coordinates...
	Successfully converged to displaced geometry.

	--- Internal Coordinate Step in ANG or DEG, aJ/ANG or AJ/DEG ---
	 ---------------------------------------------------------------------------
	   Coordinate                Previous        Force       Change         New 
	   ----------                --------       ------       ------       ------
	    1 R(1,2)          =      1.089794     0.000001    -0.000000     1.089794
	    2 R(1,3)          =      1.091507     0.000002    -0.000000     1.091507
	    3 R(1,4)          =      1.089278     0.000002    -0.000000     1.089278
	    4 R(1,9)          =      1.525377    -0.000001    -0.000000     1.525377
	    5 R(5,6)          =      1.089984     0.000000    -0.000000     1.089983
	    6 R(5,7)          =      1.089486     0.000001    -0.000000     1.089486
	    7 R(5,8)          =      1.091347     0.000000    -0.000000     1.091347
	    8 R(5,12)         =      1.524458    -0.000003    -0.000000     1.524457
	    9 R(9,10)         =      1.092288     0.000002     0.000000     1.092288
	   10 R(9,11)         =      1.093707     0.000003     0.000000     1.093707
	   11 R(9,15)         =      1.526971     0.000000     0.000000     1.526971
	   12 R(12,13)        =      1.092559     0.000001    -0.000000     1.092559
	   13 R(12,14)        =      1.092635     0.000004     0.000000     1.092635
	   14 R(12,24)        =      1.527224     0.000001     0.000000     1.527225
	   15 R(15,16)        =      1.092586     0.000005     0.000000     1.092586
	   16 R(15,17)        =      1.094030     0.000004     0.000000     1.094030
	   17 R(15,18)        =      1.527523    -0.000002    -0.000000     1.527523
	   18 R(18,19)        =      1.093902     0.000005     0.000000     1.093902
	   19 R(18,20)        =      1.093739     0.000005     0.000000     1.093739
	   20 R(18,21)        =      1.535261    -0.000000    -0.000000     1.535260
	   21 R(21,22)        =      1.092238     0.000003     0.000000     1.092238
	   22 R(21,23)        =      1.093524     0.000007     0.000000     1.093525
	   23 R(21,24)        =      1.530109     0.000001     0.000000     1.530109
	   24 R(24,25)        =      1.093923     0.000006     0.000000     1.093923
	   25 R(24,26)        =      1.094470     0.000004     0.000000     1.094471
	   26 B(1,9,10)       =    109.070188     0.000000    -0.000005   109.070184
	   27 B(1,9,11)       =    109.700498    -0.000000    -0.000006   109.700492
	   28 B(1,9,15)       =    113.147489    -0.000000     0.000015   113.147504
	   29 B(2,1,3)        =    107.838847     0.000000     0.000003   107.838850
	   30 B(2,1,4)        =    107.571394     0.000000     0.000000   107.571394
	   31 B(2,1,9)        =    111.226931    -0.000000    -0.000013   111.226919
	   32 B(3,1,4)        =    107.821434    -0.000000     0.000007   107.821442
	   33 B(3,1,9)        =    110.544219     0.000000     0.000003   110.544222
	   34 B(4,1,9)        =    111.671840     0.000000     0.000001   111.671841
	   35 B(5,12,13)      =    109.018841     0.000000     0.000043   109.018884
	   36 B(5,12,14)      =    110.144855    -0.000000    -0.000023   110.144832
	   37 B(5,12,24)      =    113.143794    -0.000000    -0.000044   113.143750
	   38 B(6,5,7)        =    107.680482     0.000000    -0.000001   107.680481
	   39 B(6,5,8)        =    107.866714     0.000000     0.000004   107.866719
	   40 B(6,5,12)       =    111.273798    -0.000000    -0.000011   111.273787
	   41 B(7,5,8)        =    107.662409    -0.000000     0.000002   107.662411
	   42 B(7,5,12)       =    111.720809     0.000000     0.000022   111.720831
	   43 B(8,5,12)       =    110.467992    -0.000000    -0.000016   110.467976
	   44 B(9,15,16)      =    108.904507    -0.000000     0.000029   108.904536
	   45 B(9,15,17)      =    109.275418     0.000000    -0.000039   109.275380
	   46 B(9,15,18)      =    113.415709    -0.000000    -0.000007   113.415702
	   47 B(10,9,11)      =    106.504799    -0.000000    -0.000008   106.504791
	   48 B(10,9,15)      =    109.008092     0.000000     0.000003   109.008096
	   49 B(11,9,15)      =    109.191235     0.000000    -0.000001   109.191234
	   50 B(12,24,21)     =    115.598380    -0.000000     0.000042   115.598422
	   51 B(12,24,25)     =    108.914805     0.000000     0.000003   108.914808
	   52 B(12,24,26)     =    108.550369     0.000000    -0.000012   108.550357
	   53 B(13,12,14)     =    105.996082    -0.000000    -0.000008   105.996074
	   54 B(13,12,24)     =    108.489543    -0.000000    -0.000015   108.489529
	   55 B(14,12,24)     =    109.780400     0.000000     0.000049   109.780449
	   56 B(15,18,19)     =    107.466255    -0.000000    -0.000008   107.466247
	   57 B(15,18,20)     =    110.209797    -0.000000     0.000006   110.209803
	   58 B(15,18,21)     =    114.346672     0.000000     0.000031   114.346704
	   59 B(16,15,17)     =    106.407843    -0.000000    -0.000016   106.407827
	   60 B(16,15,18)     =    110.416752     0.000000     0.000053   110.416805
	   61 B(17,15,18)     =    108.177280     0.000000    -0.000022   108.177257
	   62 B(18,21,22)     =    109.202048     0.000000    -0.000034   109.202014
	   63 B(18,21,23)     =    109.459725     0.000000     0.000032   109.459757
	   64 B(18,21,24)     =    114.174765    -0.000000     0.000002   114.174767
	   65 B(19,18,20)     =    106.188423     0.000000     0.000005   106.188429
	   66 B(19,18,21)     =    109.472139    -0.000000    -0.000030   109.472108
	   67 B(20,18,21)     =    108.838097    -0.000000    -0.000007   108.838090
	   68 B(21,24,25)     =    108.069456     0.000000     0.000001   108.069456
	   69 B(21,24,26)     =    108.903248    -0.000000    -0.000030   108.903218
	   70 B(22,21,23)     =    105.918821     0.000000     0.000003   105.918824
	   71 B(22,21,24)     =    107.424587    -0.000000    -0.000042   107.424545
	   72 B(23,21,24)     =    110.311375     0.000000     0.000036   110.311411
	   73 B(25,24,26)     =    106.425933    -0.000000    -0.000007   106.425926
	   74 D(1,9,15,16)    =    -56.795175    -0.000000    -0.000127   -56.795302
	   75 D(1,9,15,17)    =   -172.648829    -0.000000    -0.000103  -172.648931
	   76 D(1,9,15,18)    =     66.581241    -0.000000    -0.000042    66.581199
	   77 D(2,1,9,10)     =     54.408054    -0.000000    -0.000048    54.408007
	   78 D(2,1,9,11)     =    -61.891363     0.000000    -0.000032   -61.891394
	   79 D(2,1,9,15)     =    175.913387     0.000000    -0.000036   175.913351
	   80 D(3,1,9,10)     =    -65.362127    -0.000000    -0.000045   -65.362172
	   81 D(3,1,9,11)     =    178.338456     0.000000    -0.000029   178.338427
	   82 D(3,1,9,15)     =     56.143206     0.000000    -0.000034    56.143172
	   83 D(4,1,9,10)     =    174.596746    -0.000000    -0.000056   174.596690
	   84 D(4,1,9,11)     =     58.297329    -0.000000    -0.000040    58.297289
	   85 D(4,1,9,15)     =    -63.897921    -0.000000    -0.000045   -63.897966
	   86 D(5,12,24,21)   =    -63.797366     0.000000     0.000193   -63.797173
	   87 D(5,12,24,25)   =    174.350737     0.000000     0.000160   174.350897
	   88 D(5,12,24,26)   =     58.864935     0.000000     0.000174    58.865109
	   89 D(6,5,12,13)    =    -56.530045    -0.000000    -0.000208   -56.530254
	   90 D(6,5,12,14)    =     59.377702    -0.000000    -0.000206    59.377496
	   91 D(6,5,12,24)    =   -177.336408     0.000000    -0.000191  -177.336600
	   92 D(7,5,12,13)    =   -176.923454    -0.000000    -0.000215  -176.923669
	   93 D(7,5,12,14)    =    -61.015707    -0.000000    -0.000212   -61.015919
	   94 D(7,5,12,24)    =     62.270183     0.000000    -0.000198    62.269986
	   95 D(8,5,12,13)    =     63.255302    -0.000000    -0.000221    63.255081
	   96 D(8,5,12,14)    =    179.163049    -0.000000    -0.000219   179.162830
	   97 D(8,5,12,24)    =    -57.551061     0.000000    -0.000204   -57.551265
	   98 D(9,15,18,19)   =     56.359769     0.000000    -0.000056    56.359713
	   99 D(9,15,18,20)   =    -58.935136     0.000000    -0.000061   -58.935197
	  100 D(9,15,18,21)   =    178.092117     0.000000    -0.000080   178.092037
	  101 D(10,9,15,16)   =     64.745095    -0.000000    -0.000121    64.744975
	  102 D(10,9,15,17)   =    -51.108558    -0.000000    -0.000096   -51.108654
	  103 D(10,9,15,18)   =   -171.878489    -0.000000    -0.000035  -171.878524
	  104 D(11,9,15,16)   =   -179.274430    -0.000000    -0.000129  -179.274559
	  105 D(11,9,15,17)   =     64.871916     0.000000    -0.000104    64.871812
	  106 D(11,9,15,18)   =    -55.898015     0.000000    -0.000043   -55.898058
	  107 D(12,24,21,18)  =    -60.776974    -0.000000    -0.000141   -60.777115
	  108 D(12,24,21,22)  =    177.975160    -0.000000    -0.000069   177.975090
	  109 D(12,24,21,23)  =     62.970338    -0.000000    -0.000068    62.970270
	  110 D(13,12,24,21)  =    175.096654     0.000000     0.000177   175.096831
	  111 D(13,12,24,25)  =     53.244757     0.000000     0.000144    53.244901
	  112 D(13,12,24,26)  =    -62.241045     0.000000     0.000158   -62.240887
	  113 D(14,12,24,21)  =     59.689396     0.000000     0.000168    59.689564
	  114 D(14,12,24,25)  =    -62.162501    -0.000000     0.000135   -62.162366
	  115 D(14,12,24,26)  =   -177.648303    -0.000000     0.000149  -177.648154
	  116 D(15,18,21,22)  =   -144.939455    -0.000000    -0.000175  -144.939630
	  117 D(15,18,21,23)  =    -29.403000    -0.000000    -0.000173   -29.403173
	  118 D(15,18,21,24)  =     94.801435    -0.000000    -0.000098    94.801337
	  119 D(16,15,18,19)  =    178.902897    -0.000000     0.000017   178.902914
	  120 D(16,15,18,20)  =     63.607992    -0.000000     0.000012    63.608004
	  121 D(16,15,18,21)  =    -59.364755     0.000000    -0.000007   -59.364762
	  122 D(17,15,18,19)  =    -65.027799     0.000000     0.000014   -65.027785
	  123 D(17,15,18,20)  =    179.677297     0.000000     0.000008   179.677305
	  124 D(17,15,18,21)  =     56.704549     0.000000    -0.000010    56.704539
	  125 D(18,21,24,25)  =     61.526019    -0.000000    -0.000108    61.525911
	  126 D(18,21,24,26)  =    176.748007    -0.000000    -0.000132   176.747875
	  127 D(19,18,21,22)  =    -24.314349    -0.000000    -0.000186   -24.314535
	  128 D(19,18,21,23)  =     91.222105     0.000000    -0.000184    91.221922
	  129 D(19,18,21,24)  =   -144.573459     0.000000    -0.000109  -144.573568
	  130 D(20,18,21,22)  =     91.348508    -0.000000    -0.000200    91.348308
	  131 D(20,18,21,23)  =   -153.115038    -0.000000    -0.000198  -153.115236
	  132 D(20,18,21,24)  =    -28.910602     0.000000    -0.000123   -28.910725
	  133 D(22,21,24,25)  =    -59.721847     0.000000    -0.000036   -59.721884
	  134 D(22,21,24,26)  =     55.500140     0.000000    -0.000060    55.500080
	  135 D(23,21,24,25)  =   -174.726669     0.000000    -0.000035  -174.726704
	  136 D(23,21,24,26)  =    -59.504682     0.000000    -0.000059   -59.504740
	  137 R(5,15)         =      3.665525    -0.000000    -0.000001     3.665524
	  138 R(12,15)        =      3.426318     0.000002     0.000001     3.426319
	 ---------------------------------------------------------------------------

  ==> Convergence Check <==

  Measures of convergence in internal coordinates in au.
  Criteria marked as inactive (o), active & met (*), and active & unmet ( ).
  ---------------------------------------------------------------------------------------------
   Step     Total Energy     Delta E     MAX Force     RMS Force      MAX Disp      RMS Disp   
  ---------------------------------------------------------------------------------------------
    Convergence Criteria             o    2.00e-06 *    1.00e-06 *    6.00e-06 *    4.00e-06 *
  ---------------------------------------------------------------------------------------------
     30    -314.98072249    4.60e-09 o    8.18e-07 *    1.84e-07 *    3.86e-06 *    1.56e-06 *  ~
  ---------------------------------------------------------------------------------------------


  **** Optimization is complete! (in 30 steps) ****

  ==> Optimization Summary <==

  Measures of convergence in internal coordinates in au.
  --------------------------------------------------------------------------------------------------------------- ~
   Step         Total Energy             Delta E       MAX Force       RMS Force        MAX Disp        RMS Disp  ~
  --------------------------------------------------------------------------------------------------------------- ~
      1    -314.980722489727   -314.980722489727      0.00000170      0.00000034      0.00008925      0.00003847  ~
      2    -314.980722487119      0.000000002607      0.00000181      0.00000054      0.00008607      0.00002881  ~
      3    -314.980722487359     -0.000000000240      0.00000094      0.00000023      0.00006000      0.00002044  ~
      4    -314.980722490559     -0.000000003200      0.00000278      0.00000055      0.00009024      0.00002451  ~
      5    -314.980722488454      0.000000002105      0.00000225      0.00000048      0.00004303      0.00001516  ~
      6    -314.980722485646      0.000000002808      0.00000216      0.00000049      0.00005097      0.00001596  ~
      7    -314.980722485690     -0.000000000044      0.00000061      0.00000017      0.00004897      0.00001593  ~
      8    -314.980722490940     -0.000000005250      0.00000177      0.00000040      0.00002487      0.00000646  ~
      9    -314.980722490980     -0.000000000040      0.00000031      0.00000007      0.00001424      0.00000472  ~
     10    -314.980722490844      0.000000000136      0.00000079      0.00000019      0.00001632      0.00000394  ~
     11    -314.980722487869      0.000000002975      0.00000255      0.00000063      0.00061815      0.00016877  ~
     12    -314.980722478697      0.000000009172      0.00001014      0.00000244      0.00055491      0.00015567  ~
     13    -314.980722491013     -0.000000012317      0.00000147      0.00000028      0.00005260      0.00001313  ~
     14    -314.980722489733      0.000000001280      0.00000100      0.00000023      0.00001620      0.00000554  ~
     15    -314.980722484362      0.000000005371      0.00000101      0.00000022      0.00001382      0.00000495  ~
     16    -314.980722488059     -0.000000003697      0.00000072      0.00000016      0.00003058      0.00000672  ~
     17    -314.980722491214     -0.000000003155      0.00000078      0.00000018      0.00001836      0.00000525  ~
     18    -314.980722489006      0.000000002208      0.00000202      0.00000045      0.00005525      0.00001284  ~
     19    -314.980722485379      0.000000003627      0.00000052      0.00000009      0.00001104      0.00000391  ~
     20    -314.980722487151     -0.000000001772      0.00000277      0.00000060      0.00002861      0.00000829  ~
     21    -314.980722488589     -0.000000001438      0.00000054      0.00000012      0.00001885      0.00000446  ~
     22    -314.980722485281      0.000000003308      0.00000146      0.00000036      0.00014826      0.00003224  ~
     23    -314.980722486127     -0.000000000846      0.00000206      0.00000053      0.00012659      0.00002649  ~
     24    -314.980722485498      0.000000000628      0.00000174      0.00000036      0.00002281      0.00000657  ~
     25    -314.980722487876     -0.000000002377      0.00000091      0.00000018      0.00001000      0.00000318  ~
     26    -314.980722487598      0.000000000278      0.00000054      0.00000012      0.00000779      0.00000269  ~
     27    -314.980722491664     -0.000000004066      0.00000065      0.00000015      0.00001895      0.00000479  ~
     28    -314.980722484640      0.000000007024      0.00000153      0.00000025      0.00001587      0.00000513  ~
     29    -314.980722494672     -0.000000010032      0.00000249      0.00000053      0.00001325      0.00000376  ~
     30    -314.980722490076      0.000000004596      0.00000082      0.00000018      0.00000386      0.00000156  ~
  --------------------------------------------------------------------------------------------------------------- ~

	Writing optimization data to binary file.
	Final energy is   -314.9807224900763
	Final (previous) structure:
	Cartesian Geometry (in Angstrom)
	    C    -2.8817246860   0.6412912538   0.8866395171
	    H    -3.9425179292   0.8505858562   1.0228902685
	    H    -2.3242322934   1.5303572394   1.1868921259
	    H    -2.6154330789  -0.1652795419   1.5685914645
	    C     2.2883573439   1.4709106951  -0.4675639159
	    H     2.2741561090   2.5497194374  -0.3125332468
	    H     1.6295159376   1.2484500117  -1.3062643642
	    H     3.3014666269   1.1877094067  -0.7581597172
	    C    -2.5719029920   0.2791863625  -0.5623824898
	    H    -2.9418561136   1.0727251957  -1.2154704830
	    H    -3.1141766905  -0.6293210663  -0.8394160811
	    C     1.8674608659   0.7252752005   0.7937233552
	    H     2.5214578163   1.0213441364   1.6173229397
	    H     0.8584668532   1.0236779925   1.0882383649
	    C    -1.0816479180   0.0738167254  -0.8243044091
	    H    -0.5431558790   0.9790598650  -0.5339500257
	    H    -0.9177698189  -0.0520661916  -1.8986411476
	    C    -0.5015849283  -1.1441905088  -0.1078467713
	    H    -1.0858300611  -2.0158916326  -0.4167422060
	    H    -0.6428068060  -1.0497514226   0.9726175949
	    C     0.9855033861  -1.3975590509  -0.3931500108
	    H     1.1686128489  -2.4741009625  -0.4157980685
	    H     1.2323415927  -1.0302375187  -1.3931206165
	    C     1.9343666127  -0.7931122158   0.6439307794
	    H     1.7178458169  -1.2548001844   1.6117270833
	    H     2.9616004834  -1.0730543795   0.3903794370
	Saving final (previous) structure.
			--------------------------
			 OPTKING Finished Execution 
			--------------------------

    Final optimized geometry and variables:
    Molecular point group: c1
    Full point group: C1

    Geometry (in Angstrom), charge = 0, multiplicity = 1:

    C           -2.881724685989     0.641291253844     0.886639517081
    H           -3.942517929164     0.850585856202     1.022890268479
    H           -2.324232293377     1.530357239432     1.186892125935
    H           -2.615433078920    -0.165279541933     1.568591464468
    C            2.288357343900     1.470910695089    -0.467563915858
    H            2.274156109029     2.549719437399    -0.312533246831
    H            1.629515937601     1.248450011654    -1.306264364229
    H            3.301466626893     1.187709406698    -0.758159717220
    C           -2.571902992041     0.279186362475    -0.562382489774
    H           -2.941856113592     1.072725195671    -1.215470482966
    H           -3.114176690455    -0.629321066307    -0.839416081146
    C            1.867460865919     0.725275200537     0.793723355203
    H            2.521457816267     1.021344136369     1.617322939725
    H            0.858466853168     1.023677992456     1.088238364853
    C           -1.081647918006     0.073816725360    -0.824304409101
    H           -0.543155878973     0.979059864985    -0.533950025672
    H           -0.917769818928    -0.052066191637    -1.898641147608
    C           -0.501584928265    -1.144190508768    -0.107846771272
    H           -1.085830061134    -2.015891632571    -0.416742205961
    H           -0.642806806024    -1.049751422609     0.972617594910
    C            0.985503386084    -1.397559050906    -0.393150010786
    H            1.168612848860    -2.474100962495    -0.415798068485
    H            1.232341592707    -1.030237518730    -1.393120616539
    C            1.934366612746    -0.793112215847     0.643930779353
    H            1.717845816891    -1.254800184409     1.611727083296
    H            2.961600483439    -1.073054379541     0.390379437032

	Cleaning optimization helper files.

*** Psi4 exiting successfully. Buy a developer a beer!
