    -----------------------------------------------------------------------
          Psi4: An Open-Source Ab Initio Electronic Structure Package
                              Psi4 1.0.0 Driver

                          Git: Rev {master} 6a9a71b dirty

    J. M. Turney, A. C. Simmonett, R. M. Parrish, E. G. Hohenstein,
    F. A. Evangelista, J. T. Fermann, B. J. Mintz, L. A. Burns, J. J. Wilke,
    M. L. Abrams, N. J. Russ, M. L. Leininger, C. L. Janssen, E. T. Seidl,
    W. D. Allen, H. F. Schaefer, R. A. King, E. F. Valeev, C. D. Sherrill,
    and T. D. Crawford, WIREs Comput. Mol. Sci. 2, 556-565 (2012)
    (doi: 10.1002/wcms.93)

                         Additional Contributions by
    A. E. DePrince, U. Bozkaya, A. Yu. Sokolov, D. G. A. Smith, R. Di Remigio,
    R. M. Richard, J. F. Gonthier, H. R. McAlexander, M. Saitow, and
    B. P. Pritchard
    -----------------------------------------------------------------------


    Psi4 started on: Tue Sep 20 22:40:02 2016

    Process ID:  24471
    PSI4DATADIR: /usr/local/hpc5/psi4conda/share/psi4
    Memory level set to 256.000 MB

  ==> Input File <==

--------------------------------------------------------------------------
memory 60 Gb

molecule molecule_20_psi {
0 1
C           -4.024377127551    -0.734248995812     0.045254806897
H           -5.026513811847    -0.413831839770    -0.238582788264
H           -4.045466382370    -1.005329543578     1.101544666654
H           -3.786300246599    -1.634088698602    -0.523278105005
C            3.913916045766     0.221452400636    -0.150792596091
H            3.923114583182     0.458633257323    -1.216005617175
H            4.918698246435    -0.093471368417     0.129972932471
H            3.693388540554     1.138757799795     0.393346771355
C           -2.990889210616     0.355463649578    -0.211415711712
H           -3.259212324140     1.258056006557     0.343979505969
H           -2.998269511628     0.629686297924    -1.269772823361
C            2.892379469192    -0.871273941964     0.146433456685
H            3.212163813485    -1.798320849605    -0.334568622077
H            2.870786006391    -1.072177801082     1.221205802689
C           -1.582517545434    -0.073131816326     0.182042862953
H           -1.325711758099    -0.983607412951    -0.365486577698
H           -1.568609695472    -0.334832266798     1.245693087336
C           -0.543022432878     1.010420025184    -0.081131581469
H           -0.869863870793     1.932456423783     0.408467219894
H           -0.511146812512     1.225259754933    -1.154316681071
C            0.862547451706     0.658934170226     0.402960892916
H            1.504385611201     1.533905978486     0.280167829790
H            0.831015787227     0.443153167753     1.476466746916
C            1.479838745550    -0.530406440717    -0.325482356670
H            0.843621143563    -1.407790566866    -0.192077960341
H            1.500149693585    -0.319500132288    -1.400459433035
}

set globals {
  reference rhf
  g_convergence gau_verytight
  basis aug-cc-pvtz
  freeze_core true
  scf_type df
  mp_type df
}
optimize('mp2')
--------------------------------------------------------------------------
/usr/local/hpc5/psi4conda/lib/python2.7/site-packages/v2rdm_casscf/v2rdm_casscf.so loaded.

  Memory set to  60.000 GiB by Python script.
gradient() will perform analytic gradient computation.

*** tstart() called on wr33
*** at Tue Sep 20 22:40:03 2016


         ---------------------------------------------------------
                                   SCF
            by Justin Turney, Rob Parrish, and Andy Simmonett
                              RHF Reference
                       12 Threads,  60000 MiB Core
         ---------------------------------------------------------

  ==> Geometry <==

    Molecular point group: c1
    Full point group: C1

    Geometry (in Angstrom), charge = 0, multiplicity = 1:

       Center              X                  Y                   Z               Mass       
    ------------   -----------------  -----------------  -----------------  -----------------
           C         -4.024377127551    -0.734248995812     0.045254806897    12.000000000000
           H         -5.026513811847    -0.413831839770    -0.238582788264     1.007825032070
           H         -4.045466382370    -1.005329543578     1.101544666654     1.007825032070
           H         -3.786300246599    -1.634088698602    -0.523278105005     1.007825032070
           C          3.913916045766     0.221452400636    -0.150792596091    12.000000000000
           H          3.923114583182     0.458633257323    -1.216005617175     1.007825032070
           H          4.918698246435    -0.093471368417     0.129972932471     1.007825032070
           H          3.693388540554     1.138757799795     0.393346771355     1.007825032070
           C         -2.990889210616     0.355463649578    -0.211415711712    12.000000000000
           H         -3.259212324140     1.258056006557     0.343979505969     1.007825032070
           H         -2.998269511628     0.629686297924    -1.269772823361     1.007825032070
           C          2.892379469192    -0.871273941964     0.146433456685    12.000000000000
           H          3.212163813485    -1.798320849605    -0.334568622077     1.007825032070
           H          2.870786006391    -1.072177801082     1.221205802689     1.007825032070
           C         -1.582517545434    -0.073131816326     0.182042862953    12.000000000000
           H         -1.325711758099    -0.983607412951    -0.365486577698     1.007825032070
           H         -1.568609695472    -0.334832266798     1.245693087336     1.007825032070
           C         -0.543022432878     1.010420025184    -0.081131581469    12.000000000000
           H         -0.869863870793     1.932456423783     0.408467219894     1.007825032070
           H         -0.511146812512     1.225259754933    -1.154316681071     1.007825032070
           C          0.862547451706     0.658934170226     0.402960892916    12.000000000000
           H          1.504385611201     1.533905978486     0.280167829790     1.007825032070
           H          0.831015787227     0.443153167753     1.476466746916     1.007825032070
           C          1.479838745550    -0.530406440717    -0.325482356670    12.000000000000
           H          0.843621143563    -1.407790566866    -0.192077960341     1.007825032070
           H          1.500149693585    -0.319500132288    -1.400459433035     1.007825032070

  Running in c1 symmetry.

  Rotational constants: A =      0.20993  B =      0.02023  C =      0.01925 [cm^-1]
  Rotational constants: A =   6293.47230  B =    606.46352  C =    576.97035 [MHz]
  Nuclear repulsion =  385.340006360537416

  Charge       = 0
  Multiplicity = 1
  Electrons    = 66
  Nalpha       = 33
  Nbeta        = 33

  ==> Algorithm <==

  SCF Algorithm Type is DF.
  DIIS enabled.
  MOM disabled.
  Fractional occupation disabled.
  Guess Type is SAD.
  Energy threshold   = 1.00e-10
  Density threshold  = 1.00e-10
  Integral threshold = 0.00e+00

  ==> Primary Basis <==

  Basis Set: AUG-CC-PVTZ
    Number of shells: 274
    Number of basis function: 782
    Number of Cartesian functions: 890
    Spherical Harmonics?: true
    Max angular momentum: 3

  ==> Pre-Iterations <==

   -------------------------------------------------------
    Irrep   Nso     Nmo     Nalpha   Nbeta   Ndocc  Nsocc
   -------------------------------------------------------
     A        782     782       0       0       0       0
   -------------------------------------------------------
    Total     782     782      33      33      33       0
   -------------------------------------------------------

  ==> Integral Setup <==

  ==> DFJK: Density-Fitted J/K Matrices <==

    J tasked:                  Yes
    K tasked:                  Yes
    wK tasked:                  No
    OpenMP threads:             12
    Integrals threads:          12
    Memory (MB):             42915
    Algorithm:                Core
    Integral Cache:           NONE
    Schwarz Cutoff:          1E-12
    Fitting Condition:       1E-12

   => Auxiliary Basis Set <=

  Basis Set: 
    Number of shells: 492
    Number of basis function: 1660
    Number of Cartesian functions: 2038
    Spherical Harmonics?: true
    Max angular momentum: 4

  Minimum eigenvalue in the overlap matrix is 2.2268360134E-06.
  Using Symmetric Orthogonalization.
  SCF Guess: Superposition of Atomic Densities via on-the-fly atomic UHF.

  ==> Iterations <==

                           Total Energy        Delta E     RMS |[F,P]|

   @DF-RHF iter   0:  -316.62764405310378   -3.16628e+02   6.84515e-03 
   @DF-RHF iter   1:  -313.25487506996564    3.37277e+00   8.02745e-04 
   @DF-RHF iter   2:  -313.50220194132686   -2.47327e-01   3.08603e-04 DIIS
   @DF-RHF iter   3:  -313.53786874036217   -3.56668e-02   1.04231e-04 DIIS
   @DF-RHF iter   4:  -313.54369668566454   -5.82795e-03   1.62043e-05 DIIS
   @DF-RHF iter   5:  -313.54387155716842   -1.74872e-04   4.82331e-06 DIIS
   @DF-RHF iter   6:  -313.54388422458663   -1.26674e-05   1.40155e-06 DIIS
   @DF-RHF iter   7:  -313.54388543940962   -1.21482e-06   2.57335e-07 DIIS
   @DF-RHF iter   8:  -313.54388548993410   -5.05245e-08   7.30216e-08 DIIS
   @DF-RHF iter   9:  -313.54388549292156   -2.98746e-09   2.24005e-08 DIIS
   @DF-RHF iter  10:  -313.54388549321305   -2.91493e-10   5.35696e-09 DIIS
   @DF-RHF iter  11:  -313.54388549323443   -2.13731e-11   1.25474e-09 DIIS
   @DF-RHF iter  12:  -313.54388549323522   -7.95808e-13   3.76824e-10 DIIS
   @DF-RHF iter  13:  -313.54388549323545   -2.27374e-13   9.28126e-11 DIIS

  ==> Post-Iterations <==

    Orbital Energies (a.u.)
    -----------------------

    Doubly Occupied:                                                      

       1A    -11.212733     2A    -11.212237     3A    -11.210487  
       4A    -11.209886     5A    -11.209330     6A    -11.209168  
       7A    -11.206947     8A    -11.206353     9A     -1.093603  
      10A     -1.060952    11A     -1.010635    12A     -0.944366  
      13A     -0.887814    14A     -0.819038    15A     -0.791592  
      16A     -0.763443    17A     -0.642399    18A     -0.630458  
      19A     -0.612858    20A     -0.590754    21A     -0.580605  
      22A     -0.554161    23A     -0.544355    24A     -0.537999  
      25A     -0.511636    26A     -0.504694    27A     -0.480201  
      28A     -0.474287    29A     -0.467262    30A     -0.460122  
      31A     -0.454125    32A     -0.436290    33A     -0.435256  

    Virtual:                                                              

      34A      0.030664    35A      0.032395    36A      0.033878  
      37A      0.036671    38A      0.043846    39A      0.047654  
      40A      0.049362    41A      0.053904    42A      0.058934  
      43A      0.061182    44A      0.067349    45A      0.068120  
      46A      0.070717    47A      0.084175    48A      0.088698  
      49A      0.092274    50A      0.096133    51A      0.107725  
      52A      0.112202    53A      0.114036    54A      0.118174  
      55A      0.120284    56A      0.126682    57A      0.129544  
      58A      0.133521    59A      0.136843    60A      0.141725  
      61A      0.143416    62A      0.146544    63A      0.151659  
      64A      0.155037    65A      0.156563    66A      0.162398  
      67A      0.163775    68A      0.167692    69A      0.172846  
      70A      0.176049    71A      0.183451    72A      0.185154  
      73A      0.188708    74A      0.196995    75A      0.203788  
      76A      0.213549    77A      0.215446    78A      0.226266  
      79A      0.229051    80A      0.238848    81A      0.240980  
      82A      0.245081    83A      0.251929    84A      0.259501  
      85A      0.264168    86A      0.268416    87A      0.274091  
      88A      0.278752    89A      0.285987    90A      0.290122  
      91A      0.295878    92A      0.304669    93A      0.306920  
      94A      0.312262    95A      0.316946    96A      0.323863  
      97A      0.325148    98A      0.326335    99A      0.333353  
     100A      0.335233   101A      0.338057   102A      0.342314  
     103A      0.345914   104A      0.356112   105A      0.357900  
     106A      0.359860   107A      0.360718   108A      0.364108  
     109A      0.367665   110A      0.371655   111A      0.373686  
     112A      0.374477   113A      0.379345   114A      0.385727  
     115A      0.389249   116A      0.391817   117A      0.393287  
     118A      0.396251   119A      0.405036   120A      0.407432  
     121A      0.414719   122A      0.418239   123A      0.418273  
     124A      0.421079   125A      0.424439   126A      0.431261  
     127A      0.435163   128A      0.442084   129A      0.447051  
     130A      0.449514   131A      0.453666   132A      0.455498  
     133A      0.462532   134A      0.462876   135A      0.465943  
     136A      0.468321   137A      0.472574   138A      0.475862  
     139A      0.481349   140A      0.486618   141A      0.487455  
     142A      0.490076   143A      0.492918   144A      0.499402  
     145A      0.502041   146A      0.504165   147A      0.507039  
     148A      0.510490   149A      0.515839   150A      0.518266  
     151A      0.522965   152A      0.530222   153A      0.530616  
     154A      0.536258   155A      0.540680   156A      0.542976  
     157A      0.549144   158A      0.550854   159A      0.553784  
     160A      0.556823   161A      0.567615   162A      0.570108  
     163A      0.572092   164A      0.576058   165A      0.577945  
     166A      0.588670   167A      0.594551   168A      0.601839  
     169A      0.606359   170A      0.613292   171A      0.618184  
     172A      0.622265   173A      0.627633   174A      0.628675  
     175A      0.631959   176A      0.641794   177A      0.643551  
     178A      0.647345   179A      0.649889   180A      0.655763  
     181A      0.658544   182A      0.671759   183A      0.675947  
     184A      0.680507   185A      0.690057   186A      0.699249  
     187A      0.699582   188A      0.709454   189A      0.713462  
     190A      0.717707   191A      0.721643   192A      0.740937  
     193A      0.742108   194A      0.745002   195A      0.750071  
     196A      0.756728   197A      0.767470   198A      0.779943  
     199A      0.782611   200A      0.787157   201A      0.794458  
     202A      0.801415   203A      0.823174   204A      0.833503  
     205A      0.837569   206A      0.839897   207A      0.845030  
     208A      0.846613   209A      0.848759   210A      0.856796  
     211A      0.859273   212A      0.868217   213A      0.875608  
     214A      0.878923   215A      0.883623   216A      0.891852  
     217A      0.894477   218A      0.899414   219A      0.902374  
     220A      0.905115   221A      0.906771   222A      0.914807  
     223A      0.917217   224A      0.919629   225A      0.925976  
     226A      0.930100   227A      0.935177   228A      0.940228  
     229A      0.944840   230A      0.952275   231A      0.953494  
     232A      0.960158   233A      0.964170   234A      0.966201  
     235A      0.972647   236A      0.977108   237A      0.980488  
     238A      0.988481   239A      0.997572   240A      1.001341  
     241A      1.003395   242A      1.013311   243A      1.014670  
     244A      1.020910   245A      1.026371   246A      1.029502  
     247A      1.034721   248A      1.037515   249A      1.040049  
     250A      1.053300   251A      1.058661   252A      1.066353  
     253A      1.073138   254A      1.073933   255A      1.081374  
     256A      1.085200   257A      1.092417   258A      1.095500  
     259A      1.102358   260A      1.106224   261A      1.112658  
     262A      1.119456   263A      1.123170   264A      1.125919  
     265A      1.130754   266A      1.135885   267A      1.149389  
     268A      1.150070   269A      1.155699   270A      1.161347  
     271A      1.170266   272A      1.175691   273A      1.176358  
     274A      1.181396   275A      1.184555   276A      1.186147  
     277A      1.192630   278A      1.203710   279A      1.206910  
     280A      1.209287   281A      1.213638   282A      1.216627  
     283A      1.221459   284A      1.223967   285A      1.234323  
     286A      1.235780   287A      1.245429   288A      1.249073  
     289A      1.250932   290A      1.265271   291A      1.270727  
     292A      1.274320   293A      1.276327   294A      1.282021  
     295A      1.282846   296A      1.288775   297A      1.293809  
     298A      1.302651   299A      1.312429   300A      1.316186  
     301A      1.321770   302A      1.329015   303A      1.332805  
     304A      1.338247   305A      1.339596   306A      1.356642  
     307A      1.360988   308A      1.377555   309A      1.383126  
     310A      1.389721   311A      1.390974   312A      1.401388  
     313A      1.409422   314A      1.420282   315A      1.429374  
     316A      1.435409   317A      1.437588   318A      1.446822  
     319A      1.449345   320A      1.458513   321A      1.463428  
     322A      1.471320   323A      1.479182   324A      1.488795  
     325A      1.494451   326A      1.510066   327A      1.513709  
     328A      1.521299   329A      1.522355   330A      1.528175  
     331A      1.543079   332A      1.549900   333A      1.555817  
     334A      1.563999   335A      1.581065   336A      1.585577  
     337A      1.592563   338A      1.596520   339A      1.606788  
     340A      1.611391   341A      1.620794   342A      1.626130  
     343A      1.637686   344A      1.640042   345A      1.649764  
     346A      1.653159   347A      1.655828   348A      1.663223  
     349A      1.672906   350A      1.679235   351A      1.683171  
     352A      1.686659   353A      1.693913   354A      1.698746  
     355A      1.699779   356A      1.705372   357A      1.712440  
     358A      1.716690   359A      1.721455   360A      1.727633  
     361A      1.733185   362A      1.743514   363A      1.749555  
     364A      1.751001   365A      1.759111   366A      1.763339  
     367A      1.773984   368A      1.778649   369A      1.781390  
     370A      1.782681   371A      1.788774   372A      1.794533  
     373A      1.801955   374A      1.804983   375A      1.810489  
     376A      1.818333   377A      1.823448   378A      1.830865  
     379A      1.836971   380A      1.844213   381A      1.846761  
     382A      1.853291   383A      1.855995   384A      1.868964  
     385A      1.877914   386A      1.883278   387A      1.886587  
     388A      1.892761   389A      1.902569   390A      1.909106  
     391A      1.922086   392A      1.926381   393A      1.931040  
     394A      1.933931   395A      1.938169   396A      1.944354  
     397A      1.955879   398A      1.965441   399A      1.971810  
     400A      1.980347   401A      1.989014   402A      1.997737  
     403A      2.002448   404A      2.010501   405A      2.015165  
     406A      2.019540   407A      2.030192   408A      2.035100  
     409A      2.041843   410A      2.048565   411A      2.055660  
     412A      2.059153   413A      2.075226   414A      2.078242  
     415A      2.084424   416A      2.092179   417A      2.098331  
     418A      2.110339   419A      2.119729   420A      2.128057  
     421A      2.136431   422A      2.144864   423A      2.148351  
     424A      2.159385   425A      2.161897   426A      2.175614  
     427A      2.181039   428A      2.193821   429A      2.196342  
     430A      2.204575   431A      2.213177   432A      2.228578  
     433A      2.239651   434A      2.247075   435A      2.251664  
     436A      2.260027   437A      2.273435   438A      2.277361  
     439A      2.282533   440A      2.294696   441A      2.305958  
     442A      2.311663   443A      2.320585   444A      2.328890  
     445A      2.336514   446A      2.341625   447A      2.356126  
     448A      2.358003   449A      2.366415   450A      2.376219  
     451A      2.382091   452A      2.393880   453A      2.404789  
     454A      2.420075   455A      2.424855   456A      2.431213  
     457A      2.442159   458A      2.447956   459A      2.456956  
     460A      2.468359   461A      2.475518   462A      2.489203  
     463A      2.510048   464A      2.515618   465A      2.524862  
     466A      2.551058   467A      2.569591   468A      2.581601  
     469A      2.590108   470A      2.604132   471A      2.612464  
     472A      2.621298   473A      2.635525   474A      2.652380  
     475A      2.671025   476A      2.694658   477A      2.712379  
     478A      2.723749   479A      2.761296   480A      2.776757  
     481A      2.797381   482A      2.835149   483A      2.845248  
     484A      2.873868   485A      2.889077   486A      2.939478  
     487A      2.963597   488A      2.990859   489A      3.023554  
     490A      3.089731   491A      3.139102   492A      3.158487  
     493A      3.277267   494A      3.293325   495A      3.317150  
     496A      3.418144   497A      3.429540   498A      3.442276  
     499A      3.456398   500A      3.464758   501A      3.470924  
     502A      3.487059   503A      3.500032   504A      3.509640  
     505A      3.527886   506A      3.531681   507A      3.538130  
     508A      3.553235   509A      3.568623   510A      3.577870  
     511A      3.589310   512A      3.608284   513A      3.610008  
     514A      3.617346   515A      3.623894   516A      3.640157  
     517A      3.653772   518A      3.664507   519A      3.672772  
     520A      3.678691   521A      3.693872   522A      3.702048  
     523A      3.715387   524A      3.721173   525A      3.726108  
     526A      3.731313   527A      3.736226   528A      3.749936  
     529A      3.765330   530A      3.769074   531A      3.779484  
     532A      3.779875   533A      3.791824   534A      3.805273  
     535A      3.814967   536A      3.818671   537A      3.829734  
     538A      3.833346   539A      3.841961   540A      3.854225  
     541A      3.860223   542A      3.863761   543A      3.865787  
     544A      3.885412   545A      3.889518   546A      3.896910  
     547A      3.906583   548A      3.915002   549A      3.920505  
     550A      3.940454   551A      3.945781   552A      3.962620  
     553A      3.963578   554A      3.970044   555A      3.974304  
     556A      3.979944   557A      3.987914   558A      3.991674  
     559A      3.999306   560A      4.005569   561A      4.009652  
     562A      4.018286   563A      4.022760   564A      4.029762  
     565A      4.033611   566A      4.045671   567A      4.050225  
     568A      4.052833   569A      4.060092   570A      4.078148  
     571A      4.081614   572A      4.089171   573A      4.096966  
     574A      4.100163   575A      4.110733   576A      4.122613  
     577A      4.124217   578A      4.145628   579A      4.149006  
     580A      4.154031   581A      4.172995   582A      4.177021  
     583A      4.182633   584A      4.204347   585A      4.214928  
     586A      4.231276   587A      4.239288   588A      4.242153  
     589A      4.255049   590A      4.261820   591A      4.267799  
     592A      4.281101   593A      4.291057   594A      4.301606  
     595A      4.304952   596A      4.327733   597A      4.335050  
     598A      4.339174   599A      4.354416   600A      4.357452  
     601A      4.365557   602A      4.379847   603A      4.391907  
     604A      4.399786   605A      4.418082   606A      4.426105  
     607A      4.433864   608A      4.442538   609A      4.465467  
     610A      4.476276   611A      4.499311   612A      4.515027  
     613A      4.532381   614A      4.543146   615A      4.555358  
     616A      4.567386   617A      4.581840   618A      4.588876  
     619A      4.594351   620A      4.600264   621A      4.631028  
     622A      4.645025   623A      4.656911   624A      4.663085  
     625A      4.677853   626A      4.690560   627A      4.698189  
     628A      4.708247   629A      4.722379   630A      4.725376  
     631A      4.734834   632A      4.752019   633A      4.756745  
     634A      4.765993   635A      4.770669   636A      4.783346  
     637A      4.792984   638A      4.822053   639A      4.823879  
     640A      4.827970   641A      4.842854   642A      4.850219  
     643A      4.852135   644A      4.869594   645A      4.878290  
     646A      4.881679   647A      4.891953   648A      4.905582  
     649A      4.913169   650A      4.923531   651A      4.932408  
     652A      4.945701   653A      4.956652   654A      4.973803  
     655A      4.989422   656A      5.002209   657A      5.020339  
     658A      5.034135   659A      5.037526   660A      5.049934  
     661A      5.060123   662A      5.066549   663A      5.070771  
     664A      5.089623   665A      5.121084   666A      5.127606  
     667A      5.130550   668A      5.144325   669A      5.155039  
     670A      5.161461   671A      5.181983   672A      5.190683  
     673A      5.204710   674A      5.209192   675A      5.221160  
     676A      5.242723   677A      5.258412   678A      5.268347  
     679A      5.272719   680A      5.274240   681A      5.285587  
     682A      5.316198   683A      5.325114   684A      5.341034  
     685A      5.347622   686A      5.361991   687A      5.374065  
     688A      5.386922   689A      5.390286   690A      5.403705  
     691A      5.410398   692A      5.414200   693A      5.428914  
     694A      5.438424   695A      5.448506   696A      5.455010  
     697A      5.466031   698A      5.481274   699A      5.493055  
     700A      5.500896   701A      5.505850   702A      5.521513  
     703A      5.537092   704A      5.547724   705A      5.556376  
     706A      5.582879   707A      5.589168   708A      5.612869  
     709A      5.620510   710A      5.621754   711A      5.636201  
     712A      5.648388   713A      5.664258   714A      5.667969  
     715A      5.676810   716A      5.686541   717A      5.709321  
     718A      5.713092   719A      5.727422   720A      5.740839  
     721A      5.749544   722A      5.757434   723A      5.780256  
     724A      5.794675   725A      5.816853   726A      5.822089  
     727A      5.838219   728A      5.848068   729A      5.855104  
     730A      5.884720   731A      5.894597   732A      5.935371  
     733A      5.940476   734A      5.977378   735A      6.001708  
     736A      6.015480   737A      6.034606   738A      6.048268  
     739A      6.077791   740A      6.115785   741A      6.145622  
     742A      6.149676   743A      6.164596   744A      6.181053  
     745A      6.210417   746A      6.219332   747A      6.243298  
     748A      6.253219   749A      6.264204   750A      6.289735  
     751A      6.299407   752A      6.305768   753A      6.315156  
     754A      6.335384   755A      6.346169   756A      6.378852  
     757A      6.404385   758A      6.419548   759A      6.536489  
     760A      6.583044   761A      6.614964   762A      6.668598  
     763A      6.719248   764A      6.756037   765A      6.778796  
     766A      6.794688   767A      6.842676   768A      6.875018  
     769A      6.885209   770A      6.927722   771A      6.954413  
     772A      6.985116   773A      7.078208   774A      7.105710  
     775A     17.854999   776A     17.940844   777A     18.264870  
     778A     18.463469   779A     18.529817   780A     18.584623  
     781A     19.165106   782A     19.590402  

    Final Occupation by Irrep:
              A 
    DOCC [    33 ]

  Energy converged.

  @DF-RHF Final Energy:  -313.54388549323545

   => Energetics <=

    Nuclear Repulsion Energy =            385.3400063605374157
    One-Electron Energy =               -1185.8356917432663522
    Two-Electron Energy =                 486.9517998894933726
    DFT Exchange-Correlation Energy =       0.0000000000000000
    Empirical Dispersion Energy =           0.0000000000000000
    PCM Polarization Energy =               0.0000000000000000
    EFP Energy =                            0.0000000000000000
    Total Energy =                       -313.5438854932355071


  Saving occupied orbitals to File 180.

*** tstop() called on wr33 at Tue Sep 20 22:41:20 2016
Module time:
	user time   =     837.01 seconds =      13.95 minutes
	system time =      11.77 seconds =       0.20 minutes
	total time  =         77 seconds =       1.28 minutes
Total time:
	user time   =     837.01 seconds =      13.95 minutes
	system time =      11.77 seconds =       0.20 minutes
	total time  =         77 seconds =       1.28 minutes


Properties will be evaluated at   0.000000,   0.000000,   0.000000 Bohr

Properties computed using the SCF density matrix

  Nuclear Dipole Moment: (a.u.)
     X:    -0.0879      Y:    -0.4153      Z:    -0.0878

  Electronic Dipole Moment: (a.u.)
     X:     0.0914      Y:     0.4154      Z:     0.0884

  Dipole Moment: (a.u.)
     X:     0.0035      Y:     0.0001      Z:     0.0005     Total:     0.0035

  Dipole Moment: (Debye)
     X:     0.0089      Y:     0.0001      Z:     0.0013     Total:     0.0090


  //>>>>>>>>>>>>>>>>>>>>>>>>>>>>>>>>>>>//
  //               DFMP2               //
  //<<<<<<<<<<<<<<<<<<<<<<<<<<<<<<<<<<<//


*** tstart() called on wr33
*** at Tue Sep 20 22:41:20 2016


*** tstop() called on wr33 at Tue Sep 20 22:41:21 2016
Module time:
	user time   =       4.23 seconds =       0.07 minutes
	system time =       0.21 seconds =       0.00 minutes
	total time  =          1 seconds =       0.02 minutes
Total time:
	user time   =     842.18 seconds =      14.04 minutes
	system time =      12.03 seconds =       0.20 minutes
	total time  =         78 seconds =       1.30 minutes
	 --------------------------------------------------------
	                          DF-MP2                         
	      2nd-Order Density-Fitted Moller-Plesset Theory     
	              RMP2 Wavefunction,  12 Threads             
	                                                         
	        Rob Parrish, Justin Turney, Andy Simmonett,      
	           Ed Hohenstein, and C. David Sherrill          
	 --------------------------------------------------------

   => Auxiliary Basis Set <=

  Basis Set: 
    Number of shells: 476
    Number of basis function: 1676
    Number of Cartesian functions: 2078
    Spherical Harmonics?: true
    Max angular momentum: 4

	 --------------------------------------------------------
	                 NBF =   782, NAUX =  1676
	 --------------------------------------------------------
	   CLASS    FOCC     OCC    AOCC    AVIR     VIR    FVIR
	   PAIRS       8      33      25     749     749       0
	 --------------------------------------------------------

DGAS Warning! /src/lib/libfock/apps.cc:80 is not currently checking restricted

         ------------------------------------------------------------
                                     CPHF                           
                                  Rob Parrish                       
         ------------------------------------------------------------

  ==> Geometry <==

    Molecular point group: c1
    Full point group: C1

    Geometry (in Angstrom), charge = 0, multiplicity = 1:

       Center              X                  Y                   Z               Mass       
    ------------   -----------------  -----------------  -----------------  -----------------
           C         -4.024377127551    -0.734248995812     0.045254806897    12.000000000000
           H         -5.026513811847    -0.413831839770    -0.238582788264     1.007825032070
           H         -4.045466382370    -1.005329543578     1.101544666654     1.007825032070
           H         -3.786300246599    -1.634088698602    -0.523278105005     1.007825032070
           C          3.913916045766     0.221452400636    -0.150792596091    12.000000000000
           H          3.923114583182     0.458633257323    -1.216005617175     1.007825032070
           H          4.918698246435    -0.093471368417     0.129972932471     1.007825032070
           H          3.693388540554     1.138757799795     0.393346771355     1.007825032070
           C         -2.990889210616     0.355463649578    -0.211415711712    12.000000000000
           H         -3.259212324140     1.258056006557     0.343979505969     1.007825032070
           H         -2.998269511628     0.629686297924    -1.269772823361     1.007825032070
           C          2.892379469192    -0.871273941964     0.146433456685    12.000000000000
           H          3.212163813485    -1.798320849605    -0.334568622077     1.007825032070
           H          2.870786006391    -1.072177801082     1.221205802689     1.007825032070
           C         -1.582517545434    -0.073131816326     0.182042862953    12.000000000000
           H         -1.325711758099    -0.983607412951    -0.365486577698     1.007825032070
           H         -1.568609695472    -0.334832266798     1.245693087336     1.007825032070
           C         -0.543022432878     1.010420025184    -0.081131581469    12.000000000000
           H         -0.869863870793     1.932456423783     0.408467219894     1.007825032070
           H         -0.511146812512     1.225259754933    -1.154316681071     1.007825032070
           C          0.862547451706     0.658934170226     0.402960892916    12.000000000000
           H          1.504385611201     1.533905978486     0.280167829790     1.007825032070
           H          0.831015787227     0.443153167753     1.476466746916     1.007825032070
           C          1.479838745550    -0.530406440717    -0.325482356670    12.000000000000
           H          0.843621143563    -1.407790566866    -0.192077960341     1.007825032070
           H          1.500149693585    -0.319500132288    -1.400459433035     1.007825032070

  Nuclear repulsion =  385.340006360537359
  Reference energy  = -313.543885493235450

  ==> Basis Set <==

  Basis Set: AUG-CC-PVTZ
    Number of shells: 274
    Number of basis function: 782
    Number of Cartesian functions: 890
    Spherical Harmonics?: true
    Max angular momentum: 3

  ==> CGRSolver (by Rob Parrish) <==

   Number of roots    =         1
   Preconditioning    =    JACOBI
   Convergence cutoff =     1E-06
   Maximum iterations =       100

  ==> CPHFRHamiltonian (by Rob Parrish) <== 

  ==> DFJK: Density-Fitted J/K Matrices <==

    J tasked:                  Yes
    K tasked:                  Yes
    wK tasked:                  No
    OpenMP threads:             12
    Integrals threads:          12
    Memory (MB):             42915
    Algorithm:                Core
    Integral Cache:           NONE
    Schwarz Cutoff:          1E-12
    Fitting Condition:       1E-12

   => Auxiliary Basis Set <=

  Basis Set: 
    Number of shells: 492
    Number of basis function: 1660
    Number of Cartesian functions: 2038
    Spherical Harmonics?: true
    Max angular momentum: 4

  ==> CPHF Iterations <==

  => Iterations <=

             Iter  Converged  Remaining    Residual
  CGR           1          0          1   8.908E-02
  CGR           2          0          1   1.244E-02
  CGR           3          0          1   3.135E-03
  CGR           4          0          1   8.186E-04
  CGR           5          0          1   1.728E-04
  CGR           6          0          1   4.112E-05
  CGR           7          0          1   1.190E-05
  CGR           8          0          1   2.814E-06
  CGR           9          1          0   7.517E-07

    CGRSolver converged.

  ==> DFCorrGrad: Density-Fitted Correlated Gradients <==

    OpenMP threads:             12
    Integrals threads:          12
    Memory (MB):             42915
    Schwarz Cutoff:          0E+00
    Fitting Condition:       1E-12

   => Auxiliary Basis Set <=

  Basis Set: 
    Number of shells: 492
    Number of basis function: 1660
    Number of Cartesian functions: 2038
    Spherical Harmonics?: true
    Max angular momentum: 4

	-----------------------------------------------------------
	 ==================> DF-MP2 Energies <==================== 
	-----------------------------------------------------------
	 Reference Energy          =    -313.5438854932354502 [Eh]
	 Singles Energy            =      -0.0000000000000007 [Eh]
	 Same-Spin Energy          =      -0.3154495192563032 [Eh]
	 Opposite-Spin Energy      =      -1.1241907697629259 [Eh]
	 Correlation Energy        =      -1.4396402890192297 [Eh]
	 Total Energy              =    -314.9835257822546737 [Eh]
	-----------------------------------------------------------
	 ================> DF-SCS-MP2 Energies <================== 
	-----------------------------------------------------------
	 SCS Same-Spin Scale       =       0.3333333333333333 [-]
	 SCS Opposite-Spin Scale   =       1.2000000000000000 [-]
	 SCS Same-Spin Energy      =      -0.1051498397521010 [Eh]
	 SCS Opposite-Spin Energy  =      -1.3490289237155111 [Eh]
	 SCS Correlation Energy    =      -1.4541787634676129 [Eh]
	 SCS Total Energy          =    -314.9980642567030600 [Eh]
	-----------------------------------------------------------


  -Total Gradient:
     Atom            X                  Y                   Z
    ------   -----------------  -----------------  -----------------
       1       -0.000000192233    -0.000000223743     0.000000025114
       2        0.000000173360    -0.000000058993     0.000000042923
       3        0.000000038589     0.000000096064    -0.000000247864
       4       -0.000000045953     0.000000212215     0.000000126836
       5        0.000000453968     0.000000450819    -0.000000143214
       6       -0.000000063784    -0.000000215699     0.000000599765
       7       -0.000000418591     0.000000190206    -0.000000145695
       8        0.000000135368    -0.000000592609    -0.000000262082
       9       -0.000000225112     0.000000340343    -0.000000130487
      10        0.000000191180    -0.000000283679    -0.000000131968
      11        0.000000059944    -0.000000110041     0.000000312087
      12       -0.000000171373    -0.000000811413     0.000000369986
      13       -0.000000286491     0.000000549322     0.000000320527
      14       -0.000000033259     0.000000149859    -0.000000771151
      15        0.000000346094    -0.000000602519     0.000000337120
      16       -0.000000182514     0.000000540864     0.000000247851
      17        0.000000122800     0.000000243973    -0.000000640709
      18       -0.000000339408     0.000000532204    -0.000000223267
      19        0.000000266489    -0.000000599022    -0.000000313994
      20       -0.000000037290    -0.000000172377     0.000000671355
      21        0.000000730467     0.000000521223     0.000000710183
      22       -0.000000592768    -0.000000648333     0.000000106497
      23        0.000000109022     0.000000148881    -0.000001083155
      24       -0.000000535108    -0.000000337607    -0.000000899519
      25        0.000000567732     0.000000731877    -0.000000044321
      26       -0.000000071132    -0.000000051817     0.000001167183


			-----------------------------------------
			 OPTKING 2.0: for geometry optimizations 
			  - R.A. King,  Bethel University        
			-----------------------------------------

	Internal coordinates to be generated automatically.
	Detected frag 1 with atoms:  1 2 3 4 5 6 7 8 9 10 11 12 13 14 15 16 17 18 19 20
	 21 22 23 24 25 26
	---Fragment 1 Bond Connectivity---
	 1 : 2 3 4 9
	 2 : 1
	 3 : 1
	 4 : 1
	 5 : 6 7 8 12
	 6 : 5
	 7 : 5
	 8 : 5
	 9 : 1 10 11 15
	 10 : 9
	 11 : 9
	 12 : 5 13 14 24
	 13 : 12
	 14 : 12
	 15 : 9 16 17 18
	 16 : 15
	 17 : 15
	 18 : 15 19 20 21
	 19 : 18
	 20 : 18
	 21 : 18 22 23 24
	 22 : 21
	 23 : 21
	 24 : 12 21 25 26
	 25 : 24
	 26 : 24

	---Fragment 1 Geometry and Gradient---
	 C          -7.6049706265       -1.3875295154        0.0855191912
	 H          -9.4987345076       -0.7820288422       -0.4508561298
	 H          -7.6448235425       -1.8997975107        2.0816177431
	 H          -7.1550705229       -3.0879801172       -0.9888523098
	 C           7.3962294336        0.4184843887       -0.2849567095
	 H           7.4136121501        0.8666912518       -2.2979175925
	 H           9.2949926161       -0.1766352876        0.2456132471
	 H           6.9794928440        2.1519403733        0.7433176731
	 C          -5.6519615019        0.6717289479       -0.3995177953
	 H          -6.1590187016        2.3773813122        0.6500270616
	 H          -5.6659082496        1.1899346527       -2.3995228871
	 C           5.4658050692       -1.6464691370        0.2767191298
	 H           6.0701099015       -3.3983339048       -0.6322430684
	 H           5.4249993382       -2.0261224098        2.3077445190
	 C          -2.9905247614       -0.1381991045        0.3440111554
	 H          -2.5052321540       -1.8587486328       -0.6906695371
	 H          -2.9642427338       -0.6327412847        2.3540187807
	 C          -1.0261636822        1.9094171268       -0.1533164697
	 H          -1.6438044887        3.6518134047        0.7718911799
	 H          -0.9659274893        2.3154053785       -2.1813423978
	 C           1.6299784603        1.2452051213        0.7614857299
	 H           2.8428768034        2.8986622129        0.5294404695
	 H           1.5703922500        0.8374381220        2.7901177960
	 C           2.7964899499       -1.0023229121       -0.6150725152
	 H           1.5942129212       -2.6603386238       -0.3629747412
	 H           2.8348720792       -0.6037677494       -2.6464847887
	            -0.0000001922       -0.0000002237        0.0000000251
	             0.0000001734       -0.0000000590        0.0000000429
	             0.0000000386        0.0000000961       -0.0000002479
	            -0.0000000460        0.0000002122        0.0000001268
	             0.0000004540        0.0000004508       -0.0000001432
	            -0.0000000638       -0.0000002157        0.0000005998
	            -0.0000004186        0.0000001902       -0.0000001457
	             0.0000001354       -0.0000005926       -0.0000002621
	            -0.0000002251        0.0000003403       -0.0000001305
	             0.0000001912       -0.0000002837       -0.0000001320
	             0.0000000599       -0.0000001100        0.0000003121
	            -0.0000001714       -0.0000008114        0.0000003700
	            -0.0000002865        0.0000005493        0.0000003205
	            -0.0000000333        0.0000001499       -0.0000007712
	             0.0000003461       -0.0000006025        0.0000003371
	            -0.0000001825        0.0000005409        0.0000002479
	             0.0000001228        0.0000002440       -0.0000006407
	            -0.0000003394        0.0000005322       -0.0000002233
	             0.0000002665       -0.0000005990       -0.0000003140
	            -0.0000000373       -0.0000001724        0.0000006714
	             0.0000007305        0.0000005212        0.0000007102
	            -0.0000005928       -0.0000006483        0.0000001065
	             0.0000001090        0.0000001489       -0.0000010832
	            -0.0000005351       -0.0000003376       -0.0000008995
	             0.0000005677        0.0000007319       -0.0000000443
	            -0.0000000711       -0.0000000518        0.0000011672

	Previous optimization step data not found.  Starting new optimization.

	---Fragment 1 Intrafragment Coordinates---
	 - Coordinate -           - BOHR/RAD -       - ANG/DEG -
	 R(1,2)           =         2.059289	       1.089729
	 R(1,3)           =         2.061169	       1.090723
	 R(1,4)           =         2.061120	       1.090698
	 R(1,9)           =         2.879245	       1.523631
	 R(5,6)           =         2.062330	       1.091338
	 R(5,7)           =         2.059362	       1.089768
	 R(5,8)           =         2.058127	       1.089114
	 R(5,12)          =         2.882022	       1.525100
	 R(9,10)          =         2.065890	       1.093222
	 R(9,11)          =         2.066096	       1.093331
	 R(9,15)          =         2.879594	       1.523816
	 R(12,13)         =         2.064080	       1.092264
	 R(12,14)         =         2.066607	       1.093601
	 R(12,24)         =         2.887120	       1.527798
	 R(15,16)         =         2.065518	       1.093025
	 R(15,17)         =         2.070119	       1.095460
	 R(15,18)         =         2.880761	       1.524433
	 R(18,19)         =         2.067229	       1.093930
	 R(18,20)         =         2.069141	       1.094942
	 R(18,21)         =         2.886716	       1.527585
	 R(21,22)         =         2.063707	       1.092067
	 R(21,23)         =         2.070066	       1.095432
	 R(21,24)         =         2.882194	       1.525192
	 R(24,25)         =         2.063502	       1.091958
	 R(24,26)         =         2.070496	       1.095659
	 B(1,9,10)        =         1.916039	     109.780977
	 B(1,9,11)        =         1.915456	     109.747546
	 B(1,9,15)        =         1.963035	     112.473596
	 B(2,1,3)         =         1.883403	     107.911016
	 B(2,1,4)         =         1.883410	     107.911417
	 B(2,1,9)         =         1.949386	     111.691601
	 B(3,1,4)         =         1.879662	     107.696690
	 B(3,1,9)         =         1.932651	     110.732740
	 B(4,1,9)         =         1.932838	     110.743485
	 B(5,12,13)       =         1.903066	     109.037666
	 B(5,12,14)       =         1.913873	     109.656831
	 B(5,12,24)       =         1.981472	     113.529984
	 B(6,5,7)         =         1.882314	     107.848663
	 B(6,5,8)         =         1.882118	     107.837410
	 B(6,5,12)        =         1.930061	     110.584347
	 B(7,5,8)         =         1.876923	     107.539777
	 B(7,5,12)        =         1.939402	     111.119546
	 B(8,5,12)        =         1.950312	     111.744636
	 B(9,15,16)       =         1.898739	     108.789750
	 B(9,15,17)       =         1.906714	     109.246643
	 B(9,15,18)       =         1.966799	     112.689293
	 B(10,9,11)       =         1.857768	     106.442247
	 B(10,9,15)       =         1.904865	     109.140719
	 B(11,9,15)       =         1.903639	     109.070454
	 B(12,24,21)      =         1.983025	     113.618937
	 B(12,24,25)      =         1.898300	     108.764553
	 B(12,24,26)      =         1.905896	     109.199806
	 B(13,12,14)      =         1.857352	     106.418417
	 B(13,12,24)      =         1.900775	     108.906388
	 B(14,12,24)      =         1.903183	     109.044328
	 B(15,18,19)      =         1.894523	     108.548180
	 B(15,18,20)      =         1.905536	     109.179154
	 B(15,18,21)      =         1.992338	     114.152569
	 B(16,15,17)      =         1.859182	     106.523273
	 B(16,15,18)      =         1.923450	     110.205593
	 B(17,15,18)      =         1.905799	     109.194257
	 B(18,21,22)      =         1.897369	     108.711261
	 B(18,21,23)      =         1.906460	     109.232139
	 B(18,21,24)      =         1.982831	     113.607830
	 B(19,18,20)      =         1.856658	     106.378683
	 B(19,18,21)      =         1.903943	     109.087874
	 B(20,18,21)      =         1.906003	     109.205901
	 B(21,24,25)      =         1.909647	     109.414710
	 B(21,24,26)      =         1.902855	     109.025540
	 B(22,21,23)      =         1.859732	     106.554775
	 B(22,21,24)      =         1.910498	     109.463446
	 B(23,21,24)      =         1.902962	     109.031720
	 B(25,24,26)      =         1.860149	     106.578666
	 D(1,9,15,16)     =         0.996646	      57.103602
	 D(1,9,15,17)     =        -1.026400	     -58.808396
	 D(1,9,15,18)     =         3.135127	     179.629543
	 D(2,1,9,10)      =         1.015126	      58.162425
	 D(2,1,9,11)      =        -1.020983	     -58.498018
	 D(2,1,9,15)      =         3.139653	     179.888887
	 D(3,1,9,10)      =        -1.084430	     -62.133252
	 D(3,1,9,11)      =        -3.120539	    -178.793694
	 D(3,1,9,15)      =         1.040098	      59.593210
	 D(4,1,9,10)      =         3.114818	     178.465938
	 D(4,1,9,11)      =         1.078709	      61.805496
	 D(4,1,9,15)      =        -1.043840	     -59.807600
	 D(5,12,24,21)    =        -1.135150	     -65.039288
	 D(5,12,24,25)    =         3.016607	     172.838875
	 D(5,12,24,26)    =         0.993100	      56.900415
	 D(6,5,12,13)     =         1.148721	      65.816872
	 D(6,5,12,14)     =        -3.107218	    -178.030475
	 D(6,5,12,24)     =        -0.973744	     -55.791419
	 D(7,5,12,13)     =        -0.941116	     -53.921963
	 D(7,5,12,14)     =         1.086130	      62.230690
	 D(7,5,12,24)     =        -3.063581	    -175.530255
	 D(8,5,12,13)     =        -3.037680	    -174.046252
	 D(8,5,12,14)     =        -1.010434	     -57.893599
	 D(8,5,12,24)     =         1.123040	      64.345456
	 D(9,15,18,19)    =         0.933656	      53.494560
	 D(9,15,18,20)    =        -1.083429	     -62.075887
	 D(9,15,18,21)    =         3.061271	     175.397887
	 D(10,9,15,16)    =         3.127515	     179.193413
	 D(10,9,15,17)    =         1.104469	      63.281416
	 D(10,9,15,18)    =        -1.017189	     -58.280646
	 D(11,9,15,16)    =        -1.132617	     -64.894175
	 D(11,9,15,17)    =         3.127522	     179.193827
	 D(11,9,15,18)    =         1.005864	      57.631765
	 D(12,24,21,18)   =         3.129025	     179.279916
	 D(12,24,21,22)   =         1.004604	      57.559588
	 D(12,24,21,23)   =        -1.023551	     -58.645143
	 D(13,12,24,21)   =         3.024292	     173.279189
	 D(13,12,24,25)   =         0.892864	      51.157352
	 D(13,12,24,26)   =        -1.130644	     -64.781108
	 D(14,12,24,21)   =         1.004238	      57.538607
	 D(14,12,24,25)   =        -1.127190	     -64.583230
	 D(14,12,24,26)   =         3.132487	     179.478310
	 D(15,18,21,22)   =        -3.025408	    -173.343114
	 D(15,18,21,23)   =        -1.002602	     -57.444891
	 D(15,18,21,24)   =         1.126067	      64.518867
	 D(16,15,18,19)   =         3.058203	     175.222142
	 D(16,15,18,20)   =         1.041118	      59.651695
	 D(16,15,18,21)   =        -1.097368	     -62.874531
	 D(17,15,18,19)   =        -1.188521	     -68.097216
	 D(17,15,18,20)   =         3.077580	     176.332337
	 D(17,15,18,21)   =         0.939094	      53.806111
	 D(18,21,24,25)   =        -1.029031	     -58.959154
	 D(18,21,24,26)   =         0.999088	      57.243527
	 D(19,18,21,22)   =        -0.902980	     -51.736939
	 D(19,18,21,23)   =         1.119826	      64.161284
	 D(19,18,21,24)   =        -3.034690	    -173.874958
	 D(20,18,21,22)   =         1.119546	      64.145264
	 D(20,18,21,23)   =        -3.140834	    -179.956513
	 D(20,18,21,24)   =        -1.012165	     -57.992755
	 D(22,21,24,25)   =         3.129733	     179.320517
	 D(22,21,24,26)   =        -1.125332	     -64.476802
	 D(23,21,24,25)   =         1.101578	      63.115787
	 D(23,21,24,26)   =         3.129698	     179.318468

	Current energy   :      -314.9835257823

	Generating empirical Hessian (Schlegel '84) for each fragment.
	Taking RFO optimization step.
	Going to follow RFO solution 1.
	Using RFO vector 1.
	Norm of target step-size    0.00019
	Projected energy change by RFO approximation:        -0.0000000003

	Back-transformation to cartesian coordinates...
	Successfully converged to displaced geometry.

	--- Internal Coordinate Step in ANG or DEG, aJ/ANG or AJ/DEG ---
	 ---------------------------------------------------------------------------
	   Coordinate                Previous        Force       Change         New 
	   ----------                --------       ------       ------       ------
	    1 R(1,2)          =      1.089729     0.000002     0.000000     1.089729
	    2 R(1,3)          =      1.090723     0.000002     0.000000     1.090724
	    3 R(1,4)          =      1.090698     0.000002     0.000000     1.090698
	    4 R(1,9)          =      1.523631    -0.000000    -0.000000     1.523631
	    5 R(5,6)          =      1.091338     0.000005     0.000001     1.091339
	    6 R(5,7)          =      1.089768     0.000004     0.000001     1.089768
	    7 R(5,8)          =      1.089114     0.000005     0.000001     1.089115
	    8 R(5,12)         =      1.525100     0.000000     0.000000     1.525100
	    9 R(9,10)         =      1.093222     0.000003     0.000001     1.093222
	   10 R(9,11)         =      1.093331     0.000003     0.000001     1.093331
	   11 R(9,15)         =      1.523816     0.000000     0.000000     1.523816
	   12 R(12,13)        =      1.092264     0.000006     0.000001     1.092265
	   13 R(12,14)        =      1.093601     0.000006     0.000001     1.093603
	   14 R(12,24)        =      1.527798     0.000002     0.000001     1.527798
	   15 R(15,16)        =      1.093025     0.000005     0.000001     1.093026
	   16 R(15,17)        =      1.095460     0.000006     0.000001     1.095461
	   17 R(15,18)        =      1.524433     0.000002     0.000000     1.524433
	   18 R(18,19)        =      1.093930     0.000006     0.000001     1.093931
	   19 R(18,20)        =      1.094942     0.000006     0.000001     1.094943
	   20 R(18,21)        =      1.527585     0.000002     0.000000     1.527585
	   21 R(21,22)        =      1.092067     0.000007     0.000001     1.092068
	   22 R(21,23)        =      1.095432     0.000009     0.000002     1.095433
	   23 R(21,24)        =      1.525192     0.000004     0.000001     1.525192
	   24 R(24,25)        =      1.091958     0.000008     0.000001     1.091960
	   25 R(24,26)        =      1.095659     0.000010     0.000002     1.095661
	   26 B(1,9,10)       =    109.780977    -0.000000    -0.000060   109.780916
	   27 B(1,9,11)       =    109.747546     0.000000     0.000016   109.747562
	   28 B(1,9,15)       =    112.473596    -0.000000     0.000004   112.473600
	   29 B(2,1,3)        =    107.911016    -0.000000    -0.000014   107.911002
	   30 B(2,1,4)        =    107.911417     0.000000     0.000001   107.911418
	   31 B(2,1,9)        =    111.691601    -0.000000    -0.000020   111.691581
	   32 B(3,1,4)        =    107.696690    -0.000000     0.000003   107.696693
	   33 B(3,1,9)        =    110.732740     0.000000     0.000020   110.732760
	   34 B(4,1,9)        =    110.743485     0.000000     0.000010   110.743495
	   35 B(5,12,13)      =    109.037666     0.000000    -0.000020   109.037646
	   36 B(5,12,14)      =    109.656831     0.000000    -0.000002   109.656829
	   37 B(5,12,24)      =    113.529984    -0.000000    -0.000055   113.529929
	   38 B(6,5,7)        =    107.848663    -0.000000    -0.000009   107.848654
	   39 B(6,5,8)        =    107.837410    -0.000000    -0.000025   107.837385
	   40 B(6,5,12)       =    110.584347     0.000000     0.000046   110.584393
	   41 B(7,5,8)        =    107.539777     0.000000     0.000015   107.539792
	   42 B(7,5,12)       =    111.119546    -0.000000    -0.000053   111.119492
	   43 B(8,5,12)       =    111.744636     0.000000     0.000025   111.744661
	   44 B(9,15,16)      =    108.789750     0.000000     0.000065   108.789815
	   45 B(9,15,17)      =    109.246643    -0.000000    -0.000074   109.246569
	   46 B(9,15,18)      =    112.689293    -0.000000    -0.000056   112.689237
	   47 B(10,9,11)      =    106.442247    -0.000000    -0.000031   106.442216
	   48 B(10,9,15)      =    109.140719     0.000000     0.000025   109.140744
	   49 B(11,9,15)      =    109.070454     0.000000     0.000046   109.070499
	   50 B(12,24,21)     =    113.618937    -0.000000    -0.000098   113.618839
	   51 B(12,24,25)     =    108.764553     0.000000     0.000165   108.764718
	   52 B(12,24,26)     =    109.199806    -0.000000    -0.000144   109.199662
	   53 B(13,12,14)     =    106.418417    -0.000000     0.000009   106.418426
	   54 B(13,12,24)     =    108.906388     0.000000     0.000040   108.906428
	   55 B(14,12,24)     =    109.044328     0.000000     0.000032   109.044360
	   56 B(15,18,19)     =    108.548180    -0.000000    -0.000118   108.548062
	   57 B(15,18,20)     =    109.179154    -0.000000     0.000049   109.179203
	   58 B(15,18,21)     =    114.152569     0.000000     0.000160   114.152729
	   59 B(16,15,17)     =    106.523273    -0.000000    -0.000022   106.523251
	   60 B(16,15,18)     =    110.205593     0.000000     0.000042   110.205635
	   61 B(17,15,18)     =    109.194257     0.000000     0.000046   109.194303
	   62 B(18,21,22)     =    108.711261    -0.000000    -0.000152   108.711109
	   63 B(18,21,23)     =    109.232139    -0.000000     0.000063   109.232202
	   64 B(18,21,24)     =    113.607830     0.000000     0.000215   113.608045
	   65 B(19,18,20)     =    106.378683     0.000000    -0.000042   106.378641
	   66 B(19,18,21)     =    109.087874    -0.000000    -0.000070   109.087805
	   67 B(20,18,21)     =    109.205901    -0.000000     0.000007   109.205908
	   68 B(21,24,25)     =    109.414710     0.000000     0.000097   109.414807
	   69 B(21,24,26)     =    109.025540     0.000000     0.000021   109.025561
	   70 B(22,21,23)     =    106.554775     0.000000    -0.000043   106.554732
	   71 B(22,21,24)     =    109.463446    -0.000000    -0.000206   109.463240
	   72 B(23,21,24)     =    109.031720    -0.000000     0.000108   109.031827
	   73 B(25,24,26)     =    106.578666    -0.000000    -0.000039   106.578628
	   74 D(1,9,15,16)    =     57.103602     0.000000     0.000445    57.104047
	   75 D(1,9,15,17)    =    -58.808396     0.000000     0.000476   -58.807920
	   76 D(1,9,15,18)    =    179.629543     0.000000     0.000506   179.630049
	   77 D(2,1,9,10)     =     58.162425    -0.000000    -0.000147    58.162277
	   78 D(2,1,9,11)     =    -58.498018     0.000000    -0.000084   -58.498101
	   79 D(2,1,9,15)     =    179.888887    -0.000000    -0.000156   179.888731
	   80 D(3,1,9,10)     =    -62.133252    -0.000000    -0.000130   -62.133382
	   81 D(3,1,9,11)     =   -178.793694     0.000000    -0.000066  -178.793760
	   82 D(3,1,9,15)     =     59.593210     0.000000    -0.000138    59.593072
	   83 D(4,1,9,10)     =    178.465938    -0.000000    -0.000152   178.465785
	   84 D(4,1,9,11)     =     61.805496     0.000000    -0.000089    61.805407
	   85 D(4,1,9,15)     =    -59.807600    -0.000000    -0.000161   -59.807761
	   86 D(5,12,24,21)   =    -65.039288     0.000000     0.000717   -65.038571
	   87 D(5,12,24,25)   =    172.838875    -0.000000     0.000538   172.839413
	   88 D(5,12,24,26)   =     56.900415     0.000000     0.000572    56.900987
	   89 D(6,5,12,13)    =     65.816872    -0.000000    -0.000304    65.816569
	   90 D(6,5,12,14)    =   -178.030475    -0.000000    -0.000306  -178.030781
	   91 D(6,5,12,24)    =    -55.791419    -0.000000    -0.000304   -55.791723
	   92 D(7,5,12,13)    =    -53.921963     0.000000    -0.000288   -53.922251
	   93 D(7,5,12,14)    =     62.230690    -0.000000    -0.000290    62.230399
	   94 D(7,5,12,24)    =   -175.530255    -0.000000    -0.000289  -175.530543
	   95 D(8,5,12,13)    =   -174.046252     0.000000    -0.000288  -174.046540
	   96 D(8,5,12,14)    =    -57.893599    -0.000000    -0.000290   -57.893889
	   97 D(8,5,12,24)    =     64.345456    -0.000000    -0.000288    64.345168
	   98 D(9,15,18,19)   =     53.494560    -0.000000    -0.000414    53.494146
	   99 D(9,15,18,20)   =    -62.075887    -0.000000    -0.000325   -62.076213
	  100 D(9,15,18,21)   =    175.397887    -0.000000    -0.000483   175.397405
	  101 D(10,9,15,16)   =    179.193413    -0.000000     0.000388   179.193802
	  102 D(10,9,15,17)   =     63.281416     0.000000     0.000419    63.281834
	  103 D(10,9,15,18)   =    -58.280646    -0.000000     0.000450   -58.280196
	  104 D(11,9,15,16)   =    -64.894175    -0.000000     0.000390   -64.893785
	  105 D(11,9,15,17)   =    179.193827     0.000000     0.000421   179.194248
	  106 D(11,9,15,18)   =     57.631765     0.000000     0.000452    57.632217
	  107 D(12,24,21,18)  =    179.279916    -0.000000    -0.003572   179.276344
	  108 D(12,24,21,22)  =     57.559588    -0.000000    -0.003373    57.556215
	  109 D(12,24,21,23)  =    -58.645143    -0.000000    -0.003266   -58.648409
	  110 D(13,12,24,21)  =    173.279189     0.000000     0.000751   173.279940
	  111 D(13,12,24,25)  =     51.157352     0.000000     0.000571    51.157924
	  112 D(13,12,24,26)  =    -64.781108     0.000000     0.000605   -64.780503
	  113 D(14,12,24,21)  =     57.538607     0.000000     0.000700    57.539307
	  114 D(14,12,24,25)  =    -64.583230    -0.000000     0.000521   -64.582709
	  115 D(14,12,24,26)  =    179.478310    -0.000000     0.000555   179.478865
	  116 D(15,18,21,22)  =   -173.343114     0.000000     0.001586  -173.341529
	  117 D(15,18,21,23)  =    -57.444891    -0.000000     0.001484   -57.443407
	  118 D(15,18,21,24)  =     64.518867     0.000000     0.001815    64.520683
	  119 D(16,15,18,19)  =    175.222142    -0.000000    -0.000340   175.221802
	  120 D(16,15,18,20)  =     59.651695     0.000000    -0.000251    59.651444
	  121 D(16,15,18,21)  =    -62.874531    -0.000000    -0.000409   -62.874939
	  122 D(17,15,18,19)  =    -68.097216     0.000000    -0.000315   -68.097531
	  123 D(17,15,18,20)  =    176.332337     0.000000    -0.000226   176.332110
	  124 D(17,15,18,21)  =     53.806111     0.000000    -0.000384    53.805727
	  125 D(18,21,24,25)  =    -58.959154    -0.000000    -0.003355   -58.962509
	  126 D(18,21,24,26)  =     57.243527    -0.000000    -0.003335    57.240192
	  127 D(19,18,21,22)  =    -51.736939     0.000000     0.001490   -51.735449
	  128 D(19,18,21,23)  =     64.161284    -0.000000     0.001389    64.162673
	  129 D(19,18,21,24)  =   -173.874958     0.000000     0.001720  -173.873237
	  130 D(20,18,21,22)  =     64.145264    -0.000000     0.001405    64.146669
	  131 D(20,18,21,23)  =   -179.956513    -0.000000     0.001304  -179.955209
	  132 D(20,18,21,24)  =    -57.992755     0.000000     0.001635   -57.991120
	  133 D(22,21,24,25)  =    179.320517    -0.000000    -0.003156   179.317361
	  134 D(22,21,24,26)  =    -64.476802    -0.000000    -0.003136   -64.479938
	  135 D(23,21,24,25)  =     63.115787     0.000000    -0.003049    63.112737
	  136 D(23,21,24,26)  =    179.318468     0.000000    -0.003030   179.315438
	 ---------------------------------------------------------------------------

  ==> Convergence Check <==

  Measures of convergence in internal coordinates in au.
  Criteria marked as inactive (o), active & met (*), and active & unmet ( ).
  --------------------------------------------------------------------------------------------- ~
   Step     Total Energy     Delta E     MAX Force     RMS Force      MAX Disp      RMS Disp    ~
  --------------------------------------------------------------------------------------------- ~
    Convergence Criteria             o    2.00e-06 *    1.00e-06 *    6.00e-06 *    4.00e-06 *  ~
  --------------------------------------------------------------------------------------------- ~
      1    -314.98352578   -3.15e+02 o    1.16e-06 *    2.86e-07 *    6.23e-05      1.67e-05    ~
  ---------------------------------------------------------------------------------------------

	Writing optimization data to binary file.
	Structure for next step:
	Cartesian Geometry (in Angstrom)
	    C    -4.0244030383  -0.7342125163   0.0452463609
	    H    -5.0265313390  -0.4137761264  -0.2386002537
	    H    -4.0455044590  -1.0052816634   1.1015393230
	    H    -3.7863427382  -1.6340637058  -0.5232759925
	    C     3.9139080543   0.2214965400  -0.1508168418
	    H     3.9230803396   0.4586774803  -1.2160310665
	    H     4.9187065691  -0.0933927975   0.1299317630
	    H     3.6933580803   1.1387956471   0.3933259646
	    C    -2.9908900700   0.3554749371  -0.2114299377
	    H    -3.2591990807   1.2580797319   0.3439529780
	    H    -2.9982573805   0.6296859220  -1.2697906801
	    C     2.8924150907  -0.8712654839   0.1464280689
	    H     3.2122215384  -1.7983009688  -0.3345837824
	    H     2.8708513050  -1.0721730581   1.2212015356
	    C    -1.5825303454  -0.0731455659   0.1820443379
	    H    -1.3257354865  -0.9836297228  -0.3654778647
	    H    -1.5686391845  -0.3348412590   1.2456970354
	    C    -0.5430129101   1.0103866942  -0.0811249733
	    H    -0.8698482281   1.9324329931   0.4084617723
	    H    -0.5111183958   1.2252179338  -1.1543122986
	    C     0.8625454185   0.6588860870   0.4029915296
	    H     1.5043893342   1.5338588644   0.2802235106
	    H     0.8309918119   0.4430905529   1.4764955468
	    C     1.4798526963  -0.5304436235  -0.3254575913
	    H     0.8436615580  -1.4078458537  -0.1920344124
	    H     1.5001352676  -0.3195437815  -1.4004383029
			--------------------------
			 OPTKING Finished Execution 
			--------------------------

    Structure for next step:
    Molecular point group: c1
    Full point group: C1

    Geometry (in Angstrom), charge = 0, multiplicity = 1:

    C           -4.024403953244    -0.734209436335     0.045245284226
    H           -5.026532253960    -0.413773046455    -0.238601330323
    H           -4.045505373903    -1.005278583407     1.101538246372
    H           -3.786343653085    -1.634060625798    -0.523277069160
    C            3.913907139415     0.221499619988    -0.150817918446
    H            3.923079424664     0.458680560283    -1.216032143122
    H            4.918705654166    -0.093389717475     0.129930686350
    H            3.693357165348     1.138798727065     0.393324887963
    C           -2.990890984885     0.355478017116    -0.211431014293
    H           -3.259199995574     1.258082811927     0.343951901347
    H           -2.998258295446     0.629689002030    -1.269791756774
    C            2.892414175784    -0.871262403904     0.146426992280
    H            3.212220623522    -1.798297888797    -0.334584859001
    H            2.870850390109    -1.072169978063     1.221200458975
    C           -1.582531260299    -0.073142485891     0.182043261234
    H           -1.325736401410    -0.983626642846    -0.365478941378
    H           -1.568640099385    -0.334838178967     1.245695958764
    C           -0.543013824983     1.010389774222    -0.081126049972
    H           -0.869849143008     1.932436073135     0.408460695657
    H           -0.511119310762     1.225221013806    -1.154313375197
    C            0.862544503582     0.658889166961     0.402990452961
    H            1.504388419335     1.533861944440     0.280222433924
    H            0.830990896974     0.443093632889     1.476494470130
    C            1.479851781363    -0.530440543522    -0.325458667961
    H            0.843660643111    -1.407842773737    -0.192035489081
    H            1.500134352696    -0.319540701483    -1.400439379511

gradient() will perform analytic gradient computation.

*** tstart() called on wr33
*** at Tue Sep 20 22:46:42 2016


         ---------------------------------------------------------
                                   SCF
            by Justin Turney, Rob Parrish, and Andy Simmonett
                              RHF Reference
                       12 Threads,  60000 MiB Core
         ---------------------------------------------------------

  ==> Geometry <==

    Molecular point group: c1
    Full point group: C1

    Geometry (in Angstrom), charge = 0, multiplicity = 1:

       Center              X                  Y                   Z               Mass       
    ------------   -----------------  -----------------  -----------------  -----------------
           C         -4.024403953244    -0.734209436335     0.045245284226    12.000000000000
           H         -5.026532253960    -0.413773046455    -0.238601330323     1.007825032070
           H         -4.045505373903    -1.005278583407     1.101538246372     1.007825032070
           H         -3.786343653085    -1.634060625798    -0.523277069160     1.007825032070
           C          3.913907139415     0.221499619988    -0.150817918446    12.000000000000
           H          3.923079424664     0.458680560283    -1.216032143122     1.007825032070
           H          4.918705654166    -0.093389717475     0.129930686350     1.007825032070
           H          3.693357165348     1.138798727065     0.393324887963     1.007825032070
           C         -2.990890984885     0.355478017116    -0.211431014293    12.000000000000
           H         -3.259199995574     1.258082811927     0.343951901347     1.007825032070
           H         -2.998258295446     0.629689002030    -1.269791756774     1.007825032070
           C          2.892414175784    -0.871262403904     0.146426992280    12.000000000000
           H          3.212220623522    -1.798297888797    -0.334584859001     1.007825032070
           H          2.870850390109    -1.072169978063     1.221200458975     1.007825032070
           C         -1.582531260299    -0.073142485891     0.182043261234    12.000000000000
           H         -1.325736401410    -0.983626642846    -0.365478941378     1.007825032070
           H         -1.568640099385    -0.334838178967     1.245695958764     1.007825032070
           C         -0.543013824983     1.010389774222    -0.081126049972    12.000000000000
           H         -0.869849143008     1.932436073135     0.408460695657     1.007825032070
           H         -0.511119310762     1.225221013806    -1.154313375197     1.007825032070
           C          0.862544503582     0.658889166961     0.402990452961    12.000000000000
           H          1.504388419335     1.533861944440     0.280222433924     1.007825032070
           H          0.830990896974     0.443093632889     1.476494470130     1.007825032070
           C          1.479851781363    -0.530440543522    -0.325458667961    12.000000000000
           H          0.843660643111    -1.407842773737    -0.192035489081     1.007825032070
           H          1.500134352696    -0.319540701483    -1.400439379511     1.007825032070

  Running in c1 symmetry.

  Rotational constants: A =      0.20993  B =      0.02023  C =      0.01925 [cm^-1]
  Rotational constants: A =   6293.59327  B =    606.45879  C =    576.96750 [MHz]
  Nuclear repulsion =  385.339613424416541

  Charge       = 0
  Multiplicity = 1
  Electrons    = 66
  Nalpha       = 33
  Nbeta        = 33

  ==> Algorithm <==

  SCF Algorithm Type is DF.
  DIIS enabled.
  MOM disabled.
  Fractional occupation disabled.
  Guess Type is READ.
  Energy threshold   = 1.00e-10
  Density threshold  = 1.00e-10
  Integral threshold = 0.00e+00

  ==> Primary Basis <==

  Basis Set: AUG-CC-PVTZ
    Number of shells: 274
    Number of basis function: 782
    Number of Cartesian functions: 890
    Spherical Harmonics?: true
    Max angular momentum: 3

  ==> Pre-Iterations <==

   -------------------------------------------------------
    Irrep   Nso     Nmo     Nalpha   Nbeta   Ndocc  Nsocc
   -------------------------------------------------------
     A        782     782       0       0       0       0
   -------------------------------------------------------
    Total     782     782      33      33      33       0
   -------------------------------------------------------

  ==> Integral Setup <==

  ==> DFJK: Density-Fitted J/K Matrices <==

    J tasked:                  Yes
    K tasked:                  Yes
    wK tasked:                  No
    OpenMP threads:             12
    Integrals threads:          12
    Memory (MB):             42915
    Algorithm:                Core
    Integral Cache:           NONE
    Schwarz Cutoff:          1E-12
    Fitting Condition:       1E-12

   => Auxiliary Basis Set <=

  Basis Set: 
    Number of shells: 492
    Number of basis function: 1660
    Number of Cartesian functions: 2038
    Spherical Harmonics?: true
    Max angular momentum: 4

  Minimum eigenvalue in the overlap matrix is 2.2268769502E-06.
  Using Symmetric Orthogonalization.
  SCF Guess: Reading in previously saved MOs, projecting if necessary.

  Using orbitals from previous SCF, no projection.
  Recomputing DOCC and SOCC from number of alpha and beta electrons from previous calculation.
              A 
    DOCC [    33 ]

  ==> Iterations <==

                           Total Energy        Delta E     RMS |[F,P]|

   @DF-RHF iter   0:  -313.54386239809577   -3.13544e+02   1.26921e-07 
   @DF-RHF iter   1:  -313.54388542409248   -2.30260e-05   2.77691e-08 
   @DF-RHF iter   2:  -313.54388542444173   -3.49246e-10   1.19957e-08 DIIS
   @DF-RHF iter   3:  -313.54388542449414   -5.24096e-11   3.77114e-09 DIIS
   @DF-RHF iter   4:  -313.54388542450369   -9.54969e-12   5.28712e-10 DIIS
   @DF-RHF iter   5:  -313.54388542450448   -7.95808e-13   1.75232e-10 DIIS
   @DF-RHF iter   6:  -313.54388542450323    1.25056e-12   4.52228e-11 DIIS

  ==> Post-Iterations <==

    Orbital Energies (a.u.)
    -----------------------

    Doubly Occupied:                                                      

       1A    -11.212733     2A    -11.212237     3A    -11.210487  
       4A    -11.209887     5A    -11.209330     6A    -11.209168  
       7A    -11.206948     8A    -11.206353     9A     -1.093603  
      10A     -1.060952    11A     -1.010635    12A     -0.944366  
      13A     -0.887814    14A     -0.819038    15A     -0.791591  
      16A     -0.763442    17A     -0.642399    18A     -0.630457  
      19A     -0.612858    20A     -0.590753    21A     -0.580605  
      22A     -0.554161    23A     -0.544354    24A     -0.537999  
      25A     -0.511637    26A     -0.504693    27A     -0.480201  
      28A     -0.474286    29A     -0.467263    30A     -0.460122  
      31A     -0.454125    32A     -0.436290    33A     -0.435256  

    Virtual:                                                              

      34A      0.030665    35A      0.032395    36A      0.033878  
      37A      0.036671    38A      0.043846    39A      0.047654  
      40A      0.049362    41A      0.053904    42A      0.058935  
      43A      0.061182    44A      0.067349    45A      0.068120  
      46A      0.070717    47A      0.084175    48A      0.088699  
      49A      0.092275    50A      0.096133    51A      0.107725  
      52A      0.112202    53A      0.114035    54A      0.118173  
      55A      0.120284    56A      0.126682    57A      0.129544  
      58A      0.133522    59A      0.136843    60A      0.141725  
      61A      0.143416    62A      0.146544    63A      0.151659  
      64A      0.155037    65A      0.156563    66A      0.162398  
      67A      0.163775    68A      0.167693    69A      0.172846  
      70A      0.176049    71A      0.183451    72A      0.185155  
      73A      0.188707    74A      0.196994    75A      0.203788  
      76A      0.213548    77A      0.215446    78A      0.226267  
      79A      0.229052    80A      0.238847    81A      0.240979  
      82A      0.245082    83A      0.251928    84A      0.259502  
      85A      0.264168    86A      0.268416    87A      0.274090  
      88A      0.278752    89A      0.285987    90A      0.290122  
      91A      0.295877    92A      0.304668    93A      0.306920  
      94A      0.312261    95A      0.316946    96A      0.323863  
      97A      0.325148    98A      0.326336    99A      0.333353  
     100A      0.335234   101A      0.338057   102A      0.342313  
     103A      0.345914   104A      0.356112   105A      0.357900  
     106A      0.359860   107A      0.360718   108A      0.364108  
     109A      0.367664   110A      0.371655   111A      0.373686  
     112A      0.374477   113A      0.379346   114A      0.385727  
     115A      0.389250   116A      0.391817   117A      0.393287  
     118A      0.396250   119A      0.405036   120A      0.407432  
     121A      0.414718   122A      0.418238   123A      0.418273  
     124A      0.421079   125A      0.424437   126A      0.431262  
     127A      0.435165   128A      0.442084   129A      0.447051  
     130A      0.449513   131A      0.453665   132A      0.455497  
     133A      0.462532   134A      0.462875   135A      0.465943  
     136A      0.468320   137A      0.472574   138A      0.475862  
     139A      0.481349   140A      0.486619   141A      0.487455  
     142A      0.490075   143A      0.492918   144A      0.499403  
     145A      0.502041   146A      0.504165   147A      0.507039  
     148A      0.510489   149A      0.515839   150A      0.518265  
     151A      0.522966   152A      0.530222   153A      0.530615  
     154A      0.536257   155A      0.540679   156A      0.542975  
     157A      0.549145   158A      0.550854   159A      0.553785  
     160A      0.556823   161A      0.567614   162A      0.570106  
     163A      0.572092   164A      0.576058   165A      0.577945  
     166A      0.588670   167A      0.594552   168A      0.601838  
     169A      0.606357   170A      0.613292   171A      0.618184  
     172A      0.622265   173A      0.627634   174A      0.628673  
     175A      0.631958   176A      0.641793   177A      0.643549  
     178A      0.647344   179A      0.649888   180A      0.655762  
     181A      0.658546   182A      0.671760   183A      0.675948  
     184A      0.680506   185A      0.690057   186A      0.699251  
     187A      0.699582   188A      0.709453   189A      0.713463  
     190A      0.717706   191A      0.721643   192A      0.740936  
     193A      0.742110   194A      0.745004   195A      0.750067  
     196A      0.756727   197A      0.767469   198A      0.779943  
     199A      0.782610   200A      0.787156   201A      0.794456  
     202A      0.801416   203A      0.823175   204A      0.833502  
     205A      0.837570   206A      0.839898   207A      0.845030  
     208A      0.846614   209A      0.848759   210A      0.856794  
     211A      0.859273   212A      0.868216   213A      0.875609  
     214A      0.878922   215A      0.883622   216A      0.891852  
     217A      0.894475   218A      0.899412   219A      0.902375  
     220A      0.905115   221A      0.906770   222A      0.914806  
     223A      0.917217   224A      0.919628   225A      0.925978  
     226A      0.930100   227A      0.935177   228A      0.940228  
     229A      0.944841   230A      0.952276   231A      0.953492  
     232A      0.960160   233A      0.964171   234A      0.966199  
     235A      0.972646   236A      0.977107   237A      0.980485  
     238A      0.988479   239A      0.997573   240A      1.001341  
     241A      1.003397   242A      1.013308   243A      1.014671  
     244A      1.020910   245A      1.026372   246A      1.029502  
     247A      1.034721   248A      1.037514   249A      1.040047  
     250A      1.053298   251A      1.058660   252A      1.066353  
     253A      1.073139   254A      1.073934   255A      1.081374  
     256A      1.085200   257A      1.092416   258A      1.095501  
     259A      1.102357   260A      1.106221   261A      1.112656  
     262A      1.119456   263A      1.123171   264A      1.125918  
     265A      1.130753   266A      1.135886   267A      1.149391  
     268A      1.150067   269A      1.155701   270A      1.161346  
     271A      1.170264   272A      1.175688   273A      1.176360  
     274A      1.181396   275A      1.184557   276A      1.186148  
     277A      1.192628   278A      1.203711   279A      1.206909  
     280A      1.209286   281A      1.213636   282A      1.216624  
     283A      1.221458   284A      1.223965   285A      1.234322  
     286A      1.235780   287A      1.245428   288A      1.249073  
     289A      1.250933   290A      1.265270   291A      1.270726  
     292A      1.274318   293A      1.276324   294A      1.282019  
     295A      1.282848   296A      1.288776   297A      1.293808  
     298A      1.302648   299A      1.312428   300A      1.316188  
     301A      1.321769   302A      1.329013   303A      1.332805  
[...]
	 D(11,9,15,16)    =        -1.132615	     -64.894048
	 D(11,9,15,17)    =         3.127526	     179.194025
	 D(11,9,15,18)    =         1.005867	      57.631923
	 D(12,24,21,18)   =         3.129008	     179.278963
	 D(12,24,21,22)   =         1.004588	      57.558663
	 D(12,24,21,23)   =        -1.023567	     -58.646043
	 D(13,12,24,21)   =         3.024295	     173.279320
	 D(13,12,24,25)   =         0.892865	      51.157415
	 D(13,12,24,26)   =        -1.130642	     -64.781036
	 D(14,12,24,21)   =         1.004240	      57.538708
	 D(14,12,24,25)   =        -1.127189	     -64.583197
	 D(14,12,24,26)   =         3.132488	     179.478352
	 D(15,18,21,22)   =        -3.025413	    -173.343400
	 D(15,18,21,23)   =        -1.002608	     -57.445200
	 D(15,18,21,24)   =         1.126062	      64.518609
	 D(16,15,18,19)   =         3.058208	     175.222384
	 D(16,15,18,20)   =         1.041123	      59.651941
	 D(16,15,18,21)   =        -1.097363	     -62.874264
	 D(17,15,18,19)   =        -1.188518	     -68.097058
	 D(17,15,18,20)   =         3.077583	     176.332498
	 D(17,15,18,21)   =         0.939097	      53.806294
	 D(18,21,24,25)   =        -1.029046	     -58.960001
	 D(18,21,24,26)   =         0.999073	      57.242693
	 D(19,18,21,22)   =        -0.902985	     -51.737204
	 D(19,18,21,23)   =         1.119821	      64.160996
	 D(19,18,21,24)   =        -3.034695	    -173.875196
	 D(20,18,21,22)   =         1.119541	      64.144987
	 D(20,18,21,23)   =        -3.140839	    -179.956813
	 D(20,18,21,24)   =        -1.012169	     -57.993004
	 D(22,21,24,25)   =         3.129719	     179.319699
	 D(22,21,24,26)   =        -1.125347	     -64.477607
	 D(23,21,24,25)   =         1.101564	      63.114992
	 D(23,21,24,26)   =         3.129684	     179.317686

	Current energy   :      -314.9835257808

	Energy change for the previous step:
		Projected    :        -0.0000000000
		Actual       :         0.0000000036

	Performing BFGS update.
	Previous computed or guess Hessian on step 1.
	Denominators (dg)(dq) or (dq)(dq) are very small.
	 Skipping Hessian update for step 7.
	Denominators (dg)(dq) or (dq)(dq) are very small.
	 Skipping Hessian update for step 6.
	Denominators (dg)(dq) or (dq)(dq) are very small.
	 Skipping Hessian update for step 5.
	Denominators (dg)(dq) or (dq)(dq) are very small.
	 Skipping Hessian update for step 4.
	Denominators (dg)(dq) or (dq)(dq) are very small.
	 Skipping Hessian update for step 3.
	Denominators (dg)(dq) or (dq)(dq) are very small.
	 Skipping Hessian update for step 2.
	Steps to be used in Hessian update: 1
	Taking RFO optimization step.
	Going to follow RFO solution 1.
	Using RFO vector 1.
	Norm of target step-size    0.00003
	Projected energy change by RFO approximation:        -0.0000000000

	Back-transformation to cartesian coordinates...
	Successfully converged to displaced geometry.

	--- Internal Coordinate Step in ANG or DEG, aJ/ANG or AJ/DEG ---
	 ---------------------------------------------------------------------------
	   Coordinate                Previous        Force       Change         New 
	   ----------                --------       ------       ------       ------
	    1 R(1,2)          =      1.089729     0.000000     0.000000     1.089729
	    2 R(1,3)          =      1.090724     0.000001     0.000000     1.090724
	    3 R(1,4)          =      1.090698     0.000001     0.000000     1.090698
	    4 R(1,9)          =      1.523631     0.000000     0.000000     1.523631
	    5 R(5,6)          =      1.091338    -0.000002    -0.000000     1.091338
	    6 R(5,7)          =      1.089768    -0.000001    -0.000000     1.089768
	    7 R(5,8)          =      1.089114    -0.000002    -0.000000     1.089114
	    8 R(5,12)         =      1.525100    -0.000000    -0.000000     1.525100
	    9 R(9,10)         =      1.093222     0.000002     0.000000     1.093223
	   10 R(9,11)         =      1.093331     0.000001     0.000000     1.093332
	   11 R(9,15)         =      1.523816     0.000001     0.000000     1.523816
	   12 R(12,13)        =      1.092265    -0.000003    -0.000000     1.092264
	   13 R(12,14)        =      1.093602    -0.000002    -0.000000     1.093602
	   14 R(12,24)        =      1.527798    -0.000002    -0.000000     1.527798
	   15 R(15,16)        =      1.093026     0.000003     0.000000     1.093026
	   16 R(15,17)        =      1.095461     0.000004     0.000001     1.095461
	   17 R(15,18)        =      1.524433     0.000002     0.000000     1.524433
	   18 R(18,19)        =      1.093931     0.000002     0.000000     1.093932
	   19 R(18,20)        =      1.094943     0.000002     0.000000     1.094943
	   20 R(18,21)        =      1.527584     0.000001     0.000000     1.527585
	   21 R(21,22)        =      1.092068    -0.000000     0.000000     1.092068
	   22 R(21,23)        =      1.095433     0.000001     0.000000     1.095433
	   23 R(21,24)        =      1.525192    -0.000003    -0.000000     1.525191
	   24 R(24,25)        =      1.091959    -0.000001     0.000000     1.091959
	   25 R(24,26)        =      1.095660    -0.000002     0.000000     1.095660
	   26 B(1,9,10)       =    109.780930     0.000000    -0.000000   109.780930
	   27 B(1,9,11)       =    109.747543     0.000000    -0.000001   109.747542
	   28 B(1,9,15)       =    112.473587    -0.000000    -0.000037   112.473550
	   29 B(2,1,3)        =    107.911003    -0.000000    -0.000000   107.911003
	   30 B(2,1,4)        =    107.911415    -0.000000     0.000001   107.911417
	   31 B(2,1,9)        =    111.691592     0.000000    -0.000001   111.691592
	   32 B(3,1,4)        =    107.696684    -0.000000    -0.000003   107.696681
	   33 B(3,1,9)        =    110.732763     0.000000     0.000003   110.732767
	   34 B(4,1,9)        =    110.743489     0.000000    -0.000001   110.743489
	   35 B(5,12,13)      =    109.037648     0.000000    -0.000002   109.037647
	   36 B(5,12,14)      =    109.656831     0.000000     0.000007   109.656838
	   37 B(5,12,24)      =    113.529949    -0.000000    -0.000012   113.529937
	   38 B(6,5,7)        =    107.848656    -0.000000     0.000000   107.848656
	   39 B(6,5,8)        =    107.837397     0.000000     0.000000   107.837397
	   40 B(6,5,12)       =    110.584362    -0.000000    -0.000005   110.584357
	   41 B(7,5,8)        =    107.539773    -0.000000    -0.000005   107.539768
	   42 B(7,5,12)       =    111.119524     0.000000     0.000007   111.119531
	   43 B(8,5,12)       =    111.744666    -0.000000     0.000002   111.744668
	   44 B(9,15,16)      =    108.789792    -0.000000    -0.000021   108.789771
	   45 B(9,15,17)      =    109.246612    -0.000000    -0.000024   109.246588
	   46 B(9,15,18)      =    112.689350     0.000000     0.000069   112.689419
	   47 B(10,9,11)      =    106.442214    -0.000000    -0.000004   106.442210
	   48 B(10,9,15)      =    109.140766     0.000000     0.000036   109.140802
	   49 B(11,9,15)      =    109.070498     0.000000     0.000008   109.070505
	   50 B(12,24,21)     =    113.618873     0.000000    -0.000004   113.618869
	   51 B(12,24,25)     =    108.764652    -0.000000    -0.000002   108.764651
	   52 B(12,24,26)     =    109.199728    -0.000000    -0.000022   109.199707
	   53 B(13,12,14)     =    106.418416    -0.000000     0.000003   106.418419
	   54 B(13,12,24)     =    108.906422    -0.000000    -0.000009   108.906413
	   55 B(14,12,24)     =    109.044351     0.000000     0.000013   109.044365
	   56 B(15,18,19)     =    108.548182     0.000000     0.000003   108.548185
	   57 B(15,18,20)     =    109.179152     0.000000     0.000005   109.179158
	   58 B(15,18,21)     =    114.152585    -0.000000    -0.000002   114.152583
	   59 B(16,15,17)     =    106.523208     0.000000    -0.000029   106.523179
	   60 B(16,15,18)     =    110.205564    -0.000000    -0.000029   110.205535
	   61 B(17,15,18)     =    109.194276    -0.000000     0.000028   109.194304
	   62 B(18,21,22)     =    108.711235     0.000000    -0.000019   108.711217
	   63 B(18,21,23)     =    109.232156     0.000000     0.000004   109.232160
	   64 B(18,21,24)     =    113.607861    -0.000000    -0.000001   113.607860
	   65 B(19,18,20)     =    106.378680    -0.000000    -0.000006   106.378674
	   66 B(19,18,21)     =    109.087884     0.000000    -0.000001   109.087883
	   67 B(20,18,21)     =    109.205877     0.000000    -0.000000   109.205877
	   68 B(21,24,25)     =    109.414740    -0.000000     0.000003   109.414743
	   69 B(21,24,26)     =    109.025572     0.000000     0.000016   109.025588
	   70 B(22,21,23)     =    106.554760    -0.000000    -0.000001   106.554759
	   71 B(22,21,24)     =    109.463423     0.000000     0.000012   109.463435
	   72 B(23,21,24)     =    109.031732     0.000000     0.000005   109.031738
	   73 B(25,24,26)     =    106.578648     0.000000     0.000008   106.578656
	   74 D(1,9,15,16)    =     57.103750    -0.000000     0.000058    57.103808
	   75 D(1,9,15,17)    =    -58.808176     0.000000     0.000117   -58.808059
	   76 D(1,9,15,18)    =    179.629722    -0.000000     0.000052   179.629774
	   77 D(2,1,9,10)     =     58.162358    -0.000000     0.000005    58.162363
	   78 D(2,1,9,11)     =    -58.498015    -0.000000     0.000010   -58.498005
	   79 D(2,1,9,15)     =    179.888841     0.000000     0.000026   179.888867
	   80 D(3,1,9,10)     =    -62.133313    -0.000000     0.000003   -62.133310
	   81 D(3,1,9,11)     =   -178.793686    -0.000000     0.000009  -178.793677
	   82 D(3,1,9,15)     =     59.593170     0.000000     0.000024    59.593195
	   83 D(4,1,9,10)     =    178.465866    -0.000000     0.000006   178.465871
	   84 D(4,1,9,11)     =     61.805493    -0.000000     0.000011    61.805504
	   85 D(4,1,9,15)     =    -59.807651     0.000000     0.000027   -59.807624
	   86 D(5,12,24,21)   =    -65.039179    -0.000000    -0.000226   -65.039405
	   87 D(5,12,24,25)   =    172.838916     0.000000    -0.000227   172.838690
	   88 D(5,12,24,26)   =     56.900466     0.000000    -0.000224    56.900242
	   89 D(6,5,12,13)    =     65.816693     0.000000     0.000231    65.816925
	   90 D(6,5,12,14)    =   -178.030666     0.000000     0.000237  -178.030429
	   91 D(6,5,12,24)    =    -55.791606     0.000000     0.000252   -55.791354
	   92 D(7,5,12,13)    =    -53.922128    -0.000000     0.000229   -53.921899
	   93 D(7,5,12,14)    =     62.230512     0.000000     0.000235    62.230747
	   94 D(7,5,12,24)    =   -175.530428     0.000000     0.000250  -175.530178
	   95 D(8,5,12,13)    =   -174.046417    -0.000000     0.000229  -174.046188
	   96 D(8,5,12,14)    =    -57.893777     0.000000     0.000236   -57.893542
	   97 D(8,5,12,24)    =     64.345283     0.000000     0.000250    64.345533
	   98 D(9,15,18,19)   =     53.494730     0.000000    -0.000252    53.494479
	   99 D(9,15,18,20)   =    -62.075713    -0.000000    -0.000249   -62.075963
	  100 D(9,15,18,21)   =    175.398082     0.000000    -0.000252   175.397831
	  101 D(10,9,15,16)   =    179.193530    -0.000000     0.000058   179.193588
	  102 D(10,9,15,17)   =     63.281604     0.000000     0.000118    63.281721
	  103 D(10,9,15,18)   =    -58.280499    -0.000000     0.000052   -58.280446
	  104 D(11,9,15,16)   =    -64.894048    -0.000000     0.000078   -64.893970
	  105 D(11,9,15,17)   =    179.194025     0.000000     0.000137   179.194162
	  106 D(11,9,15,18)   =     57.631923    -0.000000     0.000072    57.631995
	  107 D(12,24,21,18)  =    179.278963     0.000000     0.000182   179.279145
	  108 D(12,24,21,22)  =     57.558663     0.000000     0.000198    57.558861
	  109 D(12,24,21,23)  =    -58.646043     0.000000     0.000189   -58.645854
	  110 D(13,12,24,21)  =    173.279320    -0.000000    -0.000209   173.279110
	  111 D(13,12,24,25)  =     51.157415     0.000000    -0.000210    51.157205
	  112 D(13,12,24,26)  =    -64.781036    -0.000000    -0.000207   -64.781243
	  113 D(14,12,24,21)  =     57.538708    -0.000000    -0.000215    57.538493
	  114 D(14,12,24,25)  =    -64.583197     0.000000    -0.000216   -64.583413
	  115 D(14,12,24,26)  =    179.478352    -0.000000    -0.000213   179.478139
	  116 D(15,18,21,22)  =   -173.343400    -0.000000     0.000097  -173.343303
	  117 D(15,18,21,23)  =    -57.445200     0.000000     0.000087   -57.445113
	  118 D(15,18,21,24)  =     64.518609    -0.000000     0.000095    64.518704
	  119 D(16,15,18,19)  =    175.222384     0.000000    -0.000252   175.222132
	  120 D(16,15,18,20)  =     59.651941     0.000000    -0.000250    59.651691
	  121 D(16,15,18,21)  =    -62.874264     0.000000    -0.000252   -62.874516
	  122 D(17,15,18,19)  =    -68.097058    -0.000000    -0.000287   -68.097345
	  123 D(17,15,18,20)  =    176.332498    -0.000000    -0.000284   176.332214
	  124 D(17,15,18,21)  =     53.806294    -0.000000    -0.000287    53.806007
	  125 D(18,21,24,25)  =    -58.960001     0.000000     0.000180   -58.959821
	  126 D(18,21,24,26)  =     57.242693     0.000000     0.000201    57.242894
	  127 D(19,18,21,22)  =    -51.737204    -0.000000     0.000099   -51.737105
	  128 D(19,18,21,23)  =     64.160996     0.000000     0.000089    64.161085
	  129 D(19,18,21,24)  =   -173.875196    -0.000000     0.000098  -173.875098
	  130 D(20,18,21,22)  =     64.144987     0.000000     0.000091    64.145078
	  131 D(20,18,21,23)  =   -179.956813     0.000000     0.000081  -179.956731
	  132 D(20,18,21,24)  =    -57.993004    -0.000000     0.000090   -57.992914
	  133 D(22,21,24,25)  =    179.319699     0.000000     0.000196   179.319895
	  134 D(22,21,24,26)  =    -64.477607     0.000000     0.000217   -64.477390
	  135 D(23,21,24,25)  =     63.114992    -0.000000     0.000187    63.115180
	  136 D(23,21,24,26)  =    179.317686     0.000000     0.000208   179.317894
	 ---------------------------------------------------------------------------

  ==> Convergence Check <==

  Measures of convergence in internal coordinates in au.
  Criteria marked as inactive (o), active & met (*), and active & unmet ( ).
  ---------------------------------------------------------------------------------------------
   Step     Total Energy     Delta E     MAX Force     RMS Force      MAX Disp      RMS Disp   
  ---------------------------------------------------------------------------------------------
    Convergence Criteria             o    2.00e-06 *    1.00e-06 *    6.00e-06 *    4.00e-06 *
  ---------------------------------------------------------------------------------------------
      8    -314.98352578    3.64e-09 o    4.51e-07 *    1.22e-07 *    5.01e-06 *    2.16e-06 *  ~
  ---------------------------------------------------------------------------------------------


  **** Optimization is complete! (in 8 steps) ****

  ==> Optimization Summary <==

  Measures of convergence in internal coordinates in au.
  --------------------------------------------------------------------------------------------------------------- ~
   Step         Total Energy             Delta E       MAX Force       RMS Force        MAX Disp        RMS Disp  ~
  --------------------------------------------------------------------------------------------------------------- ~
      1    -314.983525782255   -314.983525782255      0.00000116      0.00000029      0.00006234      0.00001672  ~
      2    -314.983525782776     -0.000000000521      0.00000122      0.00000022      0.00003565      0.00001305  ~
      3    -314.983525780293      0.000000002483      0.00000068      0.00000017      0.00001893      0.00000676  ~
      4    -314.983525780927     -0.000000000634      0.00000120      0.00000032      0.00001671      0.00000504  ~
      5    -314.983525779547      0.000000001380      0.00000141      0.00000032      0.00009348      0.00002355  ~
      6    -314.983525780508     -0.000000000962      0.00000580      0.00000151      0.00008751      0.00002286  ~
      7    -314.983525784419     -0.000000003910      0.00000070      0.00000018      0.00000954      0.00000371  ~
      8    -314.983525780776      0.000000003643      0.00000045      0.00000012      0.00000501      0.00000216  ~
  --------------------------------------------------------------------------------------------------------------- ~

	Writing optimization data to binary file.
	Final energy is   -314.9835257807764
	Final (previous) structure:
	Cartesian Geometry (in Angstrom)
	    C    -4.0243787803  -0.7342444145   0.0452451254
	    H    -5.0265139315  -0.4138251399  -0.2385962545
	    H    -4.0454728172  -1.0053251551   1.1015351896
	    H    -3.7863016087  -1.6340848856  -0.5232870524
	    C     3.9139110136   0.2214592283  -0.1508078471
	    H     3.9231000910   0.4586325856  -1.2160229483
	    H     4.9186975915  -0.0934559212   0.1299524091
	    H     3.6933816756   1.1387675042   0.3933265343
	    C    -2.9908878035   0.3554662404  -0.2114217040
	    H    -3.2592127032   1.2580596185   0.3439721459
	    H    -2.9982637894   0.6296889480  -1.2697794009
	    C     2.8923843978  -0.8712720780   0.1464338861
	    H     3.2121704193  -1.7983196643  -0.3345667514
	    H     2.8708028578  -1.0721706580   1.2212079244
	    C    -1.5825184829  -0.0731317665   0.1820431897
	    H    -1.3257101607  -0.9836075498  -0.3654867554
	    H    -1.5686171328  -0.3348354853   1.2456937493
	    C    -0.5430195483   1.0104187770  -0.0811229223
	    H    -0.8698605513   1.9324546173   0.4084792981
	    H    -0.5111397766   1.2252634046  -1.1543077608
	    C     0.8625480167   0.6589273224   0.4029720685
	    H     1.5043898941   1.5338974119   0.2801800271
	    H     0.8310138981   0.4431464908   1.4764787570
	    C     1.4798369014  -0.5304151808  -0.3254702026
	    H     0.8436236237  -1.4078017885  -0.1920552030
	    H     1.5001376363  -0.3195151418  -1.4004496260
	Saving final (previous) structure.
			--------------------------
			 OPTKING Finished Execution 
			--------------------------

    Final optimized geometry and variables:
    Molecular point group: c1
    Full point group: C1

    Geometry (in Angstrom), charge = 0, multiplicity = 1:

    C           -4.024378780252    -0.734244414495     0.045245125384
    H           -5.026513931495    -0.413825139932    -0.238596254456
    H           -4.045472817223    -1.005325155057     1.101535189570
    H           -3.786301608732    -1.634084885616    -0.523287052395
    C            3.913911013609     0.221459228306    -0.150807847115
    H            3.923100091043     0.458632585607    -1.216022948254
    H            4.918697591473    -0.093455921182     0.129952409077
    H            3.693381675644     1.138767504168     0.393326534333
    C           -2.990887803469     0.355466240419    -0.211421703993
    H           -3.259212703240     1.258059618501     0.343972145893
    H           -2.998263789388     0.629688948043    -1.269779400896
    C            2.892384397790    -0.871272077995     0.146433886111
    H            3.212170419315    -1.798319664275    -0.334566751437
    H            2.870802857829    -1.072170657959     1.221207924390
    C           -1.582518482878    -0.073131766526     0.182043189689
    H           -1.325710160655    -0.983607549836    -0.365486755366
    H           -1.568617132850    -0.334835485339     1.245693749302
    C           -0.543019548347     1.010418776960    -0.081122922255
    H           -0.869860551328     1.932454617282     0.408479298115
    H           -0.511139776621     1.225263404612    -1.154307760797
    C            0.862548016723     0.658927322416     0.402972068474
    H            1.504389894051     1.533897411858     0.280180027091
    H            0.831013898059     0.443146490828     1.476478756978
    C            1.479836901392    -0.530415180848    -0.325470202577
    H            0.843623623664    -1.407801788476    -0.192055202998
    H            1.500137636338    -0.319515141771    -1.400449626011

	Cleaning optimization helper files.

*** Psi4 exiting successfully. Buy a developer a beer!
