    -----------------------------------------------------------------------
          Psi4: An Open-Source Ab Initio Electronic Structure Package
                              Psi4 1.0.0 Driver

                          Git: Rev {master} 6a9a71b dirty

    J. M. Turney, A. C. Simmonett, R. M. Parrish, E. G. Hohenstein,
    F. A. Evangelista, J. T. Fermann, B. J. Mintz, L. A. Burns, J. J. Wilke,
    M. L. Abrams, N. J. Russ, M. L. Leininger, C. L. Janssen, E. T. Seidl,
    W. D. Allen, H. F. Schaefer, R. A. King, E. F. Valeev, C. D. Sherrill,
    and T. D. Crawford, WIREs Comput. Mol. Sci. 2, 556-565 (2012)
    (doi: 10.1002/wcms.93)

                         Additional Contributions by
    A. E. DePrince, U. Bozkaya, A. Yu. Sokolov, D. G. A. Smith, R. Di Remigio,
    R. M. Richard, J. F. Gonthier, H. R. McAlexander, M. Saitow, and
    B. P. Pritchard
    -----------------------------------------------------------------------


    Psi4 started on: Wed Sep 21 04:57:33 2016

    Process ID:  37514
    PSI4DATADIR: /usr/local/hpc5/psi4conda/share/psi4
    Memory level set to 256.000 MB

  ==> Input File <==

--------------------------------------------------------------------------
memory 60 Gb

molecule molecule_83_psi {
0 1
C            1.375540930148    -1.914064104250     0.275208962498
H            0.371572590874    -1.642945447947     0.602030131483
H            1.979230443915    -2.083501847707     1.168627596959
H            1.303641972213    -2.858577267906    -0.264093728264
C           -3.102965001617    -0.904741761023     0.037930050925
H           -3.787334293553    -1.135956365492     0.853821215500
H           -2.602216064215    -1.829565529546    -0.252439765030
H           -3.695836902458    -0.567732993063    -0.813368916785
C            1.998876978790    -0.827585277765    -0.593849016849
H            1.387643163543    -0.661875235553    -1.483400602974
H            2.969398852209    -1.174623145112    -0.956512566389
C           -2.083527790894     0.154174712054     0.440199255238
H           -2.598236991824     1.066300497546     0.755212616680
H           -1.521494155167    -0.197489236109     1.308352226623
C            2.206805232442     0.491551867916     0.148081325234
H            2.693089995373     1.203978320874    -0.524864039001
H            2.906633000107     0.317363761316     0.971408689260
C            0.945736328858     1.148569246991     0.713267604270
H            1.261495570931     2.042886743663     1.255498574936
H            0.487945118000     0.497777529311     1.461321951272
C           -0.091819371424     1.555123475794    -0.341603812689
H           -0.635523724662     2.435213473098     0.013952541208
H            0.435941525734     1.870344957358    -1.247233240302
C           -1.130230935169     0.489784019545    -0.701185827017
H           -1.722669824795     0.849643036483    -1.548017221849
H           -0.643243720651    -0.427022837804    -1.038923208907
}

set globals {
  reference rhf
  g_convergence gau_verytight
  basis aug-cc-pvtz
  freeze_core true
  scf_type df
  mp_type df
}
optimize('mp2')
--------------------------------------------------------------------------
/usr/local/hpc5/psi4conda/lib/python2.7/site-packages/v2rdm_casscf/v2rdm_casscf.so loaded.

  Memory set to  60.000 GiB by Python script.
gradient() will perform analytic gradient computation.

*** tstart() called on wr34
*** at Wed Sep 21 04:57:34 2016


         ---------------------------------------------------------
                                   SCF
            by Justin Turney, Rob Parrish, and Andy Simmonett
                              RHF Reference
                       12 Threads,  60000 MiB Core
         ---------------------------------------------------------

  ==> Geometry <==

    Molecular point group: c1
    Full point group: C1

    Geometry (in Angstrom), charge = 0, multiplicity = 1:

       Center              X                  Y                   Z               Mass       
    ------------   -----------------  -----------------  -----------------  -----------------
           C          1.375540930148    -1.914064104250     0.275208962498    12.000000000000
           H          0.371572590874    -1.642945447947     0.602030131483     1.007825032070
           H          1.979230443915    -2.083501847707     1.168627596959     1.007825032070
           H          1.303641972213    -2.858577267906    -0.264093728264     1.007825032070
           C         -3.102965001617    -0.904741761023     0.037930050925    12.000000000000
           H         -3.787334293553    -1.135956365492     0.853821215500     1.007825032070
           H         -2.602216064215    -1.829565529546    -0.252439765030     1.007825032070
           H         -3.695836902458    -0.567732993063    -0.813368916785     1.007825032070
           C          1.998876978790    -0.827585277765    -0.593849016849    12.000000000000
           H          1.387643163543    -0.661875235553    -1.483400602974     1.007825032070
           H          2.969398852209    -1.174623145112    -0.956512566389     1.007825032070
           C         -2.083527790894     0.154174712054     0.440199255238    12.000000000000
           H         -2.598236991824     1.066300497546     0.755212616680     1.007825032070
           H         -1.521494155167    -0.197489236109     1.308352226623     1.007825032070
           C          2.206805232442     0.491551867916     0.148081325234    12.000000000000
           H          2.693089995373     1.203978320874    -0.524864039001     1.007825032070
           H          2.906633000107     0.317363761316     0.971408689260     1.007825032070
           C          0.945736328858     1.148569246991     0.713267604270    12.000000000000
           H          1.261495570931     2.042886743663     1.255498574936     1.007825032070
           H          0.487945118000     0.497777529311     1.461321951272     1.007825032070
           C         -0.091819371424     1.555123475794    -0.341603812689    12.000000000000
           H         -0.635523724662     2.435213473098     0.013952541208     1.007825032070
           H          0.435941525734     1.870344957358    -1.247233240302     1.007825032070
           C         -1.130230935169     0.489784019545    -0.701185827017    12.000000000000
           H         -1.722669824795     0.849643036483    -1.548017221849     1.007825032070
           H         -0.643243720651    -0.427022837804    -1.038923208907     1.007825032070

  Running in c1 symmetry.

  Rotational constants: A =      0.08754  B =      0.03786  C =      0.03021 [cm^-1]
  Rotational constants: A =   2624.36586  B =   1134.87098  C =    905.58099 [MHz]
  Nuclear repulsion =  406.798134721698602

  Charge       = 0
  Multiplicity = 1
  Electrons    = 66
  Nalpha       = 33
  Nbeta        = 33

  ==> Algorithm <==

  SCF Algorithm Type is DF.
  DIIS enabled.
  MOM disabled.
  Fractional occupation disabled.
  Guess Type is SAD.
  Energy threshold   = 1.00e-10
  Density threshold  = 1.00e-10
  Integral threshold = 0.00e+00

  ==> Primary Basis <==

  Basis Set: AUG-CC-PVTZ
    Number of shells: 274
    Number of basis function: 782
    Number of Cartesian functions: 890
    Spherical Harmonics?: true
    Max angular momentum: 3

  ==> Pre-Iterations <==

   -------------------------------------------------------
    Irrep   Nso     Nmo     Nalpha   Nbeta   Ndocc  Nsocc
   -------------------------------------------------------
     A        782     782       0       0       0       0
   -------------------------------------------------------
    Total     782     782      33      33      33       0
   -------------------------------------------------------

  ==> Integral Setup <==

  ==> DFJK: Density-Fitted J/K Matrices <==

    J tasked:                  Yes
    K tasked:                  Yes
    wK tasked:                  No
    OpenMP threads:             12
    Integrals threads:          12
    Memory (MB):             42915
    Algorithm:                Core
    Integral Cache:           NONE
    Schwarz Cutoff:          1E-12
    Fitting Condition:       1E-12

   => Auxiliary Basis Set <=

  Basis Set: 
    Number of shells: 492
    Number of basis function: 1660
    Number of Cartesian functions: 2038
    Spherical Harmonics?: true
    Max angular momentum: 4

  Minimum eigenvalue in the overlap matrix is 1.7352117896E-06.
  Using Symmetric Orthogonalization.
  SCF Guess: Superposition of Atomic Densities via on-the-fly atomic UHF.

  ==> Iterations <==

                           Total Energy        Delta E     RMS |[F,P]|

   @DF-RHF iter   0:  -317.02615620553013   -3.17026e+02   7.04585e-03 
   @DF-RHF iter   1:  -313.29671853085858    3.72944e+00   6.96415e-04 
   @DF-RHF iter   2:  -313.50413230776462   -2.07414e-01   2.56815e-04 DIIS
   @DF-RHF iter   3:  -313.53068283976188   -2.65505e-02   1.03425e-04 DIIS
   @DF-RHF iter   4:  -313.53588784892850   -5.20501e-03   1.65918e-05 DIIS
   @DF-RHF iter   5:  -313.53605674473101   -1.68896e-04   5.28443e-06 DIIS
   @DF-RHF iter   6:  -313.53607125445103   -1.45097e-05   1.29320e-06 DIIS
   @DF-RHF iter   7:  -313.53607226769896   -1.01325e-06   2.80194e-07 DIIS
   @DF-RHF iter   8:  -313.53607232043476   -5.27358e-08   8.65168e-08 DIIS
   @DF-RHF iter   9:  -313.53607232512661   -4.69186e-09   2.44299e-08 DIIS
   @DF-RHF iter  10:  -313.53607232555464   -4.28031e-10   6.79250e-09 DIIS
   @DF-RHF iter  11:  -313.53607232558898   -3.43334e-11   1.60021e-09 DIIS
   @DF-RHF iter  12:  -313.53607232559068   -1.70530e-12   4.16993e-10 DIIS
   @DF-RHF iter  13:  -313.53607232559079   -1.13687e-13   1.30679e-10 DIIS
   @DF-RHF iter  14:  -313.53607232559125   -4.54747e-13   3.73030e-11 DIIS

  ==> Post-Iterations <==

    Orbital Energies (a.u.)
    -----------------------

    Doubly Occupied:                                                      

       1A    -11.212463     2A    -11.212312     3A    -11.211230  
       4A    -11.210883     5A    -11.209404     6A    -11.209257  
       7A    -11.207385     8A    -11.207239     9A     -1.094306  
      10A     -1.058347    11A     -1.007456    12A     -0.950200  
      13A     -0.884162    14A     -0.836136    15A     -0.787522  
      16A     -0.750340    17A     -0.650845    18A     -0.631580  
      19A     -0.612568    20A     -0.579753    21A     -0.579115  
      22A     -0.569408    23A     -0.542859    24A     -0.531532  
      25A     -0.519491    26A     -0.505104    27A     -0.485731  
      28A     -0.474354    29A     -0.467952    30A     -0.461126  
      31A     -0.440701    32A     -0.437820    33A     -0.434940  

    Virtual:                                                              

      34A      0.029204    35A      0.033698    36A      0.034384  
      37A      0.034966    38A      0.046795    39A      0.048584  
      40A      0.050328    41A      0.052788    42A      0.056514  
      43A      0.068797    44A      0.069714    45A      0.071561  
      46A      0.073882    47A      0.079325    48A      0.084268  
      49A      0.089038    50A      0.096307    51A      0.101443  
      52A      0.114954    53A      0.117647    54A      0.120978  
      55A      0.123110    56A      0.129132    57A      0.132277  
      58A      0.133672    59A      0.136505    60A      0.141368  
      61A      0.146670    62A      0.148325    63A      0.152528  
      64A      0.154502    65A      0.157064    66A      0.159801  
      67A      0.166038    68A      0.169513    69A      0.173573  
      70A      0.177846    71A      0.179380    72A      0.182712  
      73A      0.186821    74A      0.188194    75A      0.191791  
      76A      0.202293    77A      0.204586    78A      0.218714  
      79A      0.225189    80A      0.232880    81A      0.239699  
      82A      0.245761    83A      0.251103    84A      0.260516  
      85A      0.268437    86A      0.270709    87A      0.278900  
      88A      0.282788    89A      0.289950    90A      0.295220  
      91A      0.304643    92A      0.309073    93A      0.312592  
      94A      0.317980    95A      0.321158    96A      0.324926  
      97A      0.330459    98A      0.333287    99A      0.335745  
     100A      0.338189   101A      0.344980   102A      0.348292  
     103A      0.349772   104A      0.355556   105A      0.355919  
     106A      0.360854   107A      0.364112   108A      0.367421  
     109A      0.370855   110A      0.374094   111A      0.376649  
     112A      0.380565   113A      0.383036   114A      0.386701  
     115A      0.388570   116A      0.395540   117A      0.399071  
     118A      0.403199   119A      0.406710   120A      0.417831  
     121A      0.420732   122A      0.423261   123A      0.428784  
     124A      0.433908   125A      0.439961   126A      0.443011  
     127A      0.446575   128A      0.450819   129A      0.452597  
     130A      0.455067   131A      0.458516   132A      0.463102  
     133A      0.471367   134A      0.472751   135A      0.477474  
     136A      0.478523   137A      0.483068   138A      0.486674  
     139A      0.488913   140A      0.495504   141A      0.498562  
     142A      0.499720   143A      0.503930   144A      0.506882  
     145A      0.512073   146A      0.514159   147A      0.522011  
     148A      0.527471   149A      0.532177   150A      0.534297  
     151A      0.540127   152A      0.541350   153A      0.548756  
     154A      0.552681   155A      0.557186   156A      0.562121  
     157A      0.565952   158A      0.572238   159A      0.573431  
     160A      0.579048   161A      0.581912   162A      0.588720  
     163A      0.599229   164A      0.604404   165A      0.605621  
     166A      0.608186   167A      0.614167   168A      0.618810  
     169A      0.619423   170A      0.624901   171A      0.629225  
     172A      0.634100   173A      0.636219   174A      0.643992  
     175A      0.644944   176A      0.651355   177A      0.660711  
     178A      0.663448   179A      0.669551   180A      0.676136  
     181A      0.682264   182A      0.685946   183A      0.694364  
     184A      0.696928   185A      0.701210   186A      0.703120  
     187A      0.717881   188A      0.721646   189A      0.725527  
     190A      0.735479   191A      0.737841   192A      0.744562  
     193A      0.748386   194A      0.754034   195A      0.760257  
     196A      0.762057   197A      0.766758   198A      0.768275  
     199A      0.779176   200A      0.785976   201A      0.795008  
     202A      0.811508   203A      0.818863   204A      0.822696  
     205A      0.827230   206A      0.831649   207A      0.847786  
     208A      0.852845   209A      0.855556   210A      0.861062  
     211A      0.865570   212A      0.884762   213A      0.890527  
     214A      0.891237   215A      0.893444   216A      0.902762  
     217A      0.903347   218A      0.908853   219A      0.914466  
     220A      0.921374   221A      0.926363   222A      0.928936  
     223A      0.932819   224A      0.940411   225A      0.943481  
     226A      0.949406   227A      0.955448   228A      0.957872  
     229A      0.963684   230A      0.965601   231A      0.978367  
     232A      0.981932   233A      0.985311   234A      0.987642  
     235A      0.993934   236A      0.999242   237A      0.999886  
     238A      1.009826   239A      1.013866   240A      1.019913  
     241A      1.020844   242A      1.028781   243A      1.031656  
     244A      1.038075   245A      1.043530   246A      1.046886  
     247A      1.051338   248A      1.057255   249A      1.060044  
     250A      1.077942   251A      1.080325   252A      1.085724  
     253A      1.093719   254A      1.097602   255A      1.106367  
     256A      1.109316   257A      1.115043   258A      1.118390  
     259A      1.128336   260A      1.133441   261A      1.137461  
     262A      1.146085   263A      1.149764   264A      1.152756  
     265A      1.154582   266A      1.159672   267A      1.171105  
     268A      1.172493   269A      1.178213   270A      1.185802  
     271A      1.192810   272A      1.197093   273A      1.203324  
     274A      1.204441   275A      1.211998   276A      1.218884  
     277A      1.223039   278A      1.231265   279A      1.235955  
     280A      1.239825   281A      1.245366   282A      1.246298  
     283A      1.257867   284A      1.260947   285A      1.262541  
     286A      1.270440   287A      1.277322   288A      1.279969  
     289A      1.281873   290A      1.287371   291A      1.288825  
     292A      1.299601   293A      1.307843   294A      1.309825  
     295A      1.318238   296A      1.323642   297A      1.331751  
     298A      1.335655   299A      1.345944   300A      1.354021  
     301A      1.359948   302A      1.363917   303A      1.365405  
     304A      1.376692   305A      1.382084   306A      1.389446  
     307A      1.395515   308A      1.401816   309A      1.412960  
     310A      1.415128   311A      1.420460   312A      1.435100  
     313A      1.440081   314A      1.451406   315A      1.461876  
     316A      1.469061   317A      1.472775   318A      1.485060  
     319A      1.491924   320A      1.496943   321A      1.502679  
     322A      1.510839   323A      1.514123   324A      1.529435  
     325A      1.534956   326A      1.537876   327A      1.538685  
     328A      1.551368   329A      1.551689   330A      1.564272  
     331A      1.568969   332A      1.573109   333A      1.579548  
     334A      1.586868   335A      1.592205   336A      1.596923  
     337A      1.610461   338A      1.613616   339A      1.623038  
     340A      1.627378   341A      1.633158   342A      1.645465  
     343A      1.650730   344A      1.660984   345A      1.668773  
     346A      1.670930   347A      1.680854   348A      1.682730  
     349A      1.692718   350A      1.696633   351A      1.705470  
     352A      1.714216   353A      1.715553   354A      1.721844  
     355A      1.729599   356A      1.735561   357A      1.743067  
     358A      1.751371   359A      1.759829   360A      1.762078  
     361A      1.772464   362A      1.780532   363A      1.785342  
     364A      1.788694   365A      1.796079   366A      1.802912  
     367A      1.812395   368A      1.812491   369A      1.822296  
     370A      1.825331   371A      1.831977   372A      1.836513  
     373A      1.842420   374A      1.844537   375A      1.853323  
     376A      1.859293   377A      1.860093   378A      1.868050  
     379A      1.874000   380A      1.882373   381A      1.885019  
     382A      1.892773   383A      1.896817   384A      1.903388  
     385A      1.918000   386A      1.922156   387A      1.929772  
     388A      1.938234   389A      1.944425   390A      1.952723  
     391A      1.960272   392A      1.961721   393A      1.968933  
     394A      1.977997   395A      1.982669   396A      1.991874  
     397A      1.999622   398A      2.007691   399A      2.021545  
     400A      2.027411   401A      2.028462   402A      2.032356  
     403A      2.041242   404A      2.045309   405A      2.054521  
     406A      2.063797   407A      2.066104   408A      2.072556  
     409A      2.086206   410A      2.088734   411A      2.094969  
     412A      2.103664   413A      2.110746   414A      2.119391  
     415A      2.128580   416A      2.133526   417A      2.140745  
     418A      2.152820   419A      2.165007   420A      2.168919  
     421A      2.172876   422A      2.179132   423A      2.189215  
     424A      2.199160   425A      2.202342   426A      2.222594  
     427A      2.229193   428A      2.234502   429A      2.245286  
     430A      2.261396   431A      2.267652   432A      2.273834  
     433A      2.281999   434A      2.297578   435A      2.300340  
     436A      2.310215   437A      2.318227   438A      2.329449  
     439A      2.334170   440A      2.344667   441A      2.347959  
     442A      2.359035   443A      2.367207   444A      2.378162  
     445A      2.388016   446A      2.390144   447A      2.402604  
     448A      2.414476   449A      2.416673   450A      2.427148  
     451A      2.429828   452A      2.438353   453A      2.445816  
     454A      2.460059   455A      2.462047   456A      2.479087  
     457A      2.490154   458A      2.498306   459A      2.505740  
     460A      2.524421   461A      2.531095   462A      2.540996  
     463A      2.567439   464A      2.574496   465A      2.583696  
     466A      2.589341   467A      2.592291   468A      2.600673  
     469A      2.624631   470A      2.633413   471A      2.645617  
     472A      2.648689   473A      2.662081   474A      2.677838  
     475A      2.689715   476A      2.706102   477A      2.722337  
     478A      2.736281   479A      2.753776   480A      2.760912  
     481A      2.778770   482A      2.803588   483A      2.839756  
     484A      2.871519   485A      2.959459   486A      2.965866  
     487A      3.034680   488A      3.057316   489A      3.097274  
     490A      3.127855   491A      3.203894   492A      3.289959  
     493A      3.296649   494A      3.319563   495A      3.368880  
     496A      3.393685   497A      3.422662   498A      3.446946  
     499A      3.451900   500A      3.476908   501A      3.489567  
     502A      3.497525   503A      3.529602   504A      3.536590  
     505A      3.566692   506A      3.571371   507A      3.584484  
     508A      3.587777   509A      3.595600   510A      3.612384  
     511A      3.623589   512A      3.632656   513A      3.643013  
     514A      3.658138   515A      3.666122   516A      3.684212  
     517A      3.690261   518A      3.699134   519A      3.704570  
     520A      3.724271   521A      3.727411   522A      3.739917  
     523A      3.743044   524A      3.755807   525A      3.760452  
     526A      3.767855   527A      3.782196   528A      3.787427  
     529A      3.789273   530A      3.799997   531A      3.812043  
     532A      3.823749   533A      3.837594   534A      3.842715  
     535A      3.851183   536A      3.858173   537A      3.865614  
     538A      3.876644   539A      3.878220   540A      3.895071  
     541A      3.898890   542A      3.909101   543A      3.914424  
     544A      3.924128   545A      3.933638   546A      3.939946  
     547A      3.950397   548A      3.952842   549A      3.960227  
     550A      3.965865   551A      3.974837   552A      3.981633  
     553A      3.999765   554A      4.008057   555A      4.008803  
     556A      4.015865   557A      4.025162   558A      4.036604  
     559A      4.040326   560A      4.042708   561A      4.052470  
     562A      4.054031   563A      4.068824   564A      4.073942  
     565A      4.076607   566A      4.083838   567A      4.091478  
     568A      4.094592   569A      4.114173   570A      4.119145  
     571A      4.124215   572A      4.130278   573A      4.136543  
     574A      4.143745   575A      4.157960   576A      4.166713  
     577A      4.177671   578A      4.181093   579A      4.189029  
     580A      4.197309   581A      4.207213   582A      4.217410  
     583A      4.229132   584A      4.237668   585A      4.243565  
     586A      4.252619   587A      4.260798   588A      4.264352  
     589A      4.283982   590A      4.289379   591A      4.293591  
     592A      4.303567   593A      4.318825   594A      4.323090  
     595A      4.344137   596A      4.356647   597A      4.359943  
     598A      4.363267   599A      4.375281   600A      4.379893  
     601A      4.387520   602A      4.413142   603A      4.421525  
     604A      4.434038   605A      4.446921   606A      4.462603  
     607A      4.467320   608A      4.471504   609A      4.482883  
     610A      4.485523   611A      4.496780   612A      4.511403  
     613A      4.548719   614A      4.558401   615A      4.568337  
     616A      4.580902   617A      4.594465   618A      4.618414  
     619A      4.619538   620A      4.641783   621A      4.649427  
     622A      4.656301   623A      4.664566   624A      4.685894  
     625A      4.692091   626A      4.700990   627A      4.725841  
     628A      4.733051   629A      4.742051   630A      4.745525  
     631A      4.749153   632A      4.760069   633A      4.767779  
     634A      4.802283   635A      4.807582   636A      4.814789  
     637A      4.822272   638A      4.829193   639A      4.840942  
     640A      4.854988   641A      4.861840   642A      4.865110  
     643A      4.868426   644A      4.879722   645A      4.891079  
     646A      4.913455   647A      4.920804   648A      4.926856  
     649A      4.956504   650A      4.957693   651A      4.963924  
     652A      4.980903   653A      4.983965   654A      4.995107  
     655A      5.006427   656A      5.022409   657A      5.033690  
     658A      5.062352   659A      5.079446   660A      5.092756  
     661A      5.105566   662A      5.116188   663A      5.126834  
     664A      5.128864   665A      5.156309   666A      5.168314  
     667A      5.180024   668A      5.182157   669A      5.192605  
     670A      5.198228   671A      5.213234   672A      5.229765  
     673A      5.235603   674A      5.240655   675A      5.251860  
     676A      5.266675   677A      5.276944   678A      5.285247  
     679A      5.295499   680A      5.311953   681A      5.317766  
     682A      5.330866   683A      5.343297   684A      5.358237  
     685A      5.367521   686A      5.377215   687A      5.382672  
     688A      5.391346   689A      5.403185   690A      5.416355  
     691A      5.420773   692A      5.434989   693A      5.446586  
     694A      5.454955   695A      5.462297   696A      5.469975  
     697A      5.479373   698A      5.493308   699A      5.516960  
     700A      5.525362   701A      5.537293   702A      5.554188  
     703A      5.571217   704A      5.582700   705A      5.592116  
     706A      5.606308   707A      5.629778   708A      5.641631  
     709A      5.650105   710A      5.664609   711A      5.666331  
     712A      5.667604   713A      5.681732   714A      5.684315  
     715A      5.707324   716A      5.717742   717A      5.726352  
     718A      5.739784   719A      5.752009   720A      5.760828  
     721A      5.765342   722A      5.781529   723A      5.794840  
     724A      5.810717   725A      5.825253   726A      5.841982  
     727A      5.860070   728A      5.877312   729A      5.884509  
     730A      5.905526   731A      5.919101   732A      5.952659  
     733A      5.978447   734A      6.005598   735A      6.012640  
     736A      6.038215   737A      6.063500   738A      6.071034  
     739A      6.123337   740A      6.133871   741A      6.142957  
     742A      6.145019   743A      6.178946   744A      6.224578  
     745A      6.238028   746A      6.248059   747A      6.273205  
     748A      6.277574   749A      6.310342   750A      6.311741  
     751A      6.341503   752A      6.355017   753A      6.368119  
     754A      6.404652   755A      6.420040   756A      6.438189  
     757A      6.463433   758A      6.483155   759A      6.586378  
     760A      6.609746   761A      6.681481   762A      6.705316  
     763A      6.730432   764A      6.798948   765A      6.830688  
     766A      6.894872   767A      6.903789   768A      6.950918  
     769A      7.005434   770A      7.021854   771A      7.039100  
     772A      7.096265   773A      7.137638   774A      7.177070  
     775A     18.032301   776A     18.217071   777A     18.322477  
     778A     18.522629   779A     18.675495   780A     19.167556  
     781A     19.735381   782A     19.852167  

    Final Occupation by Irrep:
              A 
    DOCC [    33 ]

  Energy converged.

  @DF-RHF Final Energy:  -313.53607232559125

   => Energetics <=

    Nuclear Repulsion Energy =            406.7981347216986023
    One-Electron Energy =               -1228.7213749100219502
    Two-Electron Energy =                 508.3871678627319852
    DFT Exchange-Correlation Energy =       0.0000000000000000
    Empirical Dispersion Energy =           0.0000000000000000
    PCM Polarization Energy =               0.0000000000000000
    EFP Energy =                            0.0000000000000000
    Total Energy =                       -313.5360723255913626


  Saving occupied orbitals to File 180.

*** tstop() called on wr34 at Wed Sep 21 04:59:10 2016
Module time:
	user time   =    1045.00 seconds =      17.42 minutes
	system time =      12.64 seconds =       0.21 minutes
	total time  =         96 seconds =       1.60 minutes
Total time:
	user time   =    1045.00 seconds =      17.42 minutes
	system time =      12.64 seconds =       0.21 minutes
	total time  =         96 seconds =       1.60 minutes


Properties will be evaluated at   0.000000,   0.000000,   0.000000 Bohr

Properties computed using the SCF density matrix

  Nuclear Dipole Moment: (a.u.)
     X:    -1.3218      Y:    -2.1522      Z:     0.2450

  Electronic Dipole Moment: (a.u.)
     X:     1.3472      Y:     2.1867      Z:    -0.2478

  Dipole Moment: (a.u.)
     X:     0.0254      Y:     0.0344      Z:    -0.0028     Total:     0.0429

  Dipole Moment: (Debye)
     X:     0.0645      Y:     0.0875      Z:    -0.0071     Total:     0.1090


  //>>>>>>>>>>>>>>>>>>>>>>>>>>>>>>>>>>>//
  //               DFMP2               //
  //<<<<<<<<<<<<<<<<<<<<<<<<<<<<<<<<<<<//


*** tstart() called on wr34
*** at Wed Sep 21 04:59:10 2016


*** tstop() called on wr34 at Wed Sep 21 04:59:11 2016
Module time:
	user time   =       3.53 seconds =       0.06 minutes
	system time =       0.16 seconds =       0.00 minutes
	total time  =          1 seconds =       0.02 minutes
Total time:
	user time   =    1049.50 seconds =      17.49 minutes
	system time =      12.84 seconds =       0.21 minutes
	total time  =         97 seconds =       1.62 minutes
	 --------------------------------------------------------
	                          DF-MP2                         
	      2nd-Order Density-Fitted Moller-Plesset Theory     
	              RMP2 Wavefunction,  12 Threads             
	                                                         
	        Rob Parrish, Justin Turney, Andy Simmonett,      
	           Ed Hohenstein, and C. David Sherrill          
	 --------------------------------------------------------

   => Auxiliary Basis Set <=

  Basis Set: 
    Number of shells: 476
    Number of basis function: 1676
    Number of Cartesian functions: 2078
    Spherical Harmonics?: true
    Max angular momentum: 4

	 --------------------------------------------------------
	                 NBF =   782, NAUX =  1676
	 --------------------------------------------------------
	   CLASS    FOCC     OCC    AOCC    AVIR     VIR    FVIR
	   PAIRS       8      33      25     749     749       0
	 --------------------------------------------------------

DGAS Warning! /src/lib/libfock/apps.cc:80 is not currently checking restricted

         ------------------------------------------------------------
                                     CPHF                           
                                  Rob Parrish                       
         ------------------------------------------------------------

  ==> Geometry <==

    Molecular point group: c1
    Full point group: C1

    Geometry (in Angstrom), charge = 0, multiplicity = 1:

       Center              X                  Y                   Z               Mass       
    ------------   -----------------  -----------------  -----------------  -----------------
           C          1.375540930148    -1.914064104250     0.275208962498    12.000000000000
           H          0.371572590874    -1.642945447947     0.602030131483     1.007825032070
           H          1.979230443915    -2.083501847707     1.168627596959     1.007825032070
           H          1.303641972213    -2.858577267906    -0.264093728264     1.007825032070
           C         -3.102965001617    -0.904741761023     0.037930050925    12.000000000000
           H         -3.787334293553    -1.135956365492     0.853821215500     1.007825032070
           H         -2.602216064215    -1.829565529546    -0.252439765030     1.007825032070
           H         -3.695836902458    -0.567732993063    -0.813368916785     1.007825032070
           C          1.998876978790    -0.827585277765    -0.593849016849    12.000000000000
           H          1.387643163543    -0.661875235553    -1.483400602974     1.007825032070
           H          2.969398852209    -1.174623145112    -0.956512566389     1.007825032070
           C         -2.083527790894     0.154174712054     0.440199255238    12.000000000000
           H         -2.598236991824     1.066300497546     0.755212616680     1.007825032070
           H         -1.521494155167    -0.197489236109     1.308352226623     1.007825032070
           C          2.206805232442     0.491551867916     0.148081325234    12.000000000000
           H          2.693089995373     1.203978320874    -0.524864039001     1.007825032070
           H          2.906633000107     0.317363761316     0.971408689260     1.007825032070
           C          0.945736328858     1.148569246991     0.713267604270    12.000000000000
           H          1.261495570931     2.042886743663     1.255498574936     1.007825032070
           H          0.487945118000     0.497777529311     1.461321951272     1.007825032070
           C         -0.091819371424     1.555123475794    -0.341603812689    12.000000000000
           H         -0.635523724662     2.435213473098     0.013952541208     1.007825032070
           H          0.435941525734     1.870344957358    -1.247233240302     1.007825032070
           C         -1.130230935169     0.489784019545    -0.701185827017    12.000000000000
           H         -1.722669824795     0.849643036483    -1.548017221849     1.007825032070
           H         -0.643243720651    -0.427022837804    -1.038923208907     1.007825032070

  Nuclear repulsion =  406.798134721698602
  Reference energy  = -313.536072325591249

  ==> Basis Set <==

  Basis Set: AUG-CC-PVTZ
    Number of shells: 274
    Number of basis function: 782
    Number of Cartesian functions: 890
    Spherical Harmonics?: true
    Max angular momentum: 3

  ==> CGRSolver (by Rob Parrish) <==

   Number of roots    =         1
   Preconditioning    =    JACOBI
   Convergence cutoff =     1E-06
   Maximum iterations =       100

  ==> CPHFRHamiltonian (by Rob Parrish) <== 

  ==> DFJK: Density-Fitted J/K Matrices <==

    J tasked:                  Yes
    K tasked:                  Yes
    wK tasked:                  No
    OpenMP threads:             12
    Integrals threads:          12
    Memory (MB):             42915
    Algorithm:                Core
    Integral Cache:           NONE
    Schwarz Cutoff:          1E-12
    Fitting Condition:       1E-12

   => Auxiliary Basis Set <=

  Basis Set: 
    Number of shells: 492
    Number of basis function: 1660
    Number of Cartesian functions: 2038
    Spherical Harmonics?: true
    Max angular momentum: 4

  ==> CPHF Iterations <==

  => Iterations <=

             Iter  Converged  Remaining    Residual
  CGR           1          0          1   9.380E-02
  CGR           2          0          1   1.383E-02
  CGR           3          0          1   4.237E-03
  CGR           4          0          1   8.919E-04
  CGR           5          0          1   2.254E-04
  CGR           6          0          1   4.962E-05
  CGR           7          0          1   1.383E-05
  CGR           8          0          1   3.448E-06
  CGR           9          1          0   8.785E-07

    CGRSolver converged.

  ==> DFCorrGrad: Density-Fitted Correlated Gradients <==

    OpenMP threads:             12
    Integrals threads:          12
    Memory (MB):             42915
    Schwarz Cutoff:          0E+00
    Fitting Condition:       1E-12

   => Auxiliary Basis Set <=

  Basis Set: 
    Number of shells: 492
    Number of basis function: 1660
    Number of Cartesian functions: 2038
    Spherical Harmonics?: true
    Max angular momentum: 4

	-----------------------------------------------------------
	 ==================> DF-MP2 Energies <==================== 
	-----------------------------------------------------------
	 Reference Energy          =    -313.5360723255912490 [Eh]
	 Singles Energy            =      -0.0000000000000001 [Eh]
	 Same-Spin Energy          =      -0.3177030067730595 [Eh]
	 Opposite-Spin Energy      =      -1.1272837385349423 [Eh]
	 Correlation Energy        =      -1.4449867453080019 [Eh]
	 Total Energy              =    -314.9810590708992777 [Eh]
	-----------------------------------------------------------
	 ================> DF-SCS-MP2 Energies <================== 
	-----------------------------------------------------------
	 SCS Same-Spin Scale       =       0.3333333333333333 [-]
	 SCS Opposite-Spin Scale   =       1.2000000000000000 [-]
	 SCS Same-Spin Energy      =      -0.1059010022576865 [Eh]
	 SCS Opposite-Spin Energy  =      -1.3527404862419308 [Eh]
	 SCS Correlation Energy    =      -1.4586414884996173 [Eh]
	 SCS Total Energy          =    -314.9947138140908578 [Eh]
	-----------------------------------------------------------


  -Total Gradient:
     Atom            X                  Y                   Z
    ------   -----------------  -----------------  -----------------
       1       -0.000000296233    -0.000000359493     0.000000216632
       2        0.000000371851    -0.000000050430    -0.000000144013
       3       -0.000000154690     0.000000085595    -0.000000304041
       4       -0.000000011794     0.000000243739     0.000000138913
       5        0.000000085165     0.000000081884     0.000000086584
       6       -0.000000160233    -0.000000088823     0.000000164915
       7        0.000000142593    -0.000000274890    -0.000000104384
       8       -0.000000240063     0.000000089932    -0.000000344248
       9        0.000000160868     0.000000215596    -0.000000477362
      10        0.000000414278     0.000000024487     0.000000498792
      11       -0.000000333400     0.000000062279     0.000000003533
      12       -0.000000597594    -0.000000296375    -0.000000237509
      13       -0.000000224383     0.000000192529     0.000000113192
      14        0.000000214876    -0.000000099937     0.000000200398
      15        0.000000315113     0.000000287469     0.000000260553
      16       -0.000000423125    -0.000000481614     0.000000534354
      17       -0.000000423915     0.000000116976    -0.000000548451
      18       -0.000000615149    -0.000000110392     0.000000573759
      19       -0.000000303771    -0.000000347355    -0.000000049747
      20        0.000000505219     0.000000349900    -0.000000496989
      21        0.000001194504     0.000000531149    -0.000000531931
      22        0.000000053828    -0.000000208315    -0.000000162544
      23       -0.000000373516    -0.000000135095     0.000000389040
      24        0.000000318802     0.000000223593     0.000000435702
      25       -0.000000070583     0.000000157557    -0.000000092550
      26        0.000000451356    -0.000000209969    -0.000000122600


			-----------------------------------------
			 OPTKING 2.0: for geometry optimizations 
			  - R.A. King,  Bethel University        
			-----------------------------------------

	Internal coordinates to be generated automatically.
	Detected frag 1 with atoms:  1 2 3 4 5 6 7 8 9 10 11 12 13 14 15 16 17 18 19 20
	 21 22 23 24 25 26
	---Fragment 1 Bond Connectivity---
	 1 : 2 3 4 9
	 2 : 1
	 3 : 1
	 4 : 1
	 5 : 6 7 8 12
	 6 : 5
	 7 : 5
	 8 : 5
	 9 : 1 10 11 15
	 10 : 9
	 11 : 9
	 12 : 5 13 14 24
	 13 : 12
	 14 : 12
	 15 : 9 16 17 18
	 16 : 15
	 17 : 15
	 18 : 15 19 20 21
	 19 : 18
	 20 : 18
	 21 : 18 22 23 24
	 22 : 21
	 23 : 21
	 24 : 12 21 25 26
	 25 : 24
	 26 : 24

	---Fragment 1 Geometry and Gradient---
	 C           2.5993956426       -3.6170569578        0.5200695684
	 H           0.7021704352       -3.1047169479        1.1376720722
	 H           3.7402034929       -3.9372478895        2.2083861096
	 H           2.4635263028       -5.4019281660       -0.4990648198
	 C          -5.8637540530       -1.7097141493        0.0716774085
	 H          -7.1570245885       -2.1466464297        1.6134882637
	 H          -4.9174757000       -3.4573777930       -0.4770420210
	 H          -6.9841195775       -1.0728598735       -1.5370444977
	 C           3.7773300632       -1.5639095266       -1.1222120061
	 H           2.6222655493       -1.2507629293       -2.8032208850
	 H           5.6113506100       -2.2197160536       -1.8075467931
	 C          -3.9372969150        0.2913479824        0.8318560363
	 H          -4.9099563429        2.0150159157        1.4271450176
	 H          -2.8752072661       -0.3732005704        2.4724273937
	 C           4.1702575179        0.9288984105        0.2798331501
	 H           5.0892025425        2.2751892964       -0.9918492907
	 H           5.4927403390        0.5997305934        1.8356963858
	 C           1.7871826555        2.1704813215        1.3478804315
	 H           2.3838811469        3.8604964660        2.3725484669
	 H           0.9220826409        0.9406632055        2.7614982799
	 C          -0.1735134657        2.9387574721       -0.6455376519
	 H          -1.2009657906        4.6018865393        0.0263664817
	 H           0.8238100936        3.5344397434       -2.3569292480
	 C          -2.1358269344        0.9255576612       -1.3250491813
	 H          -3.2553741862        1.6055926497       -2.9253285983
	 H          -1.2155544687       -0.8069562159       -1.9632803379
	            -0.0000002962       -0.0000003595        0.0000002166
	             0.0000003719       -0.0000000504       -0.0000001440
	            -0.0000001547        0.0000000856       -0.0000003040
	            -0.0000000118        0.0000002437        0.0000001389
	             0.0000000852        0.0000000819        0.0000000866
	            -0.0000001602       -0.0000000888        0.0000001649
	             0.0000001426       -0.0000002749       -0.0000001044
	            -0.0000002401        0.0000000899       -0.0000003442
	             0.0000001609        0.0000002156       -0.0000004774
	             0.0000004143        0.0000000245        0.0000004988
	            -0.0000003334        0.0000000623        0.0000000035
	            -0.0000005976       -0.0000002964       -0.0000002375
	            -0.0000002244        0.0000001925        0.0000001132
	             0.0000002149       -0.0000000999        0.0000002004
	             0.0000003151        0.0000002875        0.0000002606
	            -0.0000004231       -0.0000004816        0.0000005344
	            -0.0000004239        0.0000001170       -0.0000005485
	            -0.0000006151       -0.0000001104        0.0000005738
	            -0.0000003038       -0.0000003474       -0.0000000497
	             0.0000005052        0.0000003499       -0.0000004970
	             0.0000011945        0.0000005311       -0.0000005319
	             0.0000000538       -0.0000002083       -0.0000001625
	            -0.0000003735       -0.0000001351        0.0000003890
	             0.0000003188        0.0000002236        0.0000004357
	            -0.0000000706        0.0000001576       -0.0000000925
	             0.0000004514       -0.0000002100       -0.0000001226

	Previous optimization step data not found.  Starting new optimization.

	---Fragment 1 Intrafragment Coordinates---
	 - Coordinate -           - BOHR/RAD -       - ANG/DEG -
	 R(1,2)           =         2.059949	       1.090078
	 R(1,3)           =         2.062614	       1.091488
	 R(1,4)           =         2.059821	       1.090010
	 R(1,9)           =         2.880978	       1.524548
	 R(5,6)           =         2.059281	       1.089725
	 R(5,7)           =         2.061762	       1.091038
	 R(5,8)           =         2.061259	       1.090771
	 R(5,12)          =         2.879819	       1.523935
	 R(9,10)          =         2.063498	       1.091956
	 R(9,11)          =         2.064800	       1.092645
	 R(9,15)          =         2.886904	       1.527684
	 R(12,13)         =         2.066753	       1.093678
	 R(12,14)         =         2.064251	       1.092355
	 R(12,24)         =         2.880930	       1.524522
	 R(15,16)         =         2.067398	       1.094020
	 R(15,17)         =         2.068338	       1.094517
	 R(15,18)         =         2.891591	       1.530164
	 R(18,19)         =         2.064496	       1.092484
	 R(18,20)         =         2.063775	       1.092103
	 R(18,21)         =         2.899706	       1.534458
	 R(21,22)         =         2.067151	       1.093889
	 R(21,23)         =         2.068418	       1.094560
	 R(21,24)         =         2.892297	       1.530538
	 R(24,25)         =         2.068025	       1.094352
	 R(24,26)         =         2.062970	       1.091677
	 B(1,9,10)        =         1.921610	     110.100161
	 B(1,9,11)        =         1.902891	     109.027638
	 B(1,9,15)        =         1.975966	     113.214508
	 B(2,1,3)         =         1.878215	     107.613784
	 B(2,1,4)         =         1.878744	     107.644105
	 B(2,1,9)         =         1.950050	     111.729626
	 B(3,1,4)         =         1.882786	     107.875664
	 B(3,1,9)         =         1.929530	     110.553951
	 B(4,1,9)         =         1.941702	     111.251329
	 B(5,12,13)       =         1.918476	     109.920577
	 B(5,12,14)       =         1.907395	     109.285656
	 B(5,12,24)       =         1.953725	     111.940200
	 B(6,5,7)         =         1.883519	     107.917670
	 B(6,5,8)         =         1.884456	     107.971379
	 B(6,5,12)        =         1.949710	     111.710157
	 B(7,5,8)         =         1.879315	     107.676794
	 B(7,5,12)        =         1.930745	     110.623536
	 B(8,5,12)        =         1.933633	     110.788988
	 B(9,15,16)       =         1.900824	     108.909182
	 B(9,15,17)       =         1.891180	     108.356605
	 B(9,15,18)       =         2.024141	     115.974741
	 B(10,9,11)       =         1.849392	     105.962383
	 B(10,9,15)       =         1.918547	     109.924656
	 B(11,9,15)       =         1.890786	     108.334043
	 B(12,24,21)      =         1.984042	     113.677216
	 B(12,24,25)      =         1.889377	     108.253309
	 B(12,24,26)      =         1.902539	     109.007447
	 B(13,12,14)      =         1.856382	     106.362849
	 B(13,12,24)      =         1.903216	     109.046251
	 B(14,12,24)      =         1.922139	     110.130431
	 B(15,18,19)      =         1.871945	     107.254549
	 B(15,18,20)      =         1.920478	     110.035262
	 B(15,18,21)      =         2.001050	     114.651744
	 B(16,15,17)      =         1.856815	     106.387658
	 B(16,15,18)      =         1.890109	     108.295266
	 B(17,15,18)      =         1.893823	     108.508054
	 B(18,21,22)      =         1.902653	     109.013962
	 B(18,21,23)      =         1.895544	     108.606691
	 B(18,21,24)      =         2.021774	     115.839135
	 B(19,18,20)      =         1.843153	     105.604907
	 B(19,18,21)      =         1.896258	     108.647568
	 B(20,18,21)      =         1.923387	     110.201953
	 B(21,24,25)      =         1.896744	     108.675410
	 B(21,24,26)      =         1.933268	     110.768102
	 B(22,21,23)      =         1.851350	     106.074534
	 B(22,21,24)      =         1.874604	     107.406878
	 B(23,21,24)      =         1.910495	     109.463284
	 B(25,24,26)      =         1.852773	     106.156063
	 D(1,9,15,16)     =         3.100982	     177.673184
	 D(1,9,15,17)     =         1.088036	      62.339883
	 D(1,9,15,18)     =        -1.045722	     -59.915450
	 D(2,1,9,10)      =        -1.047069	     -59.992619
	 D(2,1,9,11)      =        -3.068983	    -175.839785
	 D(2,1,9,15)      =         1.108263	      63.498809
	 D(3,1,9,10)      =        -3.138385	    -179.816203
	 D(3,1,9,11)      =         1.122886	      64.336631
	 D(3,1,9,15)      =        -0.983053	     -56.324776
	 D(4,1,9,10)      =         1.053218	      60.344922
	 D(4,1,9,11)      =        -0.968697	     -55.502244
	 D(4,1,9,15)      =        -3.074636	    -176.163650
	 D(5,12,24,21)    =         3.137313	     179.754774
	 D(5,12,24,25)    =         1.028090	      58.905202
	 D(5,12,24,26)    =        -0.980020	     -56.150985
	 D(6,5,12,13)     =        -1.015770	     -58.199305
	 D(6,5,12,14)     =         1.015389	      58.177513
	 D(6,5,12,24)     =        -3.133629	    -179.543720
	 D(7,5,12,13)     =        -3.114391	    -178.441460
	 D(7,5,12,14)     =        -1.083232	     -62.064641
	 D(7,5,12,24)     =         1.050935	      60.214126
	 D(8,5,12,13)     =         1.086012	      62.223886
	 D(8,5,12,14)     =         3.117170	     178.600705
	 D(8,5,12,24)     =        -1.031848	     -59.120528
	 D(9,15,18,19)    =         3.088779	     176.973993
	 D(9,15,18,20)    =         1.092141	      62.575053
	 D(9,15,18,21)    =        -1.087344	     -62.300211
	 D(10,9,15,16)    =        -1.025188	     -58.738958
	 D(10,9,15,17)    =        -3.038134	    -174.072260
	 D(10,9,15,18)    =         1.111293	      63.672408
	 D(11,9,15,16)    =         0.988193	      56.619278
	 D(11,9,15,17)    =        -1.024753	     -58.714023
	 D(11,9,15,18)    =         3.124674	     179.030644
	 D(12,24,21,18)   =         1.165199	      66.760997
	 D(12,24,21,22)   =        -0.965596	     -55.324577
	 D(12,24,21,23)   =        -2.968249	    -170.068168
	 D(13,12,24,21)   =         1.010676	      57.907463
	 D(13,12,24,25)   =        -1.098547	     -62.942110
	 D(13,12,24,26)   =        -3.106656	    -177.998297
	 D(14,12,24,21)   =        -1.020146	     -58.450042
	 D(14,12,24,25)   =        -3.129369	    -179.299615
	 D(14,12,24,26)   =         1.145707	      65.644198
	 D(15,18,21,22)   =        -2.606699	    -149.352824
	 D(15,18,21,23)   =        -0.596902	     -34.199992
	 D(15,18,21,24)   =         1.560658	      89.419136
	 D(16,15,18,19)   =        -1.052280	     -60.291202
	 D(16,15,18,20)   =        -3.048918	    -174.690142
	 D(16,15,18,21)   =         1.054783	      60.434594
	 D(17,15,18,19)   =         0.956419	      54.798767
	 D(17,15,18,20)   =        -1.040219	     -59.600173
	 D(17,15,18,21)   =         3.063482	     175.524563
	 D(18,21,24,25)   =        -3.012901	    -172.626511
	 D(18,21,24,26)   =        -0.983931	     -56.375094
	 D(19,18,21,22)   =        -0.513094	     -29.398125
	 D(19,18,21,23)   =         1.496702	      85.754707
	 D(19,18,21,24)   =        -2.628923	    -150.626165
	 D(20,18,21,22)   =         1.498534	      85.859666
	 D(20,18,21,23)   =        -2.774855	    -158.987502
	 D(20,18,21,24)   =        -0.617295	     -35.368374
	 D(22,21,24,25)   =         1.139489	      65.287915
	 D(22,21,24,26)   =        -3.114726	    -178.460668
	 D(23,21,24,25)   =        -0.863164	     -49.455675
	 D(23,21,24,26)   =         1.165806	      66.795741
	 R(1,24)          =         6.816315	       3.607038
	 R(9,24)          =         6.419035	       3.396807

	Current energy   :      -314.9810590709

	Generating empirical Hessian (Schlegel '84) for each fragment.
	Taking RFO optimization step.
	Going to follow RFO solution 1.
	Using RFO vector 1.
	Norm of target step-size    0.00019
	Projected energy change by RFO approximation:        -0.0000000002

	Back-transformation to cartesian coordinates...
	Successfully converged to displaced geometry.

	--- Internal Coordinate Step in ANG or DEG, aJ/ANG or AJ/DEG ---
	 ---------------------------------------------------------------------------
	   Coordinate                Previous        Force       Change         New 
	   ----------                --------       ------       ------       ------
	    1 R(1,2)          =      1.090078     0.000003     0.000001     1.090078
	    2 R(1,3)          =      1.091488     0.000003     0.000001     1.091489
	    3 R(1,4)          =      1.090010     0.000002     0.000000     1.090011
	    4 R(1,9)          =      1.524548    -0.000001    -0.000000     1.524548
	    5 R(5,6)          =      1.089725    -0.000002    -0.000000     1.089724
	    6 R(5,7)          =      1.091038    -0.000002    -0.000000     1.091037
	    7 R(5,8)          =      1.090771    -0.000003    -0.000001     1.090771
	    8 R(5,12)         =      1.523935    -0.000002    -0.000000     1.523934
	    9 R(9,10)         =      1.091956     0.000005     0.000001     1.091957
	   10 R(9,11)         =      1.092645     0.000003     0.000000     1.092645
	   11 R(9,15)         =      1.527684     0.000000     0.000000     1.527684
	   12 R(12,13)        =      1.093678    -0.000003    -0.000000     1.093678
	   13 R(12,14)        =      1.092355    -0.000003    -0.000000     1.092354
	   14 R(12,24)        =      1.524522    -0.000006    -0.000001     1.524521
	   15 R(15,16)        =      1.094020     0.000007     0.000001     1.094021
	   16 R(15,17)        =      1.094517     0.000006     0.000001     1.094519
	   17 R(15,18)        =      1.530164     0.000001     0.000001     1.530165
	   18 R(18,19)        =      1.092484     0.000003     0.000001     1.092485
	   19 R(18,20)        =      1.092103     0.000007     0.000001     1.092104
	   20 R(18,21)        =      1.534458     0.000003     0.000001     1.534459
	   21 R(21,22)        =      1.093889     0.000002     0.000000     1.093889
	   22 R(21,23)        =      1.094560     0.000004     0.000001     1.094560
	   23 R(21,24)        =      1.530538    -0.000001     0.000000     1.530538
	   24 R(24,25)        =      1.094352    -0.000001    -0.000000     1.094352
	   25 R(24,26)        =      1.091677    -0.000003    -0.000001     1.091676
	   26 B(1,9,10)       =    110.100161    -0.000000    -0.000022   110.100140
	   27 B(1,9,11)       =    109.027638     0.000000     0.000006   109.027643
	   28 B(1,9,15)       =    113.214508    -0.000000    -0.000026   113.214481
	   29 B(2,1,3)        =    107.613784    -0.000000    -0.000004   107.613779
	   30 B(2,1,4)        =    107.644105     0.000000    -0.000006   107.644100
	   31 B(2,1,9)        =    111.729626     0.000000     0.000033   111.729659
	   32 B(3,1,4)        =    107.875664    -0.000000    -0.000017   107.875648
	   33 B(3,1,9)        =    110.553951     0.000000     0.000037   110.553988
	   34 B(4,1,9)        =    111.251329    -0.000000    -0.000045   111.251284
	   35 B(5,12,13)      =    109.920577     0.000000     0.000021   109.920598
	   36 B(5,12,14)      =    109.285656     0.000000     0.000033   109.285689
	   37 B(5,12,24)      =    111.940200    -0.000000    -0.000124   111.940076
	   38 B(6,5,7)        =    107.917670     0.000000     0.000022   107.917692
	   39 B(6,5,8)        =    107.971379     0.000000     0.000005   107.971384
	   40 B(6,5,12)       =    111.710157     0.000000     0.000040   111.710197
	   41 B(7,5,8)        =    107.676794     0.000000    -0.000022   107.676772
	   42 B(7,5,12)       =    110.623536    -0.000000    -0.000003   110.623534
	   43 B(8,5,12)       =    110.788988    -0.000000    -0.000043   110.788946
	   44 B(9,15,16)      =    108.909182     0.000000     0.000092   108.909274
	   45 B(9,15,17)      =    108.356605     0.000000    -0.000111   108.356494
	   46 B(9,15,18)      =    115.974741    -0.000000     0.000066   115.974806
	   47 B(10,9,11)      =    105.962383     0.000000     0.000053   105.962435
	   48 B(10,9,15)      =    109.924656     0.000000     0.000080   109.924736
	   49 B(11,9,15)      =    108.334043    -0.000000    -0.000088   108.333956
	   50 B(12,24,21)     =    113.677216    -0.000000    -0.000126   113.677090
	   51 B(12,24,25)     =    108.253309     0.000000     0.000031   108.253340
	   52 B(12,24,26)     =    109.007447    -0.000000    -0.000065   109.007383
	   53 B(13,12,14)     =    106.362849    -0.000000     0.000026   106.362875
	   54 B(13,12,24)     =    109.046251     0.000000    -0.000038   109.046213
	   55 B(14,12,24)     =    110.130431     0.000000     0.000091   110.130522
	   56 B(15,18,19)     =    107.254549    -0.000000    -0.000177   107.254372
	   57 B(15,18,20)     =    110.035262     0.000000     0.000083   110.035345
	   58 B(15,18,21)     =    114.651744     0.000000     0.000266   114.652010
	   59 B(16,15,17)     =    106.387658    -0.000000    -0.000015   106.387643
	   60 B(16,15,18)     =    108.295266     0.000000     0.000113   108.295379
	   61 B(17,15,18)     =    108.508054     0.000000    -0.000151   108.507904
	   62 B(18,21,22)     =    109.013962    -0.000000    -0.000128   109.013834
	   63 B(18,21,23)     =    108.606691    -0.000000    -0.000101   108.606590
	   64 B(18,21,24)     =    115.839135     0.000000     0.000236   115.839371
	   65 B(19,18,20)     =    105.604907     0.000000    -0.000019   105.604888
	   66 B(19,18,21)     =    108.647568     0.000000    -0.000105   108.647462
	   67 B(20,18,21)     =    110.201953    -0.000000    -0.000076   110.201878
	   68 B(21,24,25)     =    108.675410     0.000000     0.000033   108.675443
	   69 B(21,24,26)     =    110.768102     0.000000     0.000166   110.768268
	   70 B(22,21,23)     =    106.074534     0.000000    -0.000017   106.074517
	   71 B(22,21,24)     =    107.406878     0.000000    -0.000017   107.406862
	   72 B(23,21,24)     =    109.463284    -0.000000     0.000007   109.463291
	   73 B(25,24,26)     =    106.156063    -0.000000    -0.000037   106.156027
	   74 D(1,9,15,16)    =    177.673184    -0.000000     0.001060   177.674244
	   75 D(1,9,15,17)    =     62.339883    -0.000000     0.001089    62.340971
	   76 D(1,9,15,18)    =    -59.915450     0.000000     0.001329   -59.914121
	   77 D(2,1,9,10)     =    -59.992619     0.000000     0.000457   -59.992162
	   78 D(2,1,9,11)     =   -175.839785    -0.000000     0.000402  -175.839382
	   79 D(2,1,9,15)     =     63.498809     0.000000     0.000527    63.499335
	   80 D(3,1,9,10)     =   -179.816203    -0.000000     0.000416  -179.815788
	   81 D(3,1,9,11)     =     64.336631    -0.000000     0.000361    64.336992
	   82 D(3,1,9,15)     =    -56.324776     0.000000     0.000485   -56.324291
	   83 D(4,1,9,10)     =     60.344922    -0.000000     0.000441    60.345363
	   84 D(4,1,9,11)     =    -55.502244    -0.000000     0.000387   -55.501857
	   85 D(4,1,9,15)     =   -176.163650     0.000000     0.000511  -176.163139
	   86 D(5,12,24,21)   =    179.754774    -0.000000    -0.000704   179.754070
	   87 D(5,12,24,25)   =     58.905202    -0.000000    -0.000687    58.904515
	   88 D(5,12,24,26)   =    -56.150985     0.000000    -0.000627   -56.151612
	   89 D(6,5,12,13)    =    -58.199305    -0.000000     0.000031   -58.199274
	   90 D(6,5,12,14)    =     58.177513     0.000000     0.000094    58.177607
	   91 D(6,5,12,24)    =   -179.543720     0.000000     0.000148  -179.543572
	   92 D(7,5,12,13)    =   -178.441460    -0.000000    -0.000021  -178.441481
	   93 D(7,5,12,14)    =    -62.064641    -0.000000     0.000041   -62.064600
	   94 D(7,5,12,24)    =     60.214126     0.000000     0.000096    60.214222
	   95 D(8,5,12,13)    =     62.223886    -0.000000     0.000036    62.223922
	   96 D(8,5,12,14)    =    178.600705     0.000000     0.000098   178.600803
	   97 D(8,5,12,24)    =    -59.120528     0.000000     0.000153   -59.120375
	   98 D(9,15,18,19)   =    176.973993    -0.000000    -0.001968   176.972025
	   99 D(9,15,18,20)   =     62.575053    -0.000000    -0.001891    62.573162
	  100 D(9,15,18,21)   =    -62.300211     0.000000    -0.002061   -62.302271
	  101 D(10,9,15,16)   =    -58.738958    -0.000000     0.001074   -58.737884
	  102 D(10,9,15,17)   =   -174.072260    -0.000000     0.001102  -174.071157
	  103 D(10,9,15,18)   =     63.672408     0.000000     0.001342    63.673750
	  104 D(11,9,15,16)   =     56.619278     0.000000     0.001131    56.620409
	  105 D(11,9,15,17)   =    -58.714023    -0.000000     0.001160   -58.712864
	  106 D(11,9,15,18)   =    179.030644     0.000000     0.001399   179.032043
	  107 D(12,24,21,18)  =     66.760997    -0.000000    -0.001151    66.759846
	  108 D(12,24,21,22)  =    -55.324577    -0.000000    -0.001131   -55.325708
	  109 D(12,24,21,23)  =   -170.068168    -0.000000    -0.001106  -170.069273
	  110 D(13,12,24,21)  =     57.907463    -0.000000    -0.000623    57.906840
	  111 D(13,12,24,25)  =    -62.942110     0.000000    -0.000606   -62.942716
	  112 D(13,12,24,26)  =   -177.998297     0.000000    -0.000546  -177.998842
	  113 D(14,12,24,21)  =    -58.450042    -0.000000    -0.000683   -58.450726
	  114 D(14,12,24,25)  =   -179.299615    -0.000000    -0.000667  -179.300281
	  115 D(14,12,24,26)  =     65.644198     0.000000    -0.000606    65.643592
	  116 D(15,18,21,22)  =   -149.352824     0.000000    -0.002434  -149.355258
	  117 D(15,18,21,23)  =    -34.199992    -0.000000    -0.002577   -34.202569
	  118 D(15,18,21,24)  =     89.419136    -0.000000    -0.002478    89.416658
	  119 D(16,15,18,19)  =    -60.291202    -0.000000    -0.001712   -60.292914
	  120 D(16,15,18,20)  =   -174.690142    -0.000000    -0.001635  -174.691778
	  121 D(16,15,18,21)  =     60.434594     0.000000    -0.001805    60.432789
	  122 D(17,15,18,19)  =     54.798767     0.000000    -0.001749    54.797018
	  123 D(17,15,18,20)  =    -59.600173    -0.000000    -0.001672   -59.601846
	  124 D(17,15,18,21)  =    175.524563     0.000000    -0.001842   175.522721
	  125 D(18,21,24,25)  =   -172.626511    -0.000000    -0.001170  -172.627681
	  126 D(18,21,24,26)  =    -56.375094     0.000000    -0.001101   -56.376195
	  127 D(19,18,21,22)  =    -29.398125     0.000000    -0.002564   -29.400689
	  128 D(19,18,21,23)  =     85.754707    -0.000000    -0.002706    85.752000
	  129 D(19,18,21,24)  =   -150.626165    -0.000000    -0.002607  -150.628772
	  130 D(20,18,21,22)  =     85.859666    -0.000000    -0.002688    85.856978
	  131 D(20,18,21,23)  =   -158.987502    -0.000000    -0.002831  -158.990333
	  132 D(20,18,21,24)  =    -35.368374    -0.000000    -0.002731   -35.371105
	  133 D(22,21,24,25)  =     65.287915    -0.000000    -0.001149    65.286766
	  134 D(22,21,24,26)  =   -178.460668     0.000000    -0.001081  -178.461749
	  135 D(23,21,24,25)  =    -49.455675    -0.000000    -0.001124   -49.456799
	  136 D(23,21,24,26)  =     66.795741     0.000000    -0.001055    66.794686
	  137 R(1,24)         =      3.607038     0.000001     0.000008     3.607047
	  138 R(9,24)         =      3.396807     0.000002    -0.000009     3.396798
	 ---------------------------------------------------------------------------

  ==> Convergence Check <==

  Measures of convergence in internal coordinates in au.
  Criteria marked as inactive (o), active & met (*), and active & unmet ( ).
  --------------------------------------------------------------------------------------------- ~
   Step     Total Energy     Delta E     MAX Force     RMS Force      MAX Disp      RMS Disp    ~
  --------------------------------------------------------------------------------------------- ~
    Convergence Criteria             o    2.00e-06 *    1.00e-06 *    6.00e-06 *    4.00e-06 *  ~
  --------------------------------------------------------------------------------------------- ~
      1    -314.98105907   -3.15e+02 o    8.05e-07 *    2.15e-07 *    4.94e-05      1.65e-05    ~
  ---------------------------------------------------------------------------------------------

	Writing optimization data to binary file.
	Structure for next step:
	Cartesian Geometry (in Angstrom)
	    C     1.3755063675  -1.9140546254   0.2752653043
	    H     0.3715414569  -1.6429178555   0.6020839683
	    H     1.9792011504  -2.0834647621   1.1686862547
	    H     1.3035975867  -2.8585869568  -0.2640033676
	    C    -3.1029311561  -0.9047620239   0.0378945843
	    H    -3.7872788909  -1.1360252316   0.8537894668
	    H    -2.6021834416  -1.8295662507  -0.2525378874
	    H    -3.6958254759  -0.5677110500  -0.8133713115
	    C     1.9988434486  -0.8276117893  -0.5938365417
	    H     1.3875995007  -0.6619247178  -1.4833865949
	    H     2.9693577942  -1.1746721570  -0.9565001633
	    C    -2.0834912018   0.1541393352   0.4401952871
	    H    -2.5981980364   1.0662444478   0.7552706686
	    H    -1.5214326418  -0.1975674599   1.3083141395
	    C     2.2067969600   0.4915470653   0.1480484132
	    H     2.6930644605   1.2039541492  -0.5249319446
	    H     2.9066496336   0.3173795472   0.9713604659
	    C     0.9457474694   1.1485830958   0.7132584442
	    H     1.2615330668   2.0428965633   1.2554819610
	    H     0.4879605249   0.4977995281   1.4613242757
	    C    -0.0918267206   1.5551556304  -0.3415893207
	    H    -0.6355383878   2.4352271997   0.0140027008
	    H     0.4359215463   1.8704150065  -1.2472138857
	    C    -1.1302293123   0.4898162101  -0.7011974464
	    H    -1.7226946486   0.8497053520  -1.5479972214
	    H    -0.6432381263  -0.4269676580  -1.0389894528
			--------------------------
			 OPTKING Finished Execution 
			--------------------------

    Structure for next step:
    Molecular point group: c1
    Full point group: C1

    Geometry (in Angstrom), charge = 0, multiplicity = 1:

    C            1.375506417196    -1.914054694590     0.275266249718
    H            0.371541506597    -1.642917924772     0.602084913701
    H            1.979201200169    -2.083464831332     1.168687200163
    H            1.303597636483    -2.858587026017    -0.264002422140
    C           -3.102931106325    -0.904762093180     0.037895529733
    H           -3.787278841126    -1.136025300797     0.853790412201
    H           -2.602183391844    -1.829566319895    -0.252536941972
    H           -3.695825426118    -0.567711119260    -0.813370366095
    C            1.998843498324    -0.827611858539    -0.593835596252
    H            1.387599550444    -0.661924787014    -1.483385649411
    H            2.969357843953    -1.174672226239    -0.956499217842
    C           -2.083491152060     0.154139265995     0.440196232514
    H           -2.598197986680     1.066244378537     0.755271614010
    H           -1.521432592018    -0.197567529139     1.308315084914
    C            2.206797009703     0.491546996064     0.148049358662
    H            2.693064510278     1.203954080005    -0.524930999177
    H            2.906649683314     0.317379477928     0.971361411312
    C            0.945747519112     1.148583026589     0.713259389611
    H            1.261533116585     2.042896494089     1.255482906439
    H            0.487960574673     0.497799458874     1.461325221157
    C           -0.091826670861     1.555155561147    -0.341588375206
    H           -0.635538338029     2.435227130466     0.014003646248
    H            0.435921596038     1.870414937241    -1.247212940249
    C           -1.130229262521     0.489816140821    -0.701196500960
    H           -1.722694598836     0.849705282809    -1.547996275968
    H           -0.643238076582    -0.426967727257    -1.038988507389

gradient() will perform analytic gradient computation.

*** tstart() called on wr34
*** at Wed Sep 21 05:05:31 2016


         ---------------------------------------------------------
                                   SCF
            by Justin Turney, Rob Parrish, and Andy Simmonett
                              RHF Reference
                       12 Threads,  60000 MiB Core
         ---------------------------------------------------------

  ==> Geometry <==

    Molecular point group: c1
    Full point group: C1

    Geometry (in Angstrom), charge = 0, multiplicity = 1:

       Center              X                  Y                   Z               Mass       
    ------------   -----------------  -----------------  -----------------  -----------------
           C          1.375506417196    -1.914054694590     0.275266249718    12.000000000000
           H          0.371541506597    -1.642917924772     0.602084913701     1.007825032070
           H          1.979201200169    -2.083464831332     1.168687200163     1.007825032070
           H          1.303597636483    -2.858587026017    -0.264002422140     1.007825032070
           C         -3.102931106325    -0.904762093180     0.037895529733    12.000000000000
           H         -3.787278841126    -1.136025300797     0.853790412201     1.007825032070
           H         -2.602183391844    -1.829566319895    -0.252536941972     1.007825032070
           H         -3.695825426118    -0.567711119260    -0.813370366095     1.007825032070
           C          1.998843498324    -0.827611858539    -0.593835596252    12.000000000000
           H          1.387599550444    -0.661924787014    -1.483385649411     1.007825032070
           H          2.969357843953    -1.174672226239    -0.956499217842     1.007825032070
           C         -2.083491152060     0.154139265995     0.440196232514    12.000000000000
           H         -2.598197986680     1.066244378537     0.755271614010     1.007825032070
           H         -1.521432592018    -0.197567529139     1.308315084914     1.007825032070
           C          2.206797009703     0.491546996064     0.148049358662    12.000000000000
           H          2.693064510278     1.203954080005    -0.524930999177     1.007825032070
           H          2.906649683314     0.317379477928     0.971361411312     1.007825032070
           C          0.945747519112     1.148583026589     0.713259389611    12.000000000000
           H          1.261533116585     2.042896494089     1.255482906439     1.007825032070
           H          0.487960574673     0.497799458874     1.461325221157     1.007825032070
           C         -0.091826670861     1.555155561147    -0.341588375206    12.000000000000
           H         -0.635538338029     2.435227130466     0.014003646248     1.007825032070
           H          0.435921596038     1.870414937241    -1.247212940249     1.007825032070
           C         -1.130229262521     0.489816140821    -0.701196500960    12.000000000000
           H         -1.722694598836     0.849705282809    -1.547996275968     1.007825032070
           H         -0.643238076582    -0.426967727257    -1.038988507389     1.007825032070

  Running in c1 symmetry.

  Rotational constants: A =      0.08754  B =      0.03786  C =      0.03021 [cm^-1]
  Rotational constants: A =   2624.32826  B =   1134.89375  C =    905.59090 [MHz]
  Nuclear repulsion =  406.798717984064695

  Charge       = 0
  Multiplicity = 1
  Electrons    = 66
  Nalpha       = 33
  Nbeta        = 33

  ==> Algorithm <==

  SCF Algorithm Type is DF.
  DIIS enabled.
  MOM disabled.
  Fractional occupation disabled.
  Guess Type is READ.
  Energy threshold   = 1.00e-10
  Density threshold  = 1.00e-10
  Integral threshold = 0.00e+00

  ==> Primary Basis <==

  Basis Set: AUG-CC-PVTZ
    Number of shells: 274
    Number of basis function: 782
    Number of Cartesian functions: 890
    Spherical Harmonics?: true
    Max angular momentum: 3

  ==> Pre-Iterations <==

   -------------------------------------------------------
    Irrep   Nso     Nmo     Nalpha   Nbeta   Ndocc  Nsocc
   -------------------------------------------------------
     A        782     782       0       0       0       0
   -------------------------------------------------------
    Total     782     782      33      33      33       0
   -------------------------------------------------------

  ==> Integral Setup <==

  ==> DFJK: Density-Fitted J/K Matrices <==

    J tasked:                  Yes
    K tasked:                  Yes
    wK tasked:                  No
    OpenMP threads:             12
    Integrals threads:          12
    Memory (MB):             42915
    Algorithm:                Core
    Integral Cache:           NONE
    Schwarz Cutoff:          1E-12
    Fitting Condition:       1E-12

   => Auxiliary Basis Set <=

  Basis Set: 
    Number of shells: 492
    Number of basis function: 1660
    Number of Cartesian functions: 2038
    Spherical Harmonics?: true
    Max angular momentum: 4

  Minimum eigenvalue in the overlap matrix is 1.7352404949E-06.
  Using Symmetric Orthogonalization.
  SCF Guess: Reading in previously saved MOs, projecting if necessary.

  Using orbitals from previous SCF, no projection.
  Recomputing DOCC and SOCC from number of alpha and beta electrons from previous calculation.
              A 
    DOCC [    33 ]

  ==> Iterations <==

                           Total Energy        Delta E     RMS |[F,P]|

   @DF-RHF iter   0:  -313.53605696307017   -3.13536e+02   1.80372e-07 
   @DF-RHF iter   1:  -313.53607209079502   -1.51277e-05   3.58631e-08 
   @DF-RHF iter   2:  -313.53607209152989   -7.34872e-10   1.46253e-08 DIIS
   @DF-RHF iter   3:  -313.53607209163721   -1.07320e-10   6.57031e-09 DIIS
   @DF-RHF iter   4:  -313.53607209166074   -2.35332e-11   7.21909e-10 DIIS
   @DF-RHF iter   5:  -313.53607209166233   -1.59162e-12   2.07571e-10 DIIS
   @DF-RHF iter   6:  -313.53607209166177    5.68434e-13   5.47737e-11 DIIS

  ==> Post-Iterations <==

    Orbital Energies (a.u.)
    -----------------------

    Doubly Occupied:                                                      

       1A    -11.212463     2A    -11.212311     3A    -11.211230  
       4A    -11.210884     5A    -11.209404     6A    -11.209257  
       7A    -11.207385     8A    -11.207240     9A     -1.094306  
      10A     -1.058347    11A     -1.007456    12A     -0.950200  
      13A     -0.884162    14A     -0.836136    15A     -0.787521  
      16A     -0.750340    17A     -0.650845    18A     -0.631580  
      19A     -0.612567    20A     -0.579753    21A     -0.579115  
      22A     -0.569408    23A     -0.542858    24A     -0.531531  
      25A     -0.519491    26A     -0.505104    27A     -0.485732  
      28A     -0.474355    29A     -0.467952    30A     -0.461126  
      31A     -0.440701    32A     -0.437820    33A     -0.434939  

    Virtual:                                                              

      34A      0.029204    35A      0.033698    36A      0.034384  
      37A      0.034966    38A      0.046795    39A      0.048584  
      40A      0.050328    41A      0.052788    42A      0.056514  
      43A      0.068797    44A      0.069714    45A      0.071561  
      46A      0.073882    47A      0.079324    48A      0.084269  
      49A      0.089039    50A      0.096306    51A      0.101443  
      52A      0.114954    53A      0.117647    54A      0.120977  
      55A      0.123109    56A      0.129132    57A      0.132277  
      58A      0.133672    59A      0.136505    60A      0.141368  
      61A      0.146670    62A      0.148325    63A      0.152529  
      64A      0.154503    65A      0.157064    66A      0.159801  
      67A      0.166039    68A      0.169513    69A      0.173573  
      70A      0.177846    71A      0.179380    72A      0.182713  
      73A      0.186821    74A      0.188194    75A      0.191789  
      76A      0.202295    77A      0.204587    78A      0.218714  
      79A      0.225190    80A      0.232880    81A      0.239700  
      82A      0.245761    83A      0.251103    84A      0.260519  
      85A      0.268437    86A      0.270708    87A      0.278901  
      88A      0.282786    89A      0.289951    90A      0.295219  
      91A      0.304644    92A      0.309073    93A      0.312592  
      94A      0.317980    95A      0.321159    96A      0.324926  
      97A      0.330459    98A      0.333288    99A      0.335745  
     100A      0.338190   101A      0.344981   102A      0.348292  
     103A      0.349771   104A      0.355556   105A      0.355920  
     106A      0.360854   107A      0.364113   108A      0.367420  
     109A      0.370854   110A      0.374094   111A      0.376650  
     112A      0.380566   113A      0.383035   114A      0.386701  
     115A      0.388570   116A      0.395541   117A      0.399072  
     118A      0.403199   119A      0.406711   120A      0.417832  
     121A      0.420734   122A      0.423260   123A      0.428786  
     124A      0.433908   125A      0.439960   126A      0.443011  
     127A      0.446576   128A      0.450819   129A      0.452597  
     130A      0.455067   131A      0.458517   132A      0.463102  
     133A      0.471367   134A      0.472750   135A      0.477476  
     136A      0.478523   137A      0.483069   138A      0.486674  
     139A      0.488913   140A      0.495505   141A      0.498562  
     142A      0.499720   143A      0.503930   144A      0.506885  
     145A      0.512074   146A      0.514160   147A      0.522011  
     148A      0.527471   149A      0.532178   150A      0.534298  
     151A      0.540130   152A      0.541351   153A      0.548754  
     154A      0.552681   155A      0.557187   156A      0.562121  
     157A      0.565953   158A      0.572238   159A      0.573431  
     160A      0.579047   161A      0.581912   162A      0.588719  
     163A      0.599231   164A      0.604406   165A      0.605622  
     166A      0.608184   167A      0.614167   168A      0.618811  
     169A      0.619423   170A      0.624903   171A      0.629227  
     172A      0.634101   173A      0.636221   174A      0.643994  
     175A      0.644944   176A      0.651356   177A      0.660713  
     178A      0.663451   179A      0.669555   180A      0.676134  
     181A      0.682260   182A      0.685947   183A      0.694360  
     184A      0.696930   185A      0.701213   186A      0.703122  
     187A      0.717882   188A      0.721647   189A      0.725527  
     190A      0.735481   191A      0.737842   192A      0.744564  
     193A      0.748386   194A      0.754037   195A      0.760255  
     196A      0.762059   197A      0.766756   198A      0.768275  
     199A      0.779178   200A      0.785980   201A      0.795008  
     202A      0.811510   203A      0.818860   204A      0.822700  
     205A      0.827225   206A      0.831649   207A      0.847786  
     208A      0.852846   209A      0.855559   210A      0.861060  
     211A      0.865572   212A      0.884758   213A      0.890528  
     214A      0.891235   215A      0.893444   216A      0.902760  
     217A      0.903350   218A      0.908851   219A      0.914466  
     220A      0.921378   221A      0.926368   222A      0.928936  
     223A      0.932819   224A      0.940414   225A      0.943482  
     226A      0.949405   227A      0.955449   228A      0.957872  
     229A      0.963687   230A      0.965603   231A      0.978367  
     232A      0.981930   233A      0.985308   234A      0.987643  
     235A      0.993932   236A      0.999244   237A      0.999885  
     238A      1.009824   239A      1.013867   240A      1.019913  
     241A      1.020845   242A      1.028785   243A      1.031656  
     244A      1.038078   245A      1.043531   246A      1.046887  
     247A      1.051339   248A      1.057258   249A      1.060041  
     250A      1.077943   251A      1.080329   252A      1.085724  
     253A      1.093720   254A      1.097601   255A      1.106367  
     256A      1.109315   257A      1.115042   258A      1.118393  
     259A      1.128334   260A      1.133441   261A      1.137463  
     262A      1.146086   263A      1.149768   264A      1.152757  
     265A      1.154583   266A      1.159673   267A      1.171109  
     268A      1.172497   269A      1.178216   270A      1.185805  
     271A      1.192811   272A      1.197089   273A      1.203326  
     274A      1.204446   275A      1.211997   276A      1.218883  
     277A      1.223036   278A      1.231268   279A      1.235955  
     280A      1.239829   281A      1.245365   282A      1.246298  
     283A      1.257867   284A      1.260949   285A      1.262545  
     286A      1.270444   287A      1.277323   288A      1.279966  
[...]
	Denominators (dg)(dq) or (dq)(dq) are very small.
	 Skipping Hessian update for step 8.
	Denominators (dg)(dq) or (dq)(dq) are very small.
	 Skipping Hessian update for step 7.
	Denominators (dg)(dq) or (dq)(dq) are very small.
	 Skipping Hessian update for step 6.
	Denominators (dg)(dq) or (dq)(dq) are very small.
	 Skipping Hessian update for step 5.
	Denominators (dg)(dq) or (dq)(dq) are very small.
	 Skipping Hessian update for step 4.
	Denominators (dg)(dq) or (dq)(dq) are very small.
	 Skipping Hessian update for step 3.
	Denominators (dg)(dq) or (dq)(dq) are very small.
	 Skipping Hessian update for step 2.
	Steps to be used in Hessian update: 1
	Taking RFO optimization step.
	Going to follow RFO solution 1.
	Rejecting RFO root 1 because normalization gives large value.
	Rejecting RFO root 2 because normalization gives large value.
	Rejecting RFO root 3 because normalization gives large value.
	Rejecting RFO root 4 because normalization gives large value.
	Rejecting RFO root 5 because normalization gives large value.
	Rejecting RFO root 6 because normalization gives large value.
	Using RFO vector 7.
	Norm of target step-size    0.00001
	Projected energy change by RFO approximation:        -0.0000000000

	Back-transformation to cartesian coordinates...
	Successfully converged to displaced geometry.

	--- Internal Coordinate Step in ANG or DEG, aJ/ANG or AJ/DEG ---
	 ---------------------------------------------------------------------------
	   Coordinate                Previous        Force       Change         New 
	   ----------                --------       ------       ------       ------
	    1 R(1,2)          =      1.090078    -0.000006    -0.000000     1.090078
	    2 R(1,3)          =      1.091488    -0.000001     0.000000     1.091488
	    3 R(1,4)          =      1.090010    -0.000001     0.000000     1.090010
	    4 R(1,9)          =      1.524548     0.000002     0.000000     1.524548
	    5 R(5,6)          =      1.089725    -0.000001     0.000000     1.089725
	    6 R(5,7)          =      1.091037    -0.000001    -0.000000     1.091037
	    7 R(5,8)          =      1.090771     0.000001     0.000000     1.090771
	    8 R(5,12)         =      1.523935     0.000000     0.000000     1.523935
	    9 R(9,10)         =      1.091957    -0.000007     0.000000     1.091957
	   10 R(9,11)         =      1.092644    -0.000001     0.000000     1.092645
	   11 R(9,15)         =      1.527684    -0.000000     0.000000     1.527684
	   12 R(12,13)        =      1.093678    -0.000003     0.000000     1.093678
	   13 R(12,14)        =      1.092354     0.000002     0.000000     1.092354
	   14 R(12,24)        =      1.524521     0.000005     0.000000     1.524521
	   15 R(15,16)        =      1.094020    -0.000008    -0.000000     1.094020
	   16 R(15,17)        =      1.094518    -0.000007    -0.000000     1.094518
	   17 R(15,18)        =      1.530164    -0.000001     0.000000     1.530164
	   18 R(18,19)        =      1.092485    -0.000004    -0.000000     1.092485
	   19 R(18,20)        =      1.092102    -0.000005     0.000000     1.092102
	   20 R(18,21)        =      1.534459    -0.000005    -0.000000     1.534459
	   21 R(21,22)        =      1.093890    -0.000008    -0.000000     1.093889
	   22 R(21,23)        =      1.094560    -0.000008    -0.000000     1.094560
	   23 R(21,24)        =      1.530538    -0.000002    -0.000000     1.530538
	   24 R(24,25)        =      1.094352    -0.000002     0.000000     1.094352
	   25 R(24,26)        =      1.091676    -0.000004     0.000000     1.091677
	   26 B(1,9,10)       =    110.100111     0.000000     0.000037   110.100148
	   27 B(1,9,11)       =    109.027708    -0.000000    -0.000036   109.027671
	   28 B(1,9,15)       =    113.214483     0.000000     0.000016   113.214499
	   29 B(2,1,3)        =    107.613730     0.000000     0.000021   107.613750
	   30 B(2,1,4)        =    107.644114     0.000000    -0.000003   107.644111
	   31 B(2,1,9)        =    111.729603    -0.000000     0.000018   111.729621
	   32 B(3,1,4)        =    107.875657     0.000000     0.000001   107.875658
	   33 B(3,1,9)        =    110.553968    -0.000000    -0.000017   110.553950
	   34 B(4,1,9)        =    111.251385     0.000000    -0.000019   111.251367
	   35 B(5,12,13)      =    109.920568    -0.000000     0.000014   109.920582
	   36 B(5,12,14)      =    109.285706    -0.000000    -0.000009   109.285697
	   37 B(5,12,24)      =    111.940153     0.000000     0.000033   111.940186
	   38 B(6,5,7)        =    107.917683    -0.000000    -0.000009   107.917675
	   39 B(6,5,8)        =    107.971384     0.000000    -0.000000   107.971384
	   40 B(6,5,12)       =    111.710180    -0.000000    -0.000012   111.710168
	   41 B(7,5,8)        =    107.676778     0.000000     0.000007   107.676785
	   42 B(7,5,12)       =    110.623532    -0.000000     0.000000   110.623533
	   43 B(8,5,12)       =    110.788966     0.000000     0.000015   110.788980
	   44 B(9,15,16)      =    108.909111     0.000000    -0.000002   108.909109
	   45 B(9,15,17)      =    108.356597    -0.000000     0.000014   108.356610
	   46 B(9,15,18)      =    115.974830     0.000000    -0.000028   115.974802
	   47 B(10,9,11)      =    105.962384    -0.000000    -0.000010   105.962374
	   48 B(10,9,15)      =    109.924714    -0.000000    -0.000034   109.924681
	   49 B(11,9,15)      =    108.333990     0.000000     0.000025   108.334015
	   50 B(12,24,21)     =    113.677129     0.000000     0.000067   113.677196
	   51 B(12,24,25)     =    108.253324    -0.000000    -0.000001   108.253323
	   52 B(12,24,26)     =    109.007467    -0.000000    -0.000017   109.007450
	   53 B(13,12,14)     =    106.362897     0.000000    -0.000020   106.362877
	   54 B(13,12,24)     =    109.046184    -0.000000     0.000013   109.046197
	   55 B(14,12,24)     =    110.130462    -0.000000    -0.000034   110.130427
	   56 B(15,18,19)     =    107.254564    -0.000000    -0.000017   107.254547
	   57 B(15,18,20)     =    110.035303    -0.000000     0.000014   110.035317
	   58 B(15,18,21)     =    114.651682     0.000000     0.000039   114.651721
	   59 B(16,15,17)     =    106.387694    -0.000000    -0.000017   106.387677
	   60 B(16,15,18)     =    108.295311    -0.000000    -0.000013   108.295298
	   61 B(17,15,18)     =    108.507961     0.000000     0.000047   108.508008
	   62 B(18,21,22)     =    109.013997     0.000000    -0.000035   109.013962
	   63 B(18,21,23)     =    108.606616     0.000000     0.000087   108.606703
	   64 B(18,21,24)     =    115.839179    -0.000000    -0.000061   115.839118
	   65 B(19,18,20)     =    105.604955    -0.000000    -0.000038   105.604917
	   66 B(19,18,21)     =    108.647506     0.000000     0.000014   108.647519
	   67 B(20,18,21)     =    110.201981    -0.000000    -0.000018   110.201963
	   68 B(21,24,25)     =    108.675419    -0.000000     0.000014   108.675433
	   69 B(21,24,26)     =    110.768220    -0.000000    -0.000089   110.768131
	   70 B(22,21,23)     =    106.074609    -0.000000    -0.000006   106.074604
	   71 B(22,21,24)     =    107.406918     0.000000    -0.000020   107.406898
	   72 B(23,21,24)     =    109.463171     0.000000     0.000037   109.463208
	   73 B(25,24,26)     =    106.155985     0.000000     0.000025   106.156011
	   74 D(1,9,15,16)    =    177.673161    -0.000000    -0.000031   177.673130
	   75 D(1,9,15,17)    =     62.339859     0.000000    -0.000017    62.339842
	   76 D(1,9,15,18)    =    -59.915407    -0.000000    -0.000070   -59.915477
	   77 D(2,1,9,10)     =    -59.992770    -0.000000    -0.000087   -59.992857
	   78 D(2,1,9,11)     =   -175.839950     0.000000    -0.000075  -175.840025
	   79 D(2,1,9,15)     =     63.498678    -0.000000    -0.000092    63.498587
	   80 D(3,1,9,10)     =   -179.816282     0.000000    -0.000114  -179.816395
	   81 D(3,1,9,11)     =     64.336539     0.000000    -0.000102    64.336437
	   82 D(3,1,9,15)     =    -56.324833    -0.000000    -0.000118   -56.324952
	   83 D(4,1,9,10)     =     60.344805    -0.000000    -0.000092    60.344714
	   84 D(4,1,9,11)     =    -55.502375     0.000000    -0.000080   -55.502454
	   85 D(4,1,9,15)     =   -176.163746    -0.000000    -0.000096  -176.163843
	   86 D(5,12,24,21)   =    179.754909     0.000000     0.000075   179.754983
	   87 D(5,12,24,25)   =     58.905370     0.000000     0.000014    58.905384
	   88 D(5,12,24,26)   =    -56.150744    -0.000000    -0.000006   -56.150750
	   89 D(6,5,12,13)    =    -58.199244     0.000000    -0.000037   -58.199282
	   90 D(6,5,12,14)    =     58.177655    -0.000000    -0.000058    58.177596
	   91 D(6,5,12,24)    =   -179.543536    -0.000000    -0.000086  -179.543622
	   92 D(7,5,12,13)    =   -178.441429     0.000000    -0.000018  -178.441447
	   93 D(7,5,12,14)    =    -62.064530    -0.000000    -0.000039   -62.064569
	   94 D(7,5,12,24)    =     60.214279    -0.000000    -0.000067    60.214213
	   95 D(8,5,12,13)    =     62.223954     0.000000    -0.000036    62.223918
	   96 D(8,5,12,14)    =    178.600853    -0.000000    -0.000057   178.600796
	   97 D(8,5,12,24)    =    -59.120338    -0.000000    -0.000085   -59.120422
	   98 D(9,15,18,19)   =    176.974173    -0.000000     0.000020   176.974193
	   99 D(9,15,18,20)   =     62.575148     0.000000     0.000067    62.575215
	  100 D(9,15,18,21)   =    -62.300139     0.000000     0.000050   -62.300088
	  101 D(10,9,15,16)   =    -58.739020     0.000000     0.000003   -58.739017
	  102 D(10,9,15,17)   =   -174.072322     0.000000     0.000017  -174.072305
	  103 D(10,9,15,18)   =     63.672412    -0.000000    -0.000036    63.672376
	  104 D(11,9,15,16)   =     56.619220    -0.000000    -0.000013    56.619207
	  105 D(11,9,15,17)   =    -58.714083     0.000000     0.000001   -58.714081
	  106 D(11,9,15,18)   =    179.030652    -0.000000    -0.000052   179.030600
	  107 D(12,24,21,18)  =     66.761126    -0.000000    -0.000065    66.761061
	  108 D(12,24,21,22)  =    -55.324554    -0.000000     0.000037   -55.324517
	  109 D(12,24,21,23)  =   -170.068197    -0.000000     0.000036  -170.068161
	  110 D(13,12,24,21)  =     57.907685     0.000000     0.000026    57.907711
	  111 D(13,12,24,25)  =    -62.941854    -0.000000    -0.000034   -62.941888
	  112 D(13,12,24,26)  =   -177.997967    -0.000000    -0.000055  -177.998022
	  113 D(14,12,24,21)  =    -58.449855     0.000000     0.000062   -58.449794
	  114 D(14,12,24,25)  =   -179.299394     0.000000     0.000001  -179.299393
	  115 D(14,12,24,26)  =     65.644492    -0.000000    -0.000019    65.644473
	  116 D(15,18,21,22)  =   -149.352722    -0.000000    -0.000098  -149.352820
	  117 D(15,18,21,23)  =    -34.199823     0.000000    -0.000077   -34.199899
	  118 D(15,18,21,24)  =     89.419127     0.000000    -0.000001    89.419125
	  119 D(16,15,18,19)  =    -60.291018    -0.000000    -0.000013   -60.291031
	  120 D(16,15,18,20)  =   -174.690043     0.000000     0.000034  -174.690009
	  121 D(16,15,18,21)  =     60.434670     0.000000     0.000017    60.434687
	  122 D(17,15,18,19)  =     54.798968    -0.000000    -0.000015    54.798954
	  123 D(17,15,18,20)  =    -59.600056    -0.000000     0.000032   -59.600025
	  124 D(17,15,18,21)  =    175.524657    -0.000000     0.000015   175.524672
	  125 D(18,21,24,25)  =   -172.626412    -0.000000    -0.000013  -172.626425
	  126 D(18,21,24,26)  =    -56.375018    -0.000000    -0.000024   -56.375042
	  127 D(19,18,21,22)  =    -29.398089     0.000000    -0.000084   -29.398174
	  128 D(19,18,21,23)  =     85.754810     0.000000    -0.000063    85.754747
	  129 D(19,18,21,24)  =   -150.626240     0.000000     0.000012  -150.626228
	  130 D(20,18,21,22)  =     85.859738    -0.000000    -0.000131    85.859606
	  131 D(20,18,21,23)  =   -158.987362    -0.000000    -0.000110  -158.987473
	  132 D(20,18,21,24)  =    -35.368413     0.000000    -0.000035   -35.368448
	  133 D(22,21,24,25)  =     65.287908     0.000000     0.000089    65.287997
	  134 D(22,21,24,26)  =   -178.460698     0.000000     0.000078  -178.460620
	  135 D(23,21,24,25)  =    -49.455735     0.000000     0.000088   -49.455647
	  136 D(23,21,24,26)  =     66.795659     0.000000     0.000077    66.795736
	  137 R(1,24)         =      3.607038    -0.000000    -0.000001     3.607037
	  138 R(9,24)         =      3.396808     0.000000    -0.000001     3.396807
	 ---------------------------------------------------------------------------

  ==> Convergence Check <==

  Measures of convergence in internal coordinates in au.
  Criteria marked as inactive (o), active & met (*), and active & unmet ( ).
  ---------------------------------------------------------------------------------------------
   Step     Total Energy     Delta E     MAX Force     RMS Force      MAX Disp      RMS Disp   
  ---------------------------------------------------------------------------------------------
    Convergence Criteria             o    2.00e-06 *    1.00e-06 *    6.00e-06 *    4.00e-06 *
  ---------------------------------------------------------------------------------------------
     20    -314.98105907   -4.69e-09 o    1.02e-06 *    2.49e-07 *    2.33e-06 *    8.62e-07 *  ~
  ---------------------------------------------------------------------------------------------


  **** Optimization is complete! (in 20 steps) ****

  ==> Optimization Summary <==

  Measures of convergence in internal coordinates in au.
  --------------------------------------------------------------------------------------------------------------- ~
   Step         Total Energy             Delta E       MAX Force       RMS Force        MAX Disp        RMS Disp  ~
  --------------------------------------------------------------------------------------------------------------- ~
      1    -314.981059070899   -314.981059070899      0.00000080      0.00000021      0.00004940      0.00001653  ~
      2    -314.981059072572     -0.000000001673      0.00000242      0.00000065      0.00003674      0.00001520  ~
      3    -314.981059073284     -0.000000000712      0.00000384      0.00000093      0.00004879      0.00001766  ~
      4    -314.981059074362     -0.000000001078      0.00000330      0.00000093      0.00005421      0.00001995  ~
      5    -314.981059065330      0.000000009032      0.00000376      0.00000088      0.00012419      0.00004078  ~
      6    -314.981059069609     -0.000000004279      0.00000555      0.00000144      0.00013064      0.00004670  ~
      7    -314.981059077116     -0.000000007507      0.00000171      0.00000034      0.00001459      0.00000385  ~
      8    -314.981059074199      0.000000002917      0.00000178      0.00000044      0.00003782      0.00000840  ~
      9    -314.981059071671      0.000000002528      0.00000359      0.00000086      0.00026544      0.00005733  ~
     10    -314.981059069982      0.000000001689      0.00000744      0.00000201      0.00028811      0.00006278  ~
     11    -314.981059068880      0.000000001102      0.00000133      0.00000025      0.00001385      0.00000309  ~
     12    -314.981059074068     -0.000000005188      0.00000289      0.00000069      0.00004033      0.00000854  ~
     13    -314.981059072059      0.000000002009      0.00000214      0.00000051      0.00003885      0.00000808  ~
     14    -314.981059069111      0.000000002948      0.00000327      0.00000068      0.00003109      0.00000835  ~
     15    -314.981059070618     -0.000000001507      0.00000275      0.00000045      0.00006254      0.00000927  ~
     16    -314.981059071986     -0.000000001367      0.00000329      0.00000067      0.00006897      0.00001133  ~
     17    -314.981059072580     -0.000000000595      0.00000133      0.00000028      0.00001731      0.00000458  ~
     18    -314.981059077092     -0.000000004512      0.00000182      0.00000034      0.00001431      0.00000476  ~
     19    -314.981059068690      0.000000008402      0.00000162      0.00000039      0.00000753      0.00000241  ~
     20    -314.981059073376     -0.000000004686      0.00000102      0.00000025      0.00000233      0.00000086  ~
  --------------------------------------------------------------------------------------------------------------- ~

	Writing optimization data to binary file.
	Final energy is   -314.9810590733759
	Final (previous) structure:
	Cartesian Geometry (in Angstrom)
	    C     1.3755422824  -1.9140645914   0.2752056805
	    H     0.3715739711  -1.6429454510   0.6020281404
	    H     1.9792313527  -2.0835037947   1.1686239507
	    H     1.3036424132  -2.8585769113  -0.2640976113
	    C    -3.1029646251  -0.9047414426   0.0379311494
	    H    -3.7873372975  -1.1359521667   0.8538203566
	    H    -2.6022144725  -1.8295662550  -0.2524323294
	    H    -3.6958324496  -0.5677369753  -0.8133714999
	    C     1.9988782936  -0.8275844457  -0.5938505893
	    H     1.3876445559  -0.6618747339  -1.4834025471
	    H     2.9694007432  -1.1746197384  -0.9565137372
	    C    -2.0835291817   0.1541771035   0.4401990113
	    H    -2.5982398953   1.0663040178   0.7552066136
	    H    -1.5214973396  -0.1974822856   1.3083536855
	    C     2.2068048121   0.4915516727   0.1480818539
	    H     2.6930902257   1.2039787152  -0.5248631233
	    H     2.9066317324   0.3173626072   0.9714099569
	    C     0.9457365355   1.1485683942   0.7132695774
	    H     1.2614957014   2.0428870502   1.2554990622
	    H     0.4879461419   0.4977772895   1.4613242293
	    C    -0.0918199408   1.5551223604  -0.3416023684
	    H    -0.6355240248   2.4352138046   0.0139527668
	    H     0.4359421994   1.8703409253  -1.2472326920
	    C    -1.1302318675   0.4897827987  -0.7011852157
	    H    -1.7226695022   0.8496413723  -1.5480177714
	    H    -0.6432467554  -0.4270251345  -1.0389218350
	Saving final (previous) structure.
			--------------------------
			 OPTKING Finished Execution 
			--------------------------

    Final optimized geometry and variables:
    Molecular point group: c1
    Full point group: C1

    Geometry (in Angstrom), charge = 0, multiplicity = 1:

    C            1.375542282436    -1.914064591418     0.275205680520
    H            0.371573971059    -1.642945451011     0.602028140435
    H            1.979231352720    -2.083503794731     1.168623950673
    H            1.303642413156    -2.858576911261    -0.264097611250
    C           -3.102964625065    -0.904741442569     0.037931149428
    H           -3.787337297498    -1.135952166654     0.853820356614
    H           -2.602214472486    -1.829566255041    -0.252432329397
    H           -3.695832449583    -0.567736975287    -0.813371499895
    C            1.998878293593    -0.827584445670    -0.593850589297
    H            1.387644555860    -0.661874733877    -1.483402547098
    H            2.969400743217    -1.174619738373    -0.956513737195
    C           -2.083529181668     0.154177103478     0.440199011316
    H           -2.598239895346     1.066304017839     0.755206613583
    H           -1.521497339584    -0.197482285616     1.308353685512
    C            2.206804812086     0.491551672740     0.148081853925
    H            2.693090225672     1.203978715227    -0.524863123269
    H            2.906631732390     0.317362607203     0.971409956873
    C            0.945736535530     1.148568394173     0.713269577396
    H            1.261495701446     2.042887050216     1.255499062167
    H            0.487946141922     0.497777289528     1.461324229323
    C           -0.091819940758     1.555122360369    -0.341602368433
    H           -0.635524024774     2.435213804586     0.013952766815
    H            0.435942199411     1.870340925321    -1.247232691973
    C           -1.130231867539     0.489782798725    -0.701185215677
    H           -1.722669502181     0.849641372347    -1.548017771383
    H           -0.643246755421    -0.427025134499    -1.038921835002

	Cleaning optimization helper files.

*** Psi4 exiting successfully. Buy a developer a beer!
