    -----------------------------------------------------------------------
          Psi4: An Open-Source Ab Initio Electronic Structure Package
                              Psi4 1.0.0 Driver

                          Git: Rev {master} 6a9a71b dirty

    J. M. Turney, A. C. Simmonett, R. M. Parrish, E. G. Hohenstein,
    F. A. Evangelista, J. T. Fermann, B. J. Mintz, L. A. Burns, J. J. Wilke,
    M. L. Abrams, N. J. Russ, M. L. Leininger, C. L. Janssen, E. T. Seidl,
    W. D. Allen, H. F. Schaefer, R. A. King, E. F. Valeev, C. D. Sherrill,
    and T. D. Crawford, WIREs Comput. Mol. Sci. 2, 556-565 (2012)
    (doi: 10.1002/wcms.93)

                         Additional Contributions by
    A. E. DePrince, U. Bozkaya, A. Yu. Sokolov, D. G. A. Smith, R. Di Remigio,
    R. M. Richard, J. F. Gonthier, H. R. McAlexander, M. Saitow, and
    B. P. Pritchard
    -----------------------------------------------------------------------


    Psi4 started on: Tue Sep 20 23:11:07 2016

    Process ID:  27034
    PSI4DATADIR: /usr/local/hpc5/psi4conda/share/psi4
    Memory level set to 256.000 MB

  ==> Input File <==

--------------------------------------------------------------------------
memory 60 Gb

molecule molecule_57_psi {
0 1
C           -2.939228815032     1.040926423366    -0.071138167857
H           -2.132482663991     1.583303501498     0.422050706430
H           -3.880703726444     1.479403034446     0.259627620788
H           -2.849440525688     1.210108351368    -1.145272730707
C            3.228852786025    -0.682343198548    -0.428389811258
H            2.491871993088    -1.384016925641    -0.819148857244
H            4.058297786130    -1.264575283997    -0.027721158823
H            3.605620395880    -0.095060489829    -1.267635815895
C           -2.889057139859    -0.447929454017     0.252422400678
H           -3.760339260195    -0.940472100132    -0.185694009806
H           -2.969221009882    -0.583392026606     1.334609436832
C            2.626394420135     0.225233828968     0.638141709440
H            2.223813106214    -0.381631922608     1.451975015507
H            3.415557206435     0.838980909925     1.077959696378
C           -1.623792666686    -1.154840287164    -0.233218279583
H           -1.577204082232    -1.106184930140    -1.325956441090
H           -1.707299293370    -2.213024029671     0.023224906428
C           -0.325803091051    -0.579822539778     0.352286715921
H            0.369019567779    -1.394111379592     0.568336691404
H           -0.541242360706    -0.102787002866     1.315358429773
C            0.365714738777     0.423923815807    -0.567704335565
H            0.706582898823    -0.100844919302    -1.464612425610
H           -0.358080880821     1.165103479601    -0.911543354756
C            1.537235095520     1.148649733371     0.092655415991
H            1.987138381844     1.833852877507    -0.631937061772
H            1.152494486376     1.767327747149     0.908977759814
}

set globals {
  reference rhf
  g_convergence gau_verytight
  basis aug-cc-pvtz
  freeze_core true
  scf_type df
  mp_type df
}
optimize('mp2')
--------------------------------------------------------------------------
/usr/local/hpc5/psi4conda/lib/python2.7/site-packages/v2rdm_casscf/v2rdm_casscf.so loaded.

  Memory set to  60.000 GiB by Python script.
gradient() will perform analytic gradient computation.

*** tstart() called on wr33
*** at Tue Sep 20 23:11:09 2016


         ---------------------------------------------------------
                                   SCF
            by Justin Turney, Rob Parrish, and Andy Simmonett
                              RHF Reference
                       12 Threads,  60000 MiB Core
         ---------------------------------------------------------

  ==> Geometry <==

    Molecular point group: c1
    Full point group: C1

    Geometry (in Angstrom), charge = 0, multiplicity = 1:

       Center              X                  Y                   Z               Mass       
    ------------   -----------------  -----------------  -----------------  -----------------
           C         -2.939228815032     1.040926423366    -0.071138167857    12.000000000000
           H         -2.132482663991     1.583303501498     0.422050706430     1.007825032070
           H         -3.880703726444     1.479403034446     0.259627620788     1.007825032070
           H         -2.849440525688     1.210108351368    -1.145272730707     1.007825032070
           C          3.228852786025    -0.682343198548    -0.428389811258    12.000000000000
           H          2.491871993088    -1.384016925641    -0.819148857244     1.007825032070
           H          4.058297786130    -1.264575283997    -0.027721158823     1.007825032070
           H          3.605620395880    -0.095060489829    -1.267635815895     1.007825032070
           C         -2.889057139859    -0.447929454017     0.252422400678    12.000000000000
           H         -3.760339260195    -0.940472100132    -0.185694009806     1.007825032070
           H         -2.969221009882    -0.583392026606     1.334609436832     1.007825032070
           C          2.626394420135     0.225233828968     0.638141709440    12.000000000000
           H          2.223813106214    -0.381631922608     1.451975015507     1.007825032070
           H          3.415557206435     0.838980909925     1.077959696378     1.007825032070
           C         -1.623792666686    -1.154840287164    -0.233218279583    12.000000000000
           H         -1.577204082232    -1.106184930140    -1.325956441090     1.007825032070
           H         -1.707299293370    -2.213024029671     0.023224906428     1.007825032070
           C         -0.325803091051    -0.579822539778     0.352286715921    12.000000000000
           H          0.369019567779    -1.394111379592     0.568336691404     1.007825032070
           H         -0.541242360706    -0.102787002866     1.315358429773     1.007825032070
           C          0.365714738777     0.423923815807    -0.567704335565    12.000000000000
           H          0.706582898823    -0.100844919302    -1.464612425610     1.007825032070
           H         -0.358080880821     1.165103479601    -0.911543354756     1.007825032070
           C          1.537235095520     1.148649733371     0.092655415991    12.000000000000
           H          1.987138381844     1.833852877507    -0.631937061772     1.007825032070
           H          1.152494486376     1.767327747149     0.908977759814     1.007825032070

  Running in c1 symmetry.

  Rotational constants: A =      0.14213  B =      0.02714  C =      0.02487 [cm^-1]
  Rotational constants: A =   4260.98342  B =    813.60253  C =    745.52545 [MHz]
  Nuclear repulsion =  398.979753263943962

  Charge       = 0
  Multiplicity = 1
  Electrons    = 66
  Nalpha       = 33
  Nbeta        = 33

  ==> Algorithm <==

  SCF Algorithm Type is DF.
  DIIS enabled.
  MOM disabled.
  Fractional occupation disabled.
  Guess Type is SAD.
  Energy threshold   = 1.00e-10
  Density threshold  = 1.00e-10
  Integral threshold = 0.00e+00

  ==> Primary Basis <==

  Basis Set: AUG-CC-PVTZ
    Number of shells: 274
    Number of basis function: 782
    Number of Cartesian functions: 890
    Spherical Harmonics?: true
    Max angular momentum: 3

  ==> Pre-Iterations <==

   -------------------------------------------------------
    Irrep   Nso     Nmo     Nalpha   Nbeta   Ndocc  Nsocc
   -------------------------------------------------------
     A        782     782       0       0       0       0
   -------------------------------------------------------
    Total     782     782      33      33      33       0
   -------------------------------------------------------

  ==> Integral Setup <==

  ==> DFJK: Density-Fitted J/K Matrices <==

    J tasked:                  Yes
    K tasked:                  Yes
    wK tasked:                  No
    OpenMP threads:             12
    Integrals threads:          12
    Memory (MB):             42915
    Algorithm:                Core
    Integral Cache:           NONE
    Schwarz Cutoff:          1E-12
    Fitting Condition:       1E-12

   => Auxiliary Basis Set <=

  Basis Set: 
    Number of shells: 492
    Number of basis function: 1660
    Number of Cartesian functions: 2038
    Spherical Harmonics?: true
    Max angular momentum: 4

  Minimum eigenvalue in the overlap matrix is 1.6631468176E-06.
  Using Symmetric Orthogonalization.
  SCF Guess: Superposition of Atomic Densities via on-the-fly atomic UHF.

  ==> Iterations <==

                           Total Energy        Delta E     RMS |[F,P]|

   @DF-RHF iter   0:  -316.99626376696028   -3.16996e+02   7.01547e-03 
   @DF-RHF iter   1:  -313.29556043076650    3.70070e+00   7.17197e-04 
   @DF-RHF iter   2:  -313.50490681194913   -2.09346e-01   2.64542e-04 DIIS
   @DF-RHF iter   3:  -313.53163349322847   -2.67267e-02   1.01635e-04 DIIS
   @DF-RHF iter   4:  -313.53665021136555   -5.01672e-03   1.58487e-05 DIIS
   @DF-RHF iter   5:  -313.53682352515045   -1.73314e-04   4.50446e-06 DIIS
   @DF-RHF iter   6:  -313.53683507848666   -1.15533e-05   1.39260e-06 DIIS
   @DF-RHF iter   7:  -313.53683619259425   -1.11411e-06   2.45458e-07 DIIS
   @DF-RHF iter   8:  -313.53683624097471   -4.83805e-08   6.10313e-08 DIIS
   @DF-RHF iter   9:  -313.53683624351777   -2.54306e-09   1.90366e-08 DIIS
   @DF-RHF iter  10:  -313.53683624373730   -2.19529e-10   5.31934e-09 DIIS
   @DF-RHF iter  11:  -313.53683624375424   -1.69393e-11   1.15232e-09 DIIS
   @DF-RHF iter  12:  -313.53683624375560   -1.36424e-12   3.57296e-10 DIIS
   @DF-RHF iter  13:  -313.53683624375515    4.54747e-13   9.77376e-11 DIIS

  ==> Post-Iterations <==

    Orbital Energies (a.u.)
    -----------------------

    Doubly Occupied:                                                      

       1A    -11.213348     2A    -11.211771     3A    -11.210668  
       4A    -11.210316     5A    -11.209784     6A    -11.208170  
       7A    -11.207120     8A    -11.206672     9A     -1.094292  
      10A     -1.060083    11A     -1.003119    12A     -0.948632  
      13A     -0.889544    14A     -0.835551    15A     -0.777807  
      16A     -0.755958    17A     -0.649422    18A     -0.625520  
      19A     -0.613069    20A     -0.600472    21A     -0.572520  
      22A     -0.559401    23A     -0.541030    24A     -0.533599  
      25A     -0.513278    26A     -0.503241    27A     -0.496122  
      28A     -0.473895    29A     -0.462593    30A     -0.459537  
      31A     -0.448349    32A     -0.435127    33A     -0.432093  

    Virtual:                                                              

      34A      0.029911    35A      0.033081    36A      0.033886  
      37A      0.035136    38A      0.046289    39A      0.047954  
      40A      0.049948    41A      0.054266    42A      0.055551  
      43A      0.064492    44A      0.069091    45A      0.070524  
      46A      0.074685    47A      0.076189    48A      0.089917  
      49A      0.092435    50A      0.096257    51A      0.101885  
      52A      0.113619    53A      0.114393    54A      0.116753  
      55A      0.123758    56A      0.125770    57A      0.130253  
      58A      0.134819    59A      0.138798    60A      0.139158  
      61A      0.142061    62A      0.145829    63A      0.151768  
      64A      0.154267    65A      0.155566    66A      0.158871  
      67A      0.164575    68A      0.168266    69A      0.169126  
      70A      0.172639    71A      0.175995    72A      0.182999  
      73A      0.186964    74A      0.193583    75A      0.195181  
      76A      0.200161    77A      0.215359    78A      0.224192  
      79A      0.227415    80A      0.233186    81A      0.239468  
      82A      0.247842    83A      0.248467    84A      0.263584  
      85A      0.265266    86A      0.274557    87A      0.279983  
      88A      0.285448    89A      0.290036    90A      0.295419  
      91A      0.299654    92A      0.302108    93A      0.312518  
      94A      0.313361    95A      0.317007    96A      0.323191  
      97A      0.328322    98A      0.332785    99A      0.334425  
     100A      0.335928   101A      0.339325   102A      0.343451  
     103A      0.345390   104A      0.348077   105A      0.352776  
     106A      0.353507   107A      0.358460   108A      0.361660  
     109A      0.366185   110A      0.369270   111A      0.370869  
     112A      0.374104   113A      0.379936   114A      0.386241  
     115A      0.391018   116A      0.393648   117A      0.399211  
     118A      0.405028   119A      0.410705   120A      0.416597  
     121A      0.418406   122A      0.421906   123A      0.427761  
     124A      0.430321   125A      0.436562   126A      0.441793  
     127A      0.442900   128A      0.445601   129A      0.451726  
     130A      0.456106   131A      0.459799   132A      0.463024  
     133A      0.466261   134A      0.470538   135A      0.471796  
     136A      0.478019   137A      0.479827   138A      0.481361  
     139A      0.485831   140A      0.489793   141A      0.494380  
     142A      0.496384   143A      0.499969   144A      0.503654  
     145A      0.505072   146A      0.514541   147A      0.519439  
     148A      0.526341   149A      0.528502   150A      0.532341  
     151A      0.532995   152A      0.539870   153A      0.546092  
     154A      0.549957   155A      0.556588   156A      0.558542  
     157A      0.564099   158A      0.566873   159A      0.571781  
     160A      0.574114   161A      0.577370   162A      0.583365  
     163A      0.584879   164A      0.589019   165A      0.590790  
     166A      0.596423   167A      0.603064   168A      0.609312  
     169A      0.613979   170A      0.614431   171A      0.621752  
     172A      0.628442   173A      0.630794   174A      0.634632  
     175A      0.640040   176A      0.646436   177A      0.647907  
     178A      0.663762   179A      0.665257   180A      0.669377  
     181A      0.671703   182A      0.681587   183A      0.681965  
     184A      0.685495   185A      0.689767   186A      0.695858  
     187A      0.702588   188A      0.708233   189A      0.711135  
     190A      0.714195   191A      0.730252   192A      0.732647  
     193A      0.737658   194A      0.739951   195A      0.746149  
     196A      0.757834   197A      0.765692   198A      0.769054  
     199A      0.771277   200A      0.779938   201A      0.795477  
     202A      0.804662   203A      0.816212   204A      0.821511  
     205A      0.833269   206A      0.836106   207A      0.845307  
     208A      0.858146   209A      0.858970   210A      0.862742  
     211A      0.867271   212A      0.872191   213A      0.880811  
     214A      0.885320   215A      0.887245   216A      0.898548  
     217A      0.901622   218A      0.907367   219A      0.908626  
     220A      0.911984   221A      0.917252   222A      0.926907  
     223A      0.927940   224A      0.936519   225A      0.940912  
     226A      0.947409   227A      0.949973   228A      0.955673  
     229A      0.958305   230A      0.962542   231A      0.968099  
     232A      0.976865   233A      0.983862   234A      0.985803  
     235A      0.991861   236A      0.999200   237A      1.003974  
     238A      1.005580   239A      1.008134   240A      1.020738  
     241A      1.022834   242A      1.024877   243A      1.028598  
     244A      1.035824   245A      1.040358   246A      1.044275  
     247A      1.051538   248A      1.051944   249A      1.053927  
     250A      1.062183   251A      1.066284   252A      1.072396  
     253A      1.078705   254A      1.082203   255A      1.096693  
     256A      1.098932   257A      1.104226   258A      1.107843  
     259A      1.114972   260A      1.119165   261A      1.124908  
     262A      1.132692   263A      1.137468   264A      1.141020  
     265A      1.147572   266A      1.152291   267A      1.157715  
     268A      1.160627   269A      1.165614   270A      1.171181  
     271A      1.181633   272A      1.182771   273A      1.190402  
     274A      1.193027   275A      1.199713   276A      1.209424  
     277A      1.210370   278A      1.214569   279A      1.219218  
     280A      1.226353   281A      1.231281   282A      1.236554  
     283A      1.244006   284A      1.245902   285A      1.251646  
     286A      1.255595   287A      1.262352   288A      1.266836  
     289A      1.273238   290A      1.282288   291A      1.284797  
     292A      1.289484   293A      1.296242   294A      1.301737  
     295A      1.303526   296A      1.309535   297A      1.314866  
     298A      1.327987   299A      1.334778   300A      1.343462  
     301A      1.348742   302A      1.350751   303A      1.363403  
     304A      1.367922   305A      1.376176   306A      1.382106  
     307A      1.394376   308A      1.396633   309A      1.402711  
     310A      1.413744   311A      1.416842   312A      1.425740  
     313A      1.431917   314A      1.440310   315A      1.448122  
     316A      1.452372   317A      1.457200   318A      1.462908  
     319A      1.467419   320A      1.473587   321A      1.480181  
     322A      1.491062   323A      1.494498   324A      1.505954  
     325A      1.516520   326A      1.524154   327A      1.530799  
     328A      1.542648   329A      1.546047   330A      1.553615  
     331A      1.559385   332A      1.562977   333A      1.570599  
     334A      1.580650   335A      1.582723   336A      1.591972  
     337A      1.606851   338A      1.613712   339A      1.622767  
     340A      1.624401   341A      1.633237   342A      1.641610  
     343A      1.642752   344A      1.649836   345A      1.656898  
     346A      1.661773   347A      1.672799   348A      1.676761  
     349A      1.690678   350A      1.695766   351A      1.700053  
     352A      1.707137   353A      1.711771   354A      1.713479  
     355A      1.721382   356A      1.724248   357A      1.733670  
     358A      1.744715   359A      1.747455   360A      1.755429  
     361A      1.758917   362A      1.772185   363A      1.775731  
     364A      1.780554   365A      1.784823   366A      1.785451  
     367A      1.791866   368A      1.804662   369A      1.808944  
     370A      1.812814   371A      1.824131   372A      1.825901  
     373A      1.830251   374A      1.836392   375A      1.844414  
     376A      1.851526   377A      1.858397   378A      1.860604  
     379A      1.866636   380A      1.871542   381A      1.877119  
     382A      1.888374   383A      1.891838   384A      1.897490  
     385A      1.903871   386A      1.914414   387A      1.922853  
     388A      1.932800   389A      1.937740   390A      1.940121  
     391A      1.949923   392A      1.955059   393A      1.962056  
     394A      1.966376   395A      1.971110   396A      1.981660  
     397A      1.989266   398A      1.994428   399A      1.999470  
     400A      2.009744   401A      2.010364   402A      2.021950  
     403A      2.026743   404A      2.036705   405A      2.038561  
     406A      2.043997   407A      2.050159   408A      2.054670  
     409A      2.067489   410A      2.070618   411A      2.077929  
     412A      2.090143   413A      2.091432   414A      2.101271  
     415A      2.106450   416A      2.115988   417A      2.119612  
     418A      2.131403   419A      2.138748   420A      2.149620  
     421A      2.153346   422A      2.157829   423A      2.161965  
     424A      2.171167   425A      2.193504   426A      2.200174  
     427A      2.202793   428A      2.206695   429A      2.224497  
     430A      2.236469   431A      2.249480   432A      2.252233  
     433A      2.263265   434A      2.273394   435A      2.280630  
     436A      2.287982   437A      2.302113   438A      2.305889  
     439A      2.312218   440A      2.324763   441A      2.333205  
     442A      2.348118   443A      2.355118   444A      2.357453  
     445A      2.363159   446A      2.368283   447A      2.384443  
     448A      2.393528   449A      2.398111   450A      2.403709  
     451A      2.416461   452A      2.421786   453A      2.428224  
     454A      2.434005   455A      2.445962   456A      2.463848  
     457A      2.470371   458A      2.481128   459A      2.485598  
     460A      2.496943   461A      2.503730   462A      2.514759  
     463A      2.527086   464A      2.544920   465A      2.558954  
     466A      2.563234   467A      2.574580   468A      2.603192  
     469A      2.608211   470A      2.619411   471A      2.622703  
     472A      2.626907   473A      2.642827   474A      2.664115  
     475A      2.680660   476A      2.697542   477A      2.709862  
     478A      2.726079   479A      2.738361   480A      2.754518  
     481A      2.769865   482A      2.785401   483A      2.794465  
     484A      2.843564   485A      2.897218   486A      2.952619  
     487A      3.010328   488A      3.018821   489A      3.077944  
     490A      3.155585   491A      3.197211   492A      3.229521  
     493A      3.298537   494A      3.316375   495A      3.377063  
     496A      3.424469   497A      3.429539   498A      3.441271  
     499A      3.456918   500A      3.485874   501A      3.497654  
     502A      3.504442   503A      3.506758   504A      3.516478  
     505A      3.533492   506A      3.565208   507A      3.571261  
     508A      3.580667   509A      3.583539   510A      3.600141  
     511A      3.614298   512A      3.622656   513A      3.639542  
     514A      3.641481   515A      3.659515   516A      3.678620  
     517A      3.682987   518A      3.689812   519A      3.699840  
     520A      3.716075   521A      3.720378   522A      3.727368  
     523A      3.730446   524A      3.736553   525A      3.747561  
     526A      3.760609   527A      3.767951   528A      3.780438  
     529A      3.785165   530A      3.798710   531A      3.804723  
     532A      3.813097   533A      3.816086   534A      3.829110  
     535A      3.832129   536A      3.839252   537A      3.851180  
     538A      3.866494   539A      3.867662   540A      3.882056  
     541A      3.885844   542A      3.892973   543A      3.900031  
     544A      3.919061   545A      3.922865   546A      3.927667  
     547A      3.930766   548A      3.946669   549A      3.952464  
     550A      3.964201   551A      3.968624   552A      3.972223  
     553A      3.983859   554A      3.995566   555A      4.008917  
     556A      4.011570   557A      4.017267   558A      4.025275  
     559A      4.030223   560A      4.039245   561A      4.040763  
     562A      4.047421   563A      4.057657   564A      4.065006  
     565A      4.066580   566A      4.070263   567A      4.082212  
     568A      4.088066   569A      4.092686   570A      4.100758  
     571A      4.111836   572A      4.119453   573A      4.129229  
     574A      4.138282   575A      4.142792   576A      4.152050  
     577A      4.161759   578A      4.168302   579A      4.178282  
     580A      4.185378   581A      4.202864   582A      4.204484  
     583A      4.213694   584A      4.216808   585A      4.228007  
     586A      4.239653   587A      4.250197   588A      4.257736  
     589A      4.264220   590A      4.282309   591A      4.285898  
     592A      4.298820   593A      4.300956   594A      4.316790  
     595A      4.331223   596A      4.338901   597A      4.349877  
     598A      4.356515   599A      4.369583   600A      4.379358  
     601A      4.385401   602A      4.395896   603A      4.413979  
     604A      4.424900   605A      4.440558   606A      4.445371  
     607A      4.454491   608A      4.464025   609A      4.481872  
     610A      4.496910   611A      4.512233   612A      4.517339  
     613A      4.530717   614A      4.542492   615A      4.554750  
     616A      4.561508   617A      4.578355   618A      4.589801  
     619A      4.599126   620A      4.622371   621A      4.634395  
     622A      4.637120   623A      4.656231   624A      4.675035  
     625A      4.687582   626A      4.700219   627A      4.705819  
     628A      4.714783   629A      4.723355   630A      4.741013  
     631A      4.745897   632A      4.753934   633A      4.765506  
     634A      4.780817   635A      4.788162   636A      4.797417  
     637A      4.807232   638A      4.820149   639A      4.829580  
     640A      4.835177   641A      4.851922   642A      4.867211  
     643A      4.868402   644A      4.889884   645A      4.908863  
     646A      4.913279   647A      4.920450   648A      4.934211  
     649A      4.944622   650A      4.950792   651A      4.960746  
     652A      4.975613   653A      4.984339   654A      4.988128  
     655A      5.007531   656A      5.016598   657A      5.019380  
     658A      5.038993   659A      5.046430   660A      5.073219  
     661A      5.085636   662A      5.101032   663A      5.107174  
     664A      5.127575   665A      5.140118   666A      5.142494  
     667A      5.158379   668A      5.172167   669A      5.190312  
     670A      5.194083   671A      5.211250   672A      5.217795  
     673A      5.224386   674A      5.229458   675A      5.235934  
     676A      5.268919   677A      5.277157   678A      5.284049  
     679A      5.288581   680A      5.306357   681A      5.311631  
     682A      5.319758   683A      5.326432   684A      5.349747  
     685A      5.359161   686A      5.366788   687A      5.371600  
     688A      5.391119   689A      5.398548   690A      5.405979  
     691A      5.417140   692A      5.429216   693A      5.437166  
     694A      5.443877   695A      5.449980   696A      5.465017  
     697A      5.474653   698A      5.484245   699A      5.484978  
     700A      5.519535   701A      5.529095   702A      5.547596  
     703A      5.551987   704A      5.570806   705A      5.587353  
     706A      5.589374   707A      5.610279   708A      5.625271  
     709A      5.635820   710A      5.639138   711A      5.652476  
     712A      5.666274   713A      5.674450   714A      5.690165  
     715A      5.697182   716A      5.704123   717A      5.714437  
     718A      5.715652   719A      5.740118   720A      5.750713  
     721A      5.764283   722A      5.773860   723A      5.787141  
     724A      5.818403   725A      5.824073   726A      5.848953  
     727A      5.861667   728A      5.876461   729A      5.908042  
     730A      5.917489   731A      5.932341   732A      5.964310  
     733A      5.976971   734A      5.997613   735A      6.030900  
     736A      6.054072   737A      6.056911   738A      6.073383  
     739A      6.108401   740A      6.116469   741A      6.137223  
     742A      6.163095   743A      6.177455   744A      6.191365  
     745A      6.212134   746A      6.243320   747A      6.250953  
     748A      6.273433   749A      6.286706   750A      6.313801  
     751A      6.326688   752A      6.348040   753A      6.354631  
     754A      6.369908   755A      6.375855   756A      6.406268  
     757A      6.411112   758A      6.475165   759A      6.616068  
     760A      6.628274   761A      6.665935   762A      6.704624  
     763A      6.731557   764A      6.769750   765A      6.810062  
     766A      6.852736   767A      6.920025   768A      6.962482  
     769A      6.968708   770A      7.025603   771A      7.047646  
     772A      7.060591   773A      7.097536   774A      7.169351  
     775A     17.953651   776A     18.000637   777A     18.301404  
     778A     18.520468   779A     18.772865   780A     19.339388  
     781A     19.661441   782A     19.969511  

    Final Occupation by Irrep:
              A 
    DOCC [    33 ]

  Energy converged.

  @DF-RHF Final Energy:  -313.53683624375515

   => Energetics <=

    Nuclear Repulsion Energy =            398.9797532639439623
    One-Electron Energy =               -1213.1089639172989791
    Two-Electron Energy =                 500.5923744095997563
    DFT Exchange-Correlation Energy =       0.0000000000000000
    Empirical Dispersion Energy =           0.0000000000000000
    PCM Polarization Energy =               0.0000000000000000
    EFP Energy =                            0.0000000000000000
    Total Energy =                       -313.5368362437552605


  Saving occupied orbitals to File 180.

*** tstop() called on wr33 at Tue Sep 20 23:12:23 2016
Module time:
	user time   =     779.06 seconds =      12.98 minutes
	system time =       9.76 seconds =       0.16 minutes
	total time  =         74 seconds =       1.23 minutes
Total time:
	user time   =     779.06 seconds =      12.98 minutes
	system time =       9.76 seconds =       0.16 minutes
	total time  =         74 seconds =       1.23 minutes


Properties will be evaluated at   0.000000,   0.000000,   0.000000 Bohr

Properties computed using the SCF density matrix

  Nuclear Dipole Moment: (a.u.)
     X:     0.2197      Y:     0.2925      Z:    -0.3913

  Electronic Dipole Moment: (a.u.)
     X:    -0.2362      Y:    -0.3073      Z:     0.4131

  Dipole Moment: (a.u.)
     X:    -0.0165      Y:    -0.0148      Z:     0.0218     Total:     0.0311

  Dipole Moment: (Debye)
     X:    -0.0420      Y:    -0.0377      Z:     0.0554     Total:     0.0791


  //>>>>>>>>>>>>>>>>>>>>>>>>>>>>>>>>>>>//
  //               DFMP2               //
  //<<<<<<<<<<<<<<<<<<<<<<<<<<<<<<<<<<<//


*** tstart() called on wr33
*** at Tue Sep 20 23:12:24 2016


*** tstop() called on wr33 at Tue Sep 20 23:12:24 2016
Module time:
	user time   =       4.25 seconds =       0.07 minutes
	system time =       0.15 seconds =       0.00 minutes
	total time  =          0 seconds =       0.00 minutes
Total time:
	user time   =     784.12 seconds =      13.07 minutes
	system time =       9.94 seconds =       0.17 minutes
	total time  =         75 seconds =       1.25 minutes
	 --------------------------------------------------------
	                          DF-MP2                         
	      2nd-Order Density-Fitted Moller-Plesset Theory     
	              RMP2 Wavefunction,  12 Threads             
	                                                         
	        Rob Parrish, Justin Turney, Andy Simmonett,      
	           Ed Hohenstein, and C. David Sherrill          
	 --------------------------------------------------------

   => Auxiliary Basis Set <=

  Basis Set: 
    Number of shells: 476
    Number of basis function: 1676
    Number of Cartesian functions: 2078
    Spherical Harmonics?: true
    Max angular momentum: 4

	 --------------------------------------------------------
	                 NBF =   782, NAUX =  1676
	 --------------------------------------------------------
	   CLASS    FOCC     OCC    AOCC    AVIR     VIR    FVIR
	   PAIRS       8      33      25     749     749       0
	 --------------------------------------------------------

DGAS Warning! /src/lib/libfock/apps.cc:80 is not currently checking restricted

         ------------------------------------------------------------
                                     CPHF                           
                                  Rob Parrish                       
         ------------------------------------------------------------

  ==> Geometry <==

    Molecular point group: c1
    Full point group: C1

    Geometry (in Angstrom), charge = 0, multiplicity = 1:

       Center              X                  Y                   Z               Mass       
    ------------   -----------------  -----------------  -----------------  -----------------
           C         -2.939228815032     1.040926423366    -0.071138167857    12.000000000000
           H         -2.132482663991     1.583303501498     0.422050706430     1.007825032070
           H         -3.880703726444     1.479403034446     0.259627620788     1.007825032070
           H         -2.849440525688     1.210108351368    -1.145272730707     1.007825032070
           C          3.228852786025    -0.682343198548    -0.428389811258    12.000000000000
           H          2.491871993088    -1.384016925641    -0.819148857244     1.007825032070
           H          4.058297786130    -1.264575283997    -0.027721158823     1.007825032070
           H          3.605620395880    -0.095060489829    -1.267635815895     1.007825032070
           C         -2.889057139859    -0.447929454017     0.252422400678    12.000000000000
           H         -3.760339260195    -0.940472100132    -0.185694009806     1.007825032070
           H         -2.969221009882    -0.583392026606     1.334609436832     1.007825032070
           C          2.626394420135     0.225233828968     0.638141709440    12.000000000000
           H          2.223813106214    -0.381631922608     1.451975015507     1.007825032070
           H          3.415557206435     0.838980909925     1.077959696378     1.007825032070
           C         -1.623792666686    -1.154840287164    -0.233218279583    12.000000000000
           H         -1.577204082232    -1.106184930140    -1.325956441090     1.007825032070
           H         -1.707299293370    -2.213024029671     0.023224906428     1.007825032070
           C         -0.325803091051    -0.579822539778     0.352286715921    12.000000000000
           H          0.369019567779    -1.394111379592     0.568336691404     1.007825032070
           H         -0.541242360706    -0.102787002866     1.315358429773     1.007825032070
           C          0.365714738777     0.423923815807    -0.567704335565    12.000000000000
           H          0.706582898823    -0.100844919302    -1.464612425610     1.007825032070
           H         -0.358080880821     1.165103479601    -0.911543354756     1.007825032070
           C          1.537235095520     1.148649733371     0.092655415991    12.000000000000
           H          1.987138381844     1.833852877507    -0.631937061772     1.007825032070
           H          1.152494486376     1.767327747149     0.908977759814     1.007825032070

  Nuclear repulsion =  398.979753263943962
  Reference energy  = -313.536836243755147

  ==> Basis Set <==

  Basis Set: AUG-CC-PVTZ
    Number of shells: 274
    Number of basis function: 782
    Number of Cartesian functions: 890
    Spherical Harmonics?: true
    Max angular momentum: 3

  ==> CGRSolver (by Rob Parrish) <==

   Number of roots    =         1
   Preconditioning    =    JACOBI
   Convergence cutoff =     1E-06
   Maximum iterations =       100

  ==> CPHFRHamiltonian (by Rob Parrish) <== 

  ==> DFJK: Density-Fitted J/K Matrices <==

    J tasked:                  Yes
    K tasked:                  Yes
    wK tasked:                  No
    OpenMP threads:             12
    Integrals threads:          12
    Memory (MB):             42915
    Algorithm:                Core
    Integral Cache:           NONE
    Schwarz Cutoff:          1E-12
    Fitting Condition:       1E-12

   => Auxiliary Basis Set <=

  Basis Set: 
    Number of shells: 492
    Number of basis function: 1660
    Number of Cartesian functions: 2038
    Spherical Harmonics?: true
    Max angular momentum: 4

  ==> CPHF Iterations <==

  => Iterations <=

             Iter  Converged  Remaining    Residual
  CGR           1          0          1   9.281E-02
  CGR           2          0          1   1.305E-02
  CGR           3          0          1   3.407E-03
  CGR           4          0          1   8.373E-04
  CGR           5          0          1   2.056E-04
  CGR           6          0          1   4.283E-05
  CGR           7          0          1   1.297E-05
  CGR           8          0          1   2.939E-06
  CGR           9          1          0   6.859E-07

    CGRSolver converged.

  ==> DFCorrGrad: Density-Fitted Correlated Gradients <==

    OpenMP threads:             12
    Integrals threads:          12
    Memory (MB):             42915
    Schwarz Cutoff:          0E+00
    Fitting Condition:       1E-12

   => Auxiliary Basis Set <=

  Basis Set: 
    Number of shells: 492
    Number of basis function: 1660
    Number of Cartesian functions: 2038
    Spherical Harmonics?: true
    Max angular momentum: 4

	-----------------------------------------------------------
	 ==================> DF-MP2 Energies <==================== 
	-----------------------------------------------------------
	 Reference Energy          =    -313.5368362437551468 [Eh]
	 Singles Energy            =      -0.0000000000000007 [Eh]
	 Same-Spin Energy          =      -0.3170461044447049 [Eh]
	 Opposite-Spin Energy      =      -1.1265729393905000 [Eh]
	 Correlation Energy        =      -1.4436190438352055 [Eh]
	 Total Energy              =    -314.9804552875903596 [Eh]
	-----------------------------------------------------------
	 ================> DF-SCS-MP2 Energies <================== 
	-----------------------------------------------------------
	 SCS Same-Spin Scale       =       0.3333333333333333 [-]
	 SCS Opposite-Spin Scale   =       1.2000000000000000 [-]
	 SCS Same-Spin Energy      =      -0.1056820348149016 [Eh]
	 SCS Opposite-Spin Energy  =      -1.3518875272686000 [Eh]
	 SCS Correlation Energy    =      -1.4575695620835023 [Eh]
	 SCS Total Energy          =    -314.9944058058386531 [Eh]
	-----------------------------------------------------------


  -Total Gradient:
     Atom            X                  Y                   Z
    ------   -----------------  -----------------  -----------------
       1       -0.000000076558    -0.000000670027     0.000000113621
       2        0.000000851743     0.000000551177     0.000000298310
       3       -0.000000562149     0.000000072974     0.000000283999
       4        0.000000028234     0.000000056172    -0.000000689281
       5       -0.000000190818     0.000000719565     0.000000551538
       6       -0.000000907493    -0.000000562168    -0.000000369239
       7        0.000000496101    -0.000000336250     0.000000384412
       8        0.000000333535     0.000000483808    -0.000000694933
       9        0.000000401565     0.000000272835    -0.000000849521
      10       -0.000000473358    -0.000000237380    -0.000000396890
      11        0.000000162001    -0.000000142881     0.000000759494
      12        0.000000094267     0.000000026091    -0.000001341515
      13       -0.000000642380    -0.000000755195     0.000000922529
      14        0.000000590604     0.000000430308     0.000000006143
      15       -0.000000400036    -0.000000466230     0.000000515242
      16       -0.000000266988    -0.000000012463    -0.000000945695
      17       -0.000000354458    -0.000000783241     0.000000304458
      18       -0.000001173331     0.000000857881    -0.000000768179
      19        0.000000865193    -0.000000899748     0.000000122750
      20       -0.000000624247     0.000000708906     0.000001689057
      21        0.000001089482     0.000000147656     0.000001382637
      22        0.000000618213    -0.000000817010    -0.000001313579
      23       -0.000000975160     0.000000859333    -0.000000336208
      24        0.000000689586    -0.000001334113    -0.000000044946
      25        0.000001128546     0.000001097107    -0.000000930180
      26       -0.000000702096     0.000000732890     0.000001345975


			-----------------------------------------
			 OPTKING 2.0: for geometry optimizations 
			  - R.A. King,  Bethel University        
			-----------------------------------------

	Internal coordinates to be generated automatically.
	Detected frag 1 with atoms:  1 2 3 4 5 6 7 8 9 10 11 12 13 14 15 16 17 18 19 20
	 21 22 23 24 25 26
	---Fragment 1 Bond Connectivity---
	 1 : 2 3 4 9
	 2 : 1
	 3 : 1
	 4 : 1
	 5 : 6 7 8 12
	 6 : 5
	 7 : 5
	 8 : 5
	 9 : 1 10 11 15
	 10 : 9
	 11 : 9
	 12 : 5 13 14 24
	 13 : 12
	 14 : 12
	 15 : 9 16 17 18
	 16 : 15
	 17 : 15
	 18 : 15 19 20 21
	 19 : 18
	 20 : 18
	 21 : 18 22 23 24
	 22 : 21
	 23 : 21
	 24 : 12 21 25 26
	 25 : 24
	 26 : 24

	---Fragment 1 Geometry and Gradient---
	 C          -5.5543375023        1.9670658646       -0.1344316548
	 H          -4.0298082181        2.9920100031        0.7975602493
	 H          -7.3334672458        2.7956665753        0.4906250998
	 H          -5.3846622255        2.2867733752       -2.1642518085
	 C           6.1016474890       -1.2894417739       -0.8095394214
	 H           4.7089556251       -2.6154129527       -1.5479670023
	 H           7.6690713815       -2.3897009612       -0.0523853983
	 H           6.8136350874       -0.1796382918       -2.3954845283
	 C          -5.4595267766       -0.8464639949        0.4770092071
	 H          -7.1060113685       -1.7772347049       -0.3509108231
	 H          -5.6110145367       -1.1024511584        2.5220463300
	 C           4.9631661710        0.4256302526        1.2059130648
	 H           4.2023977415       -0.7211798173        2.7438351311
	 H           6.4544677114        1.5854441505        2.0370486084
	 C          -3.0685234366       -2.1823318700       -0.4407186776
	 H          -2.9804837711       -2.0903865703       -2.5056945378
	 H          -3.2263280913       -4.1820093416        0.0438887126
	 C          -0.6156786153       -1.0957058059        0.6657254133
	 H           0.6973459208       -2.6344887062        1.0740006980
	 H          -1.0227998333       -0.1942392854        2.4856671989
	 C           0.6911006990        0.8010999131       -1.0728057187
	 H           1.3352481690       -0.1905692794       -2.7677163752
	 H          -0.6766747982        2.2017264929       -1.7225672987
	 C           2.9049533324        2.1706334187        0.1750933610
	 H           3.7551473298        3.4654797065       -1.1941879800
	 H           2.1778989489        3.3397654292        1.7177190269
	            -0.0000000766       -0.0000006700        0.0000001136
	             0.0000008517        0.0000005512        0.0000002983
	            -0.0000005621        0.0000000730        0.0000002840
	             0.0000000282        0.0000000562       -0.0000006893
	            -0.0000001908        0.0000007196        0.0000005515
	            -0.0000009075       -0.0000005622       -0.0000003692
	             0.0000004961       -0.0000003363        0.0000003844
	             0.0000003335        0.0000004838       -0.0000006949
	             0.0000004016        0.0000002728       -0.0000008495
	            -0.0000004734       -0.0000002374       -0.0000003969
	             0.0000001620       -0.0000001429        0.0000007595
	             0.0000000943        0.0000000261       -0.0000013415
	            -0.0000006424       -0.0000007552        0.0000009225
	             0.0000005906        0.0000004303        0.0000000061
	            -0.0000004000       -0.0000004662        0.0000005152
	            -0.0000002670       -0.0000000125       -0.0000009457
	            -0.0000003545       -0.0000007832        0.0000003045
	            -0.0000011733        0.0000008579       -0.0000007682
	             0.0000008652       -0.0000008997        0.0000001228
	            -0.0000006242        0.0000007089        0.0000016891
	             0.0000010895        0.0000001477        0.0000013826
	             0.0000006182       -0.0000008170       -0.0000013136
	            -0.0000009752        0.0000008593       -0.0000003362
	             0.0000006896       -0.0000013341       -0.0000000449
	             0.0000011285        0.0000010971       -0.0000009302
	            -0.0000007021        0.0000007329        0.0000013460

	Previous optimization step data not found.  Starting new optimization.

	---Fragment 1 Intrafragment Coordinates---
	 - Coordinate -           - BOHR/RAD -       - ANG/DEG -
	 R(1,2)           =         2.059929	       1.090068
	 R(1,3)           =         2.059752	       1.089974
	 R(1,4)           =         2.061837	       1.091077
	 R(1,9)           =         2.880764	       1.524434
	 R(5,6)           =         2.059870	       1.090036
	 R(5,7)           =         2.059289	       1.089729
	 R(5,8)           =         2.062477	       1.091416
	 R(5,12)          =         2.880913	       1.524514
	 R(9,10)          =         2.064630	       1.092555
	 R(9,11)          =         2.066556	       1.093574
	 R(9,15)          =         2.888540	       1.528550
	 R(12,13)         =         2.063770	       1.092100
	 R(12,14)         =         2.063961	       1.092201
	 R(12,24)         =         2.888575	       1.528568
	 R(15,16)         =         2.068896	       1.094813
	 R(15,17)         =         2.063603	       1.092012
	 R(15,18)         =         2.901969	       1.535656
	 R(18,19)         =         2.063631	       1.092027
	 R(18,20)         =         2.071371	       1.096122
	 R(18,21)         =         2.885833	       1.527117
	 R(21,22)         =         2.066653	       1.093626
	 R(21,23)         =         2.062706	       1.091537
	 R(21,24)         =         2.886870	       1.527666
	 R(24,25)         =         2.067459	       1.094052
	 R(24,26)         =         2.067649	       1.094153
	 B(1,9,10)        =         1.905974	     109.204272
	 B(1,9,11)        =         1.905625	     109.184260
	 B(1,9,15)        =         1.994881	     114.298237
	 B(2,1,3)         =         1.877376	     107.565717
	 B(2,1,4)         =         1.883211	     107.900024
	 B(2,1,9)         =         1.945034	     111.442218
	 B(3,1,4)         =         1.883312	     107.905852
	 B(3,1,9)         =         1.935755	     110.910613
	 B(4,1,9)         =         1.936585	     110.958147
	 B(5,12,13)       =         1.913671	     109.645285
	 B(5,12,14)       =         1.907857	     109.312156
	 B(5,12,24)       =         1.973125	     113.051728
	 B(6,5,7)         =         1.878102	     107.607325
	 B(6,5,8)         =         1.879813	     107.705328
	 B(6,5,12)        =         1.946389	     111.519896
	 B(7,5,8)         =         1.883327	     107.906716
	 B(7,5,12)        =         1.940827	     111.201172
	 B(8,5,12)        =         1.932674	     110.734079
	 B(9,15,16)       =         1.908989	     109.377007
	 B(9,15,17)       =         1.886238	     108.073464
	 B(9,15,18)       =         1.988149	     113.912533
	 B(10,9,11)       =         1.857221	     106.410927
	 B(10,9,15)       =         1.900981	     108.918180
	 B(11,9,15)       =         1.894201	     108.529697
	 B(12,24,21)      =         1.997743	     114.462225
	 B(12,24,25)      =         1.898306	     108.764922
	 B(12,24,26)      =         1.902750	     109.019561
	 B(13,12,14)      =         1.853057	     106.172348
	 B(13,12,24)      =         1.916612	     109.813766
	 B(14,12,24)      =         1.895548	     108.606921
	 B(15,18,19)      =         1.911359	     109.512828
	 B(15,18,20)      =         1.909033	     109.379561
	 B(15,18,21)      =         1.981404	     113.526074
	 B(16,15,17)      =         1.855330	     106.302571
	 B(16,15,18)      =         1.904921	     109.143921
	 B(17,15,18)      =         1.915528	     109.751658
	 B(18,21,22)      =         1.896335	     108.652017
	 B(18,21,23)      =         1.913264	     109.621960
	 B(18,21,24)      =         1.980851	     113.494418
	 B(19,18,20)      =         1.850161	     106.006408
	 B(19,18,21)      =         1.897774	     108.734464
	 B(20,18,21)      =         1.909496	     109.406090
	 B(21,24,25)      =         1.903059	     109.037221
	 B(21,24,26)      =         1.897680	     108.729044
	 B(22,21,23)      =         1.848513	     105.912011
	 B(22,21,24)      =         1.921041	     110.067541
	 B(23,21,24)      =         1.899214	     108.816969
	 B(25,24,26)      =         1.859380	     106.534622
	 D(1,9,15,16)     =        -1.099506	     -62.997076
	 D(1,9,15,17)     =        -3.112342	    -178.324063
	 D(1,9,15,18)     =         1.037243	      59.429635
	 D(2,1,9,10)      =         3.054924	     175.034246
	 D(2,1,9,11)      =         1.030805	      59.060804
	 D(2,1,9,15)      =        -1.094198	     -62.692915
	 D(3,1,9,10)      =         0.963805	      55.221931
	 D(3,1,9,11)      =        -1.060314	     -60.751511
	 D(3,1,9,15)      =         3.097868	     177.494769
	 D(4,1,9,10)      =        -1.129197	     -64.698244
	 D(4,1,9,11)      =         3.129870	     179.328314
	 D(4,1,9,15)      =         1.004866	      57.574595
	 D(5,12,24,21)    =         1.012170	      57.993094
	 D(5,12,24,25)    =        -1.120800	     -64.217100
	 D(5,12,24,26)    =         3.141505	     179.995005
	 D(6,5,12,13)     =         1.013854	      58.089553
	 D(6,5,12,14)     =         3.038547	     174.095944
	 D(6,5,12,24)     =        -1.131012	     -64.802194
	 D(7,5,12,13)     =        -1.082525	     -62.024093
	 D(7,5,12,14)     =         0.942169	      53.982298
	 D(7,5,12,24)     =         3.055795	     175.084161
	 D(8,5,12,13)     =         3.106882	     178.011225
	 D(8,5,12,14)     =        -1.151610	     -65.982384
	 D(8,5,12,24)     =         0.962016	      55.119479
	 D(9,15,18,19)    =         2.467653	     141.386111
	 D(9,15,18,20)    =         0.447075	      25.615503
	 D(9,15,18,21)    =        -1.690938	     -96.883595
	 D(10,9,15,16)    =         1.037281	      59.431823
	 D(10,9,15,17)    =        -0.975555	     -55.895163
	 D(10,9,15,18)    =        -3.109155	    -178.141465
	 D(11,9,15,16)    =         3.052415	     174.890503
	 D(11,9,15,17)    =         1.039579	      59.563516
	 D(11,9,15,18)    =        -1.094021	     -62.682786
	 D(12,24,21,18)   =         0.995080	      57.013897
	 D(12,24,21,22)   =        -1.134396	     -64.996092
	 D(12,24,21,23)   =         3.130349	     179.355784
	 D(13,12,24,21)   =        -1.131062	     -64.805056
	 D(13,12,24,25)   =         3.019153	     172.984750
	 D(13,12,24,26)   =         0.998273	      57.196856
	 D(14,12,24,21)   =         3.132751	     179.493415
	 D(14,12,24,25)   =         0.999781	      57.283221
	 D(14,12,24,26)   =        -1.021099	     -58.504673
	 D(15,18,21,22)   =        -1.147834	     -65.766032
	 D(15,18,21,23)   =         0.864731	      49.545448
	 D(15,18,21,24)   =         2.992197	     171.440280
	 D(16,15,18,19)   =        -1.676551	     -96.059288
	 D(16,15,18,20)   =         2.586056	     148.170104
	 D(16,15,18,21)   =         0.448044	      25.671006
	 D(17,15,18,19)   =         0.350250	      20.067852
	 D(17,15,18,20)   =        -1.670328	     -95.702757
	 D(17,15,18,21)   =         2.474845	     141.798146
	 D(18,21,24,25)   =         3.125460	     179.075669
	 D(18,21,24,26)   =        -1.137020	     -65.146461
	 D(19,18,21,22)   =         0.984315	      56.397080
	 D(19,18,21,23)   =         2.996880	     171.708561
	 D(19,18,21,24)   =        -1.158839	     -66.396608
	 D(20,18,21,22)   =         2.997595	     171.749534
	 D(20,18,21,23)   =        -1.273025	     -72.938985
	 D(20,18,21,24)   =         0.854441	      48.955846
	 D(22,21,24,25)   =         0.995984	      57.065680
	 D(22,21,24,26)   =         3.016689	     172.843550
	 D(23,21,24,25)   =        -1.022457	     -58.582444
	 D(23,21,24,26)   =         0.998248	      57.195426
	 R(1,21)          =         6.422268	       3.398518
	 R(5,18)          =         6.880146	       3.640816

	Current energy   :      -314.9804552876

	Generating empirical Hessian (Schlegel '84) for each fragment.
	Taking RFO optimization step.
	Going to follow RFO solution 1.
	Using RFO vector 1.
	Norm of target step-size    0.00075
	Projected energy change by RFO approximation:        -0.0000000013

	Back-transformation to cartesian coordinates...
	Could not converge backtransformation.
	Using first guess instead.

	--- Internal Coordinate Step in ANG or DEG, aJ/ANG or AJ/DEG ---
	 ---------------------------------------------------------------------------
	   Coordinate                Previous        Force       Change         New 
	   ----------                --------       ------       ------       ------
	    1 R(1,2)          =      1.090068    -0.000008    -0.000002     1.090066
	    2 R(1,3)          =      1.089974    -0.000005    -0.000001     1.089973
	    3 R(1,4)          =      1.091077    -0.000006    -0.000001     1.091076
	    4 R(1,9)          =      1.524434     0.000001    -0.000000     1.524434
	    5 R(5,6)          =      1.090036    -0.000009    -0.000002     1.090035
	    6 R(5,7)          =      1.089729    -0.000006    -0.000001     1.089728
	    7 R(5,8)          =      1.091416    -0.000008    -0.000001     1.091415
	    8 R(5,12)         =      1.524514     0.000001     0.000001     1.524514
	    9 R(9,10)         =      1.092555    -0.000005    -0.000001     1.092554
	   10 R(9,11)         =      1.093574    -0.000006    -0.000001     1.093573
	   11 R(9,15)         =      1.528550     0.000005     0.000000     1.528550
	   12 R(12,13)        =      1.092100    -0.000011    -0.000002     1.092098
	   13 R(12,14)        =      1.092201    -0.000006    -0.000001     1.092200
	   14 R(12,24)        =      1.528568     0.000003     0.000001     1.528569
	   15 R(15,16)        =      1.094813    -0.000008    -0.000001     1.094811
	   16 R(15,17)        =      1.092012    -0.000007    -0.000001     1.092010
	   17 R(15,18)        =      1.535656    -0.000010    -0.000003     1.535653
	   18 R(18,19)        =      1.092027    -0.000010    -0.000002     1.092025
	   19 R(18,20)        =      1.096122    -0.000016    -0.000003     1.096119
	   20 R(18,21)        =      1.527117    -0.000013    -0.000003     1.527114
	   21 R(21,22)        =      1.093626    -0.000014    -0.000003     1.093623
	   22 R(21,23)        =      1.091537    -0.000011    -0.000002     1.091535
	   23 R(21,24)        =      1.527666    -0.000008    -0.000001     1.527664
	   24 R(24,25)        =      1.094052    -0.000015    -0.000003     1.094050
	   25 R(24,26)        =      1.094153    -0.000014    -0.000003     1.094150
	   26 B(1,9,10)       =    109.204272    -0.000000     0.000063   109.204336
	   27 B(1,9,11)       =    109.184260    -0.000000    -0.000020   109.184239
	   28 B(1,9,15)       =    114.298237     0.000000    -0.000153   114.298084
	   29 B(2,1,3)        =    107.565717    -0.000000    -0.000068   107.565648
	   30 B(2,1,4)        =    107.900024     0.000000     0.000015   107.900039
	   31 B(2,1,9)        =    111.442218    -0.000000    -0.000080   111.442139
	   32 B(3,1,4)        =    107.905852    -0.000000    -0.000025   107.905827
	   33 B(3,1,9)        =    110.910613     0.000000     0.000109   110.910722
	   34 B(4,1,9)        =    110.958147     0.000000     0.000045   110.958191
	   35 B(5,12,13)      =    109.645285    -0.000000     0.000009   109.645294
	   36 B(5,12,14)      =    109.312156    -0.000000    -0.000082   109.312073
	   37 B(5,12,24)      =    113.051728     0.000000     0.000293   113.052021
	   38 B(6,5,7)        =    107.607325    -0.000000    -0.000071   107.607254
	   39 B(6,5,8)        =    107.705328    -0.000000    -0.000009   107.705319
	   40 B(6,5,12)       =    111.519896     0.000000     0.000095   111.519991
	   41 B(7,5,8)        =    107.906716    -0.000000    -0.000038   107.906678
	   42 B(7,5,12)       =    111.201172     0.000000     0.000045   111.201216
	   43 B(8,5,12)       =    110.734079    -0.000000    -0.000028   110.734052
	   44 B(9,15,16)      =    109.377007     0.000000     0.000049   109.377056
	   45 B(9,15,17)      =    108.073464    -0.000000     0.000245   108.073709
	   46 B(9,15,18)      =    113.912533     0.000000    -0.000102   113.912431
	   47 B(10,9,11)      =    106.410927    -0.000000    -0.000060   106.410867
	   48 B(10,9,15)      =    108.918180    -0.000000     0.000005   108.918185
	   49 B(11,9,15)      =    108.529697     0.000000     0.000171   108.529868
	   50 B(12,24,21)     =    114.462225     0.000000     0.000464   114.462690
	   51 B(12,24,25)     =    108.764922     0.000000     0.000238   108.765160
	   52 B(12,24,26)     =    109.019561    -0.000000    -0.000248   109.019314
	   53 B(13,12,14)     =    106.172348    -0.000000    -0.000189   106.172160
	   54 B(13,12,24)     =    109.813766    -0.000000     0.000047   109.813812
	   55 B(14,12,24)     =    108.606921    -0.000000    -0.000111   108.606810
	   56 B(15,18,19)     =    109.512828     0.000000     0.000443   109.513271
	   57 B(15,18,20)     =    109.379561     0.000000    -0.000158   109.379403
	   58 B(15,18,21)     =    113.526074    -0.000000    -0.000430   113.525644
	   59 B(16,15,17)     =    106.302571     0.000000     0.000006   106.302577
	   60 B(16,15,18)     =    109.143921    -0.000000    -0.000234   109.143687
	   61 B(17,15,18)     =    109.751658    -0.000000     0.000049   109.751707
	   62 B(18,21,22)     =    108.652017    -0.000000     0.000057   108.652074
	   63 B(18,21,23)     =    109.621960     0.000000     0.000052   109.622011
	   64 B(18,21,24)     =    113.494418    -0.000000    -0.000128   113.494291
	   65 B(19,18,20)     =    106.006408    -0.000000     0.000036   106.006443
	   66 B(19,18,21)     =    108.734464     0.000000     0.000356   108.734819
	   67 B(20,18,21)     =    109.406090     0.000000    -0.000212   109.405878
	   68 B(21,24,25)     =    109.037221    -0.000000    -0.000164   109.037057
	   69 B(21,24,26)     =    108.729044    -0.000000    -0.000179   108.728865
	   70 B(22,21,23)     =    105.912011    -0.000000    -0.000025   105.911986
	   71 B(22,21,24)     =    110.067541     0.000000     0.000339   110.067880
	   72 B(23,21,24)     =    108.816969    -0.000000    -0.000286   108.816683
	   73 B(25,24,26)     =    106.534622     0.000000    -0.000154   106.534468
	   74 D(1,9,15,16)    =    -62.997076     0.000000    -0.002068   -62.999145
	   75 D(1,9,15,17)    =   -178.324063    -0.000000    -0.002234  -178.326296
	   76 D(1,9,15,18)    =     59.429635    -0.000000    -0.002407    59.427228
	   77 D(2,1,9,10)     =    175.034246    -0.000000    -0.001834   175.032413
	   78 D(2,1,9,11)     =     59.060804     0.000000    -0.001786    59.059018
	   79 D(2,1,9,15)     =    -62.692915    -0.000000    -0.001886   -62.694802
	   80 D(3,1,9,10)     =     55.221931    -0.000000    -0.001768    55.220163
	   81 D(3,1,9,11)     =    -60.751511     0.000000    -0.001720   -60.753231
	   82 D(3,1,9,15)     =    177.494769    -0.000000    -0.001820   177.492949
	   83 D(4,1,9,10)     =    -64.698244    -0.000000    -0.001838   -64.700082
	   84 D(4,1,9,11)     =    179.328314     0.000000    -0.001790   179.326524
	   85 D(4,1,9,15)     =     57.574595    -0.000000    -0.001891    57.572704
	   86 D(5,12,24,21)   =     57.993094    -0.000000     0.004436    57.997530
	   87 D(5,12,24,25)   =    -64.217100    -0.000000     0.004151   -64.212949
	   88 D(5,12,24,26)   =    179.995005     0.000000     0.004995   180.000000
	   89 D(6,5,12,13)    =     58.089553     0.000000    -0.000890    58.088663
	   90 D(6,5,12,14)    =    174.095944    -0.000000    -0.001158   174.094785
	   91 D(6,5,12,24)    =    -64.802194    -0.000000    -0.001162   -64.803356
	   92 D(7,5,12,13)    =    -62.024093     0.000000    -0.000894   -62.024987
	   93 D(7,5,12,14)    =     53.982298    -0.000000    -0.001163    53.981136
	   94 D(7,5,12,24)    =    175.084161    -0.000000    -0.001167   175.082995
	   95 D(8,5,12,13)    =    178.011225     0.000000    -0.000857   178.010368
	   96 D(8,5,12,14)    =    -65.982384    -0.000000    -0.001126   -65.983510
	   97 D(8,5,12,24)    =     55.119479    -0.000000    -0.001130    55.118349
	   98 D(9,15,18,19)   =    141.386111    -0.000000    -0.003303   141.382808
	   99 D(9,15,18,20)   =     25.615503    -0.000000    -0.003506    25.611997
	  100 D(9,15,18,21)   =    -96.883595    -0.000000    -0.002816   -96.886411
	  101 D(10,9,15,16)   =     59.431823     0.000000    -0.002089    59.429734
	  102 D(10,9,15,17)   =    -55.895163    -0.000000    -0.002254   -55.897417
	  103 D(10,9,15,18)   =   -178.141465     0.000000    -0.002428  -178.143893
	  104 D(11,9,15,16)   =    174.890503     0.000000    -0.002065   174.888438
	  105 D(11,9,15,17)   =     59.563516    -0.000000    -0.002231    59.561286
	  106 D(11,9,15,18)   =    -62.682786    -0.000000    -0.002404   -62.685190
	  107 D(12,24,21,18)  =     57.013897    -0.000000    -0.005985    57.007912
	  108 D(12,24,21,22)  =    -64.996092    -0.000000    -0.006220   -65.002312
	  109 D(12,24,21,23)  =    179.355784    -0.000000    -0.006215   179.349569
	  110 D(13,12,24,21)  =    -64.805056    -0.000000     0.004184   -64.800872
	  111 D(13,12,24,25)  =    172.984750    -0.000000     0.003899   172.988649
	  112 D(13,12,24,26)  =     57.196856    -0.000000     0.004086    57.200942
	  113 D(14,12,24,21)  =    179.493415     0.000000     0.004446   179.497861
	  114 D(14,12,24,25)  =     57.283221     0.000000     0.004161    57.287382
	  115 D(14,12,24,26)  =    -58.504673     0.000000     0.004348   -58.500325
	  116 D(15,18,21,22)  =    -65.766032    -0.000000    -0.011785   -65.777817
	  117 D(15,18,21,23)  =     49.545448    -0.000000    -0.011755    49.533693
	  118 D(15,18,21,24)  =    171.440280    -0.000000    -0.012175   171.428105
	  119 D(16,15,18,19)  =    -96.059288     0.000000    -0.003486   -96.062774
	  120 D(16,15,18,20)  =    148.170104    -0.000000    -0.003689   148.166415
	  121 D(16,15,18,21)  =     25.671006     0.000000    -0.002999    25.668008
	  122 D(17,15,18,19)  =     20.067852    -0.000000    -0.003585    20.064267
	  123 D(17,15,18,20)  =    -95.702757    -0.000000    -0.003788   -95.706544
	  124 D(17,15,18,21)  =    141.798146    -0.000000    -0.003098   141.795048
	  125 D(18,21,24,25)  =    179.075669    -0.000000    -0.005479   179.070190
	  126 D(18,21,24,26)  =    -65.146461    -0.000000    -0.005849   -65.152310
	  127 D(19,18,21,22)  =     56.397080    -0.000000    -0.011248    56.385832
	  128 D(19,18,21,23)  =    171.708561    -0.000000    -0.011219   171.697342
	  129 D(19,18,21,24)  =    -66.396608    -0.000000    -0.011638   -66.408246
	  130 D(20,18,21,22)  =    171.749534    -0.000000    -0.011125   171.738409
	  131 D(20,18,21,23)  =    -72.938985    -0.000000    -0.011095   -72.950081
	  132 D(20,18,21,24)  =     48.955846    -0.000000    -0.011515    48.944331
	  133 D(22,21,24,25)  =     57.065680     0.000000    -0.005714    57.059966
	  134 D(22,21,24,26)  =    172.843550    -0.000000    -0.006084   172.837466
	  135 D(23,21,24,25)  =    -58.582444     0.000000    -0.005708   -58.588152
	  136 D(23,21,24,26)  =     57.195426    -0.000000    -0.006078    57.189347
	  137 R(1,21)         =      3.398518    -0.000001     0.000016     3.398534
	  138 R(5,18)         =      3.640816     0.000001    -0.000014     3.640802
	 ---------------------------------------------------------------------------

  ==> Convergence Check <==

  Measures of convergence in internal coordinates in au.
  Criteria marked as inactive (o), active & met (*), and active & unmet ( ).
  --------------------------------------------------------------------------------------------- ~
   Step     Total Energy     Delta E     MAX Force     RMS Force      MAX Disp      RMS Disp    ~
  --------------------------------------------------------------------------------------------- ~
    Convergence Criteria             o    2.00e-06 *    1.00e-06 *    6.00e-06 *    4.00e-06 *  ~
  --------------------------------------------------------------------------------------------- ~
      1    -314.98045529   -3.15e+02 o    1.92e-06 *    5.31e-07 *    2.12e-04      6.43e-05    ~
  ---------------------------------------------------------------------------------------------

	Writing optimization data to binary file.
	Structure for next step:
	Cartesian Geometry (in Angstrom)
	    C    -2.9391417501   1.0409919855  -0.0708821779
	    H    -2.1323395431   1.5832590936   0.4223324775
	    H    -3.8805723386   1.4794853832   0.2599845105
	    H    -2.8493974133   1.2103006751  -1.1449993857
	    C     3.2289485627  -0.6823149498  -0.4281782590
	    H     2.4920727417  -1.3840745256  -0.8189764623
	    H     4.0583757886  -1.2644533799  -0.0273395772
	    H     3.6057947127  -0.0950851254  -1.2674241853
	    C    -2.8890416582  -0.4479064013   0.2524937757
	    H    -3.7603906737  -0.9403392443  -0.1856105871
	    H    -2.9691271438  -0.5834944417   1.3346697193
	    C     2.6262781003   0.2253209377   0.6381842369
	    H     2.2236096182  -0.3814956627   1.4520083430
	    H     3.4153410113   0.8391464080   1.0780694666
	    C    -1.6238621592  -1.1548384143  -0.2333383691
	    H    -1.5773790673  -1.1060848960  -1.3260752318
	    H    -1.7073928647  -2.2130405035   0.0230156165
	    C    -0.3257876901  -0.5799364861   0.3520845653
	    H     0.3689988823  -1.3942759582   0.5680501089
	    H    -0.5411194843  -0.1029219111   1.3151873173
	    C     0.3657123433   0.4238021550  -0.5679236183
	    H     0.7066533292  -0.1009899474  -1.4647872368
	    H    -0.3581090294   1.1649206218  -0.9118338529
	    C     1.5371512308   1.1486358930   0.0924593854
	    H     1.9871078128   1.8337547421  -0.6321755809
	    H     1.1523140289   1.7674111655   0.9086590569
			--------------------------
			 OPTKING Finished Execution 
			--------------------------

    Structure for next step:
    Molecular point group: c1
    Full point group: C1

    Geometry (in Angstrom), charge = 0, multiplicity = 1:

    C           -2.939136130953     1.040996184607    -0.070867144119
    H           -2.132333923923     1.583263292636     0.422347511291
    H           -3.880566719486     1.479489582253     0.259999544330
    H           -2.849391794163     1.210304874135    -1.144984351867
    C            3.228954181899    -0.682310750702    -0.428163225154
    H            2.492078360887    -1.384070326524    -0.818961428497
    H            4.058381407710    -1.264449180871    -0.027324543379
    H            3.605800331898    -0.095080926330    -1.267409151448
    C           -2.889036039095    -0.447902202277     0.252508809527
    H           -3.760385054535    -0.940335045243    -0.185595553268
    H           -2.969121524677    -0.583490242599     1.334684753144
    C            2.626283719448     0.225325136808     0.638199270773
    H            2.223615237356    -0.381491463616     1.452023376805
    H            3.415346630480     0.839150607054     1.078084500437
    C           -1.623856540014    -1.154834215286    -0.233323335230
    H           -1.577373448133    -1.106080696961    -1.326060198000
    H           -1.707387245502    -2.213036304442     0.023030650284
    C           -0.325782070942    -0.579932287047     0.352099599137
    H            0.369004501464    -1.394271759146     0.568065142702
    H           -0.541113865166    -0.102917712068     1.315202351106
    C            0.365717962481     0.423806354009    -0.567908584495
    H            0.706658948328    -0.100985748307    -1.464772203016
    H           -0.358103410291     1.164924820822    -0.911818819067
    C            1.537156849916     1.148640092061     0.092474419271
    H            1.987113431947     1.833758941166    -0.632160547056
    H            1.152319648058     1.767415364515     0.908674090741

gradient() will perform analytic gradient computation.

*** tstart() called on wr33
*** at Tue Sep 20 23:17:28 2016


         ---------------------------------------------------------
                                   SCF
            by Justin Turney, Rob Parrish, and Andy Simmonett
                              RHF Reference
                       12 Threads,  60000 MiB Core
         ---------------------------------------------------------

  ==> Geometry <==

    Molecular point group: c1
    Full point group: C1

    Geometry (in Angstrom), charge = 0, multiplicity = 1:

       Center              X                  Y                   Z               Mass       
    ------------   -----------------  -----------------  -----------------  -----------------
           C         -2.939136130953     1.040996184607    -0.070867144119    12.000000000000
           H         -2.132333923923     1.583263292636     0.422347511291     1.007825032070
           H         -3.880566719486     1.479489582253     0.259999544330     1.007825032070
           H         -2.849391794163     1.210304874135    -1.144984351867     1.007825032070
           C          3.228954181899    -0.682310750702    -0.428163225154    12.000000000000
           H          2.492078360887    -1.384070326524    -0.818961428497     1.007825032070
           H          4.058381407710    -1.264449180871    -0.027324543379     1.007825032070
           H          3.605800331898    -0.095080926330    -1.267409151448     1.007825032070
           C         -2.889036039095    -0.447902202277     0.252508809527    12.000000000000
           H         -3.760385054535    -0.940335045243    -0.185595553268     1.007825032070
           H         -2.969121524677    -0.583490242599     1.334684753144     1.007825032070
           C          2.626283719448     0.225325136808     0.638199270773    12.000000000000
           H          2.223615237356    -0.381491463616     1.452023376805     1.007825032070
           H          3.415346630480     0.839150607054     1.078084500437     1.007825032070
           C         -1.623856540014    -1.154834215286    -0.233323335230    12.000000000000
           H         -1.577373448133    -1.106080696961    -1.326060198000     1.007825032070
           H         -1.707387245502    -2.213036304442     0.023030650284     1.007825032070
           C         -0.325782070942    -0.579932287047     0.352099599137    12.000000000000
           H          0.369004501464    -1.394271759146     0.568065142702     1.007825032070
           H         -0.541113865166    -0.102917712068     1.315202351106     1.007825032070
           C          0.365717962481     0.423806354009    -0.567908584495    12.000000000000
           H          0.706658948328    -0.100985748307    -1.464772203016     1.007825032070
           H         -0.358103410291     1.164924820822    -0.911818819067     1.007825032070
           C          1.537156849916     1.148640092061     0.092474419271    12.000000000000
           H          1.987113431947     1.833758941166    -0.632160547056     1.007825032070
           H          1.152319648058     1.767415364515     0.908674090741     1.007825032070

  Running in c1 symmetry.

  Rotational constants: A =      0.14213  B =      0.02714  C =      0.02487 [cm^-1]
  Rotational constants: A =   4260.93546  B =    813.61480  C =    745.53318 [MHz]
  Nuclear repulsion =  398.980540794041474

  Charge       = 0
  Multiplicity = 1
  Electrons    = 66
  Nalpha       = 33
  Nbeta        = 33

  ==> Algorithm <==

  SCF Algorithm Type is DF.
  DIIS enabled.
  MOM disabled.
  Fractional occupation disabled.
  Guess Type is READ.
  Energy threshold   = 1.00e-10
  Density threshold  = 1.00e-10
  Integral threshold = 0.00e+00

  ==> Primary Basis <==

  Basis Set: AUG-CC-PVTZ
    Number of shells: 274
    Number of basis function: 782
    Number of Cartesian functions: 890
    Spherical Harmonics?: true
    Max angular momentum: 3

  ==> Pre-Iterations <==

   -------------------------------------------------------
    Irrep   Nso     Nmo     Nalpha   Nbeta   Ndocc  Nsocc
   -------------------------------------------------------
     A        782     782       0       0       0       0
   -------------------------------------------------------
    Total     782     782      33      33      33       0
   -------------------------------------------------------

  ==> Integral Setup <==

  ==> DFJK: Density-Fitted J/K Matrices <==

    J tasked:                  Yes
    K tasked:                  Yes
    wK tasked:                  No
    OpenMP threads:             12
    Integrals threads:          12
    Memory (MB):             42915
    Algorithm:                Core
    Integral Cache:           NONE
    Schwarz Cutoff:          1E-12
    Fitting Condition:       1E-12

   => Auxiliary Basis Set <=

  Basis Set: 
    Number of shells: 492
    Number of basis function: 1660
    Number of Cartesian functions: 2038
    Spherical Harmonics?: true
    Max angular momentum: 4

  Minimum eigenvalue in the overlap matrix is 1.6625785606E-06.
  Using Symmetric Orthogonalization.
  SCF Guess: Reading in previously saved MOs, projecting if necessary.

  Using orbitals from previous SCF, no projection.
  Recomputing DOCC and SOCC from number of alpha and beta electrons from previous calculation.
              A 
    DOCC [    33 ]

  ==> Iterations <==

                           Total Energy        Delta E     RMS |[F,P]|

   @DF-RHF iter   0:  -313.53699926233634   -3.13537e+02   6.03603e-07 
   @DF-RHF iter   1:  -313.53683664172542    1.62621e-04   1.30460e-07 
   @DF-RHF iter   2:  -313.53683664971044   -7.98502e-09   5.63685e-08 DIIS
   @DF-RHF iter   3:  -313.53683665092552   -1.21508e-09   1.91626e-08 DIIS
   @DF-RHF iter   4:  -313.53683665114937   -2.23849e-10   2.38414e-09 DIIS
   @DF-RHF iter   5:  -313.53683665115346   -4.09273e-12   8.46062e-10 DIIS
   @DF-RHF iter   6:  -313.53683665115403   -5.68434e-13   2.05753e-10 DIIS
   @DF-RHF iter   7:  -313.53683665115381    2.27374e-13   5.72105e-11 DIIS

  ==> Post-Iterations <==

    Orbital Energies (a.u.)
    -----------------------

    Doubly Occupied:                                                      

       1A    -11.213348     2A    -11.211771     3A    -11.210667  
       4A    -11.210315     5A    -11.209783     6A    -11.208170  
       7A    -11.207120     8A    -11.206672     9A     -1.094293  
      10A     -1.060083    11A     -1.003120    12A     -0.948633  
      13A     -0.889544    14A     -0.835552    15A     -0.777809  
      16A     -0.755958    17A     -0.649421    18A     -0.625520  
      19A     -0.613070    20A     -0.600473    21A     -0.572517  
      22A     -0.559403    23A     -0.541033    24A     -0.533600  
      25A     -0.513276    26A     -0.503241    27A     -0.496125  
      28A     -0.473895    29A     -0.462591    30A     -0.459538  
      31A     -0.448347    32A     -0.435130    33A     -0.432094  

    Virtual:                                                              

      34A      0.029911    35A      0.033081    36A      0.033887  
      37A      0.035135    38A      0.046289    39A      0.047955  
      40A      0.049948    41A      0.054267    42A      0.055551  
      43A      0.064494    44A      0.069092    45A      0.070523  
      46A      0.074684    47A      0.076189    48A      0.089916  
      49A      0.092438    50A      0.096258    51A      0.101886  
      52A      0.113620    53A      0.114393    54A      0.116752  
      55A      0.123758    56A      0.125767    57A      0.130252  
      58A      0.134818    59A      0.138800    60A      0.139161  
      61A      0.142062    62A      0.145827    63A      0.151767  
      64A      0.154265    65A      0.155568    66A      0.158871  
      67A      0.164574    68A      0.168269    69A      0.169129  
      70A      0.172641    71A      0.175993    72A      0.182998  
      73A      0.186963    74A      0.193583    75A      0.195180  
      76A      0.200157    77A      0.215359    78A      0.224197  
      79A      0.227413    80A      0.233189    81A      0.239466  
      82A      0.247844    83A      0.248471    84A      0.263586  
      85A      0.265263    86A      0.274560    87A      0.279980  
      88A      0.285445    89A      0.290033    90A      0.295423  
      91A      0.299653    92A      0.302109    93A      0.312519  
      94A      0.313362    95A      0.317003    96A      0.323193  
      97A      0.328321    98A      0.332780    99A      0.334422  
     100A      0.335933   101A      0.339330   102A      0.343449  
     103A      0.345391   104A      0.348073   105A      0.352779  
     106A      0.353509   107A      0.358461   108A      0.361663  
     109A      0.366184   110A      0.369271   111A      0.370868  
     112A      0.374103   113A      0.379940   114A      0.386247  
     115A      0.391017   116A      0.393646   117A      0.399213  
     118A      0.405027   119A      0.410699   120A      0.416602  
     121A      0.418406   122A      0.421905   123A      0.427758  
     124A      0.430327   125A      0.436562   126A      0.441793  
     127A      0.442904   128A      0.445600   129A      0.451724  
     130A      0.456104   131A      0.459789   132A      0.463027  
     133A      0.466261   134A      0.470538   135A      0.471804  
     136A      0.478017   137A      0.479831   138A      0.481353  
     139A      0.485828   140A      0.489791   141A      0.494387  
     142A      0.496391   143A      0.499966   144A      0.503656  
     145A      0.505067   146A      0.514547   147A      0.519430  
     148A      0.526348   149A      0.528503   150A      0.532340  
     151A      0.532999   152A      0.539875   153A      0.546100  
     154A      0.549958   155A      0.556598   156A      0.558535  
     157A      0.564102   158A      0.566876   159A      0.571780  
     160A      0.574111   161A      0.577364   162A      0.583366  
     163A      0.584873   164A      0.589009   165A      0.590788  
     166A      0.596428   167A      0.603073   168A      0.609316  
     169A      0.613975   170A      0.614439   171A      0.621736  
     172A      0.628436   173A      0.630813   174A      0.634629  
     175A      0.640035   176A      0.646444   177A      0.647912  
     178A      0.663763   179A      0.665268   180A      0.669375  
     181A      0.671707   182A      0.681589   183A      0.681967  
     184A      0.685494   185A      0.689780   186A      0.695859  
     187A      0.702596   188A      0.708232   189A      0.711131  
     190A      0.714184   191A      0.730251   192A      0.732632  
     193A      0.737664   194A      0.739947   195A      0.746145  
     196A      0.757840   197A      0.765686   198A      0.769057  
     199A      0.771271   200A      0.779951   201A      0.795479  
     202A      0.804651   203A      0.816211   204A      0.821516  
     205A      0.833266   206A      0.836105   207A      0.845313  
     208A      0.858153   209A      0.858970   210A      0.862742  
     211A      0.867279   212A      0.872192   213A      0.880811  
     214A      0.885309   215A      0.887243   216A      0.898562  
     217A      0.901620   218A      0.907362   219A      0.908624  
     220A      0.911984   221A      0.917252   222A      0.926898  
     223A      0.927934   224A      0.936522   225A      0.940909  
     226A      0.947414   227A      0.949976   228A      0.955679  
     229A      0.958305   230A      0.962540   231A      0.968099  
     232A      0.976864   233A      0.983872   234A      0.985802  
     235A      0.991856   236A      0.999189   237A      1.003965  
     238A      1.005599   239A      1.008130   240A      1.020737  
     241A      1.022828   242A      1.024886   243A      1.028614  
     244A      1.035818   245A      1.040360   246A      1.044265  
     247A      1.051532   248A      1.051930   249A      1.053938  
     250A      1.062191   251A      1.066289   252A      1.072395  
     253A      1.078699   254A      1.082195   255A      1.096691  
     256A      1.098957   257A      1.104221   258A      1.107842  
     259A      1.114971   260A      1.119167   261A      1.124910  
     262A      1.132702   263A      1.137465   264A      1.141012  
     265A      1.147562   266A      1.152286   267A      1.157717  
     268A      1.160632   269A      1.165610   270A      1.171197  
     271A      1.181630   272A      1.182771   273A      1.190408  
     274A      1.193026   275A      1.199700   276A      1.209428  
     277A      1.210392   278A      1.214574   279A      1.219214  
     280A      1.226368   281A      1.231276   282A      1.236567  
     283A      1.244011   284A      1.245901   285A      1.251640  
     286A      1.255604   287A      1.262351   288A      1.266827  
[...]
	Projected energy change by RFO approximation:        -0.0000000000

	Back-transformation to cartesian coordinates...
	Successfully converged to displaced geometry.

	--- Internal Coordinate Step in ANG or DEG, aJ/ANG or AJ/DEG ---
	 ---------------------------------------------------------------------------
	   Coordinate                Previous        Force       Change         New 
	   ----------                --------       ------       ------       ------
	    1 R(1,2)          =      1.090068     0.000004    -0.000000     1.090068
	    2 R(1,3)          =      1.089974     0.000002    -0.000000     1.089974
	    3 R(1,4)          =      1.091078     0.000004     0.000000     1.091078
	    4 R(1,9)          =      1.524435    -0.000000     0.000000     1.524435
	    5 R(5,6)          =      1.090036     0.000004     0.000000     1.090036
	    6 R(5,7)          =      1.089729     0.000003     0.000000     1.089729
	    7 R(5,8)          =      1.091416     0.000004     0.000000     1.091416
	    8 R(5,12)         =      1.524514     0.000000     0.000000     1.524514
	    9 R(9,10)         =      1.092555     0.000002    -0.000000     1.092555
	   10 R(9,11)         =      1.093575     0.000004    -0.000000     1.093575
	   11 R(9,15)         =      1.528550    -0.000000    -0.000000     1.528550
	   12 R(12,13)        =      1.092099     0.000006     0.000000     1.092100
	   13 R(12,14)        =      1.092201     0.000004     0.000000     1.092201
	   14 R(12,24)        =      1.528568     0.000001     0.000000     1.528568
	   15 R(15,16)        =      1.094813     0.000007     0.000000     1.094813
	   16 R(15,17)        =      1.092012     0.000004    -0.000000     1.092012
	   17 R(15,18)        =      1.535656     0.000001    -0.000000     1.535655
	   18 R(18,19)        =      1.092027     0.000005     0.000000     1.092027
	   19 R(18,20)        =      1.096122     0.000007     0.000000     1.096122
	   20 R(18,21)        =      1.527116    -0.000001    -0.000000     1.527116
	   21 R(21,22)        =      1.093626     0.000006     0.000000     1.093626
	   22 R(21,23)        =      1.091536     0.000004     0.000000     1.091537
	   23 R(21,24)        =      1.527665     0.000001     0.000000     1.527665
	   24 R(24,25)        =      1.094052     0.000005     0.000000     1.094052
	   25 R(24,26)        =      1.094152     0.000005     0.000000     1.094152
	   26 B(1,9,10)       =    109.204245     0.000000     0.000011   109.204256
	   27 B(1,9,11)       =    109.184300     0.000000     0.000005   109.184305
	   28 B(1,9,15)       =    114.298283    -0.000000    -0.000027   114.298256
	   29 B(2,1,3)        =    107.565686     0.000000    -0.000016   107.565670
	   30 B(2,1,4)        =    107.899984    -0.000000    -0.000003   107.899981
	   31 B(2,1,9)        =    111.442257     0.000000    -0.000012   111.442244
	   32 B(3,1,4)        =    107.905836     0.000000    -0.000006   107.905830
	   33 B(3,1,9)        =    110.910608    -0.000000     0.000021   110.910629
	   34 B(4,1,9)        =    110.958196     0.000000     0.000015   110.958211
	   35 B(5,12,13)      =    109.645277    -0.000000    -0.000002   109.645275
	   36 B(5,12,14)      =    109.312184    -0.000000    -0.000031   109.312153
	   37 B(5,12,24)      =    113.051792     0.000000     0.000053   113.051845
	   38 B(6,5,7)        =    107.607296     0.000000     0.000005   107.607301
	   39 B(6,5,8)        =    107.705275    -0.000000    -0.000000   107.705275
	   40 B(6,5,12)       =    111.519986     0.000000     0.000003   111.519988
	   41 B(7,5,8)        =    107.906680     0.000000    -0.000002   107.906678
	   42 B(7,5,12)       =    111.201181    -0.000000    -0.000026   111.201156
	   43 B(8,5,12)       =    110.734091     0.000000     0.000021   110.734112
	   44 B(9,15,16)      =    109.377039    -0.000000    -0.000007   109.377033
	   45 B(9,15,17)      =    108.073464     0.000000     0.000018   108.073482
	   46 B(9,15,18)      =    113.912692     0.000000     0.000072   113.912765
	   47 B(10,9,11)      =    106.410842    -0.000000     0.000014   106.410856
	   48 B(10,9,15)      =    108.918098    -0.000000    -0.000043   108.918055
	   49 B(11,9,15)      =    108.529797     0.000000     0.000042   108.529839
	   50 B(12,24,21)     =    114.462304    -0.000000     0.000022   114.462326
	   51 B(12,24,25)     =    108.764981    -0.000000     0.000008   108.764990
	   52 B(12,24,26)     =    109.019516     0.000000    -0.000023   109.019493
	   53 B(13,12,14)     =    106.172243     0.000000    -0.000019   106.172223
	   54 B(13,12,24)     =    109.813818    -0.000000     0.000006   109.813824
	   55 B(14,12,24)     =    108.606878    -0.000000    -0.000012   108.606867
	   56 B(15,18,19)     =    109.512919    -0.000000    -0.000053   109.512866
	   57 B(15,18,20)     =    109.379546    -0.000000    -0.000019   109.379527
	   58 B(15,18,21)     =    113.526084     0.000000     0.000068   113.526152
	   59 B(16,15,17)     =    106.302519     0.000000    -0.000021   106.302499
	   60 B(16,15,18)     =    109.143888     0.000000    -0.000013   109.143875
	   61 B(17,15,18)     =    109.751538    -0.000000    -0.000056   109.751482
	   62 B(18,21,22)     =    108.652060     0.000000    -0.000011   108.652049
	   63 B(18,21,23)     =    109.622138     0.000000     0.000006   109.622144
	   64 B(18,21,24)     =    113.494304    -0.000000    -0.000018   113.494286
	   65 B(19,18,20)     =    106.006353     0.000000    -0.000020   106.006332
	   66 B(19,18,21)     =    108.734463    -0.000000     0.000011   108.734474
	   67 B(20,18,21)     =    109.406054    -0.000000     0.000007   109.406061
	   68 B(21,24,25)     =    109.037109    -0.000000    -0.000025   109.037083
	   69 B(21,24,26)     =    108.729129     0.000000     0.000017   108.729147
	   70 B(22,21,23)     =    105.911980    -0.000000     0.000019   105.911999
	   71 B(22,21,24)     =    110.067617     0.000000     0.000010   110.067628
	   72 B(23,21,24)     =    108.816824    -0.000000    -0.000003   108.816821
	   73 B(25,24,26)     =    106.534545    -0.000000    -0.000001   106.534544
	   74 D(1,9,15,16)    =    -62.996724     0.000000     0.000138   -62.996586
	   75 D(1,9,15,17)    =   -178.323665     0.000000     0.000156  -178.323509
	   76 D(1,9,15,18)    =     59.430080     0.000000     0.000166    59.430247
	   77 D(2,1,9,10)     =    175.033743     0.000000    -0.000155   175.033588
	   78 D(2,1,9,11)     =     59.060395    -0.000000    -0.000181    59.060215
	   79 D(2,1,9,15)     =    -62.693515    -0.000000    -0.000221   -62.693735
	   80 D(3,1,9,10)     =     55.221444     0.000000    -0.000141    55.221304
	   81 D(3,1,9,11)     =    -60.751903    -0.000000    -0.000166   -60.752070
	   82 D(3,1,9,15)     =    177.494187    -0.000000    -0.000206   177.493981
	   83 D(4,1,9,10)     =    -64.698739     0.000000    -0.000157   -64.698896
	   84 D(4,1,9,11)     =    179.327913    -0.000000    -0.000182   179.327731
	   85 D(4,1,9,15)     =     57.574004    -0.000000    -0.000222    57.573781
	   86 D(5,12,24,21)   =     57.993419    -0.000000    -0.000023    57.993396
	   87 D(5,12,24,25)   =    -64.216728     0.000000    -0.000011   -64.216739
	   88 D(5,12,24,26)   =    179.995462     0.000000    -0.000003   179.995459
	   89 D(6,5,12,13)    =     58.089448     0.000000     0.000081    58.089529
	   90 D(6,5,12,14)    =    174.095724    -0.000000     0.000039   174.095763
	   91 D(6,5,12,24)    =    -64.802404    -0.000000     0.000038   -64.802367
	   92 D(7,5,12,13)    =    -62.024227     0.000000     0.000090   -62.024137
	   93 D(7,5,12,14)    =     53.982048    -0.000000     0.000049    53.982097
	   94 D(7,5,12,24)    =    175.083920    -0.000000     0.000047   175.083967
	   95 D(8,5,12,13)    =    178.011121     0.000000     0.000096   178.011218
	   96 D(8,5,12,14)    =    -65.982603     0.000000     0.000055   -65.982548
	   97 D(8,5,12,24)    =     55.119269    -0.000000     0.000053    55.119322
	   98 D(9,15,18,19)   =    141.386217     0.000000     0.000034   141.386251
	   99 D(9,15,18,20)   =     25.615631     0.000000     0.000099    25.615730
	  100 D(9,15,18,21)   =    -96.883416     0.000000     0.000057   -96.883359
	  101 D(10,9,15,16)   =     59.432110    -0.000000     0.000101    59.432212
	  102 D(10,9,15,17)   =    -55.894831    -0.000000     0.000120   -55.894712
	  103 D(10,9,15,18)   =   -178.141086     0.000000     0.000130  -178.140956
	  104 D(11,9,15,16)   =    174.890698    -0.000000     0.000118   174.890816
	  105 D(11,9,15,17)   =     59.563757     0.000000     0.000136    59.563893
	  106 D(11,9,15,18)   =    -62.682498     0.000000     0.000147   -62.682351
	  107 D(12,24,21,18)  =     57.013270     0.000000     0.000015    57.013286
	  108 D(12,24,21,22)  =    -64.996751     0.000000     0.000035   -64.996716
	  109 D(12,24,21,23)  =    179.355203     0.000000     0.000008   179.355212
	  110 D(13,12,24,21)  =    -64.804804    -0.000000    -0.000062   -64.804866
	  111 D(13,12,24,25)  =    172.985050    -0.000000    -0.000051   172.984999
	  112 D(13,12,24,26)  =     57.197239     0.000000    -0.000042    57.197197
	  113 D(14,12,24,21)  =    179.493789    -0.000000    -0.000036   179.493753
	  114 D(14,12,24,25)  =     57.283642     0.000000    -0.000025    57.283617
	  115 D(14,12,24,26)  =    -58.504169     0.000000    -0.000016   -58.504185
	  116 D(15,18,21,22)  =    -65.767201     0.000000    -0.000029   -65.767230
	  117 D(15,18,21,23)  =     49.544364     0.000000    -0.000010    49.544354
	  118 D(15,18,21,24)  =    171.439060     0.000000    -0.000022   171.439038
	  119 D(16,15,18,19)  =    -96.059055     0.000000     0.000066   -96.058989
	  120 D(16,15,18,20)  =    148.170359     0.000000     0.000131   148.170491
	  121 D(16,15,18,21)  =     25.671312     0.000000     0.000089    25.671401
	  122 D(17,15,18,19)  =     20.067936     0.000000     0.000003    20.067939
	  123 D(17,15,18,20)  =    -95.702650     0.000000     0.000068   -95.702582
	  124 D(17,15,18,21)  =    141.798304     0.000000     0.000025   141.798328
	  125 D(18,21,24,25)  =    179.075089    -0.000000     0.000022   179.075112
	  126 D(18,21,24,26)  =    -65.147148     0.000000     0.000017   -65.147130
	  127 D(19,18,21,22)  =     56.396036     0.000000    -0.000043    56.395992
	  128 D(19,18,21,23)  =    171.707600     0.000000    -0.000024   171.707576
	  129 D(19,18,21,24)  =    -66.397704     0.000000    -0.000036   -66.397740
	  130 D(20,18,21,22)  =    171.748404     0.000000    -0.000057   171.748347
	  131 D(20,18,21,23)  =    -72.940032     0.000000    -0.000038   -72.940069
	  132 D(20,18,21,24)  =     48.954664     0.000000    -0.000050    48.954614
	  133 D(22,21,24,25)  =     57.065068     0.000000     0.000042    57.065110
	  134 D(22,21,24,26)  =    172.842831     0.000000     0.000037   172.842868
	  135 D(23,21,24,25)  =    -58.582978     0.000000     0.000015   -58.582963
	  136 D(23,21,24,26)  =     57.194785     0.000000     0.000010    57.194796
	  137 R(1,21)         =      3.398523     0.000002     0.000002     3.398525
	  138 R(5,18)         =      3.640811    -0.000000     0.000001     3.640812
	 ---------------------------------------------------------------------------

  ==> Convergence Check <==

  Measures of convergence in internal coordinates in au.
  Criteria marked as inactive (o), active & met (*), and active & unmet ( ).
  ---------------------------------------------------------------------------------------------
   Step     Total Energy     Delta E     MAX Force     RMS Force      MAX Disp      RMS Disp   
  ---------------------------------------------------------------------------------------------
    Convergence Criteria             o    2.00e-06 *    1.00e-06 *    6.00e-06 *    4.00e-06 *
  ---------------------------------------------------------------------------------------------
     30    -314.98045529    2.22e-09 o    8.64e-07 *    2.16e-07 *    4.10e-06 *    1.23e-06 *  ~
  ---------------------------------------------------------------------------------------------


  **** Optimization is complete! (in 30 steps) ****

  ==> Optimization Summary <==

  Measures of convergence in internal coordinates in au.
  --------------------------------------------------------------------------------------------------------------- ~
   Step         Total Energy             Delta E       MAX Force       RMS Force        MAX Disp        RMS Disp  ~
  --------------------------------------------------------------------------------------------------------------- ~
      1    -314.980455287590   -314.980455287590      0.00000192      0.00000053      0.00021249      0.00006429  ~
      2    -314.980455284027      0.000000003564      0.00000201      0.00000060      0.00013194      0.00004832  ~
      3    -314.980455285234     -0.000000001207      0.00000126      0.00000028      0.00012731      0.00003858  ~
      4    -314.980455289036     -0.000000003802      0.00000301      0.00000076      0.00010048      0.00003096  ~
      5    -314.980455285850      0.000000003186      0.00000121      0.00000031      0.00005736      0.00002060  ~
      6    -314.980455286016     -0.000000000166      0.00000069      0.00000018      0.00004957      0.00001794  ~
      7    -314.980455281618      0.000000004398      0.00000129      0.00000039      0.00015120      0.00003776  ~
      8    -314.980455289560     -0.000000007942      0.00000252      0.00000067      0.00011993      0.00003144  ~
      9    -314.980455287003      0.000000002557      0.00000067      0.00000017      0.00002270      0.00000641  ~
     10    -314.980455284445      0.000000002558      0.00000102      0.00000020      0.00001123      0.00000341  ~
     11    -314.980455279306      0.000000005138      0.00000161      0.00000034      0.00006002      0.00001615  ~
     12    -314.980455286948     -0.000000007641      0.00000092      0.00000021      0.00002620      0.00000942  ~
     13    -314.980455282953      0.000000003994      0.00000068      0.00000015      0.00001391      0.00000436  ~
     14    -314.980455284800     -0.000000001846      0.00000071      0.00000016      0.00000913      0.00000362  ~
     15    -314.980455285996     -0.000000001196      0.00000285      0.00000064      0.00004719      0.00001394  ~
     16    -314.980455289057     -0.000000003062      0.00000076      0.00000018      0.00002741      0.00000904  ~
     17    -314.980455287681      0.000000001376      0.00000096      0.00000023      0.00002783      0.00000795  ~
     18    -314.980455285980      0.000000001701      0.00000036      0.00000008      0.00000922      0.00000389  ~
     19    -314.980455287938     -0.000000001958      0.00000136      0.00000035      0.00004091      0.00001247  ~
     20    -314.980455285079      0.000000002859      0.00000102      0.00000024      0.00002027      0.00000513  ~
     21    -314.980455289718     -0.000000004639      0.00000113      0.00000025      0.00000685      0.00000246  ~
     22    -314.980455288504      0.000000001213      0.00000190      0.00000044      0.00007942      0.00002142  ~
     23    -314.980455289289     -0.000000000784      0.00000129      0.00000027      0.00004583      0.00001231  ~
     24    -314.980455286219      0.000000003069      0.00000035      0.00000010      0.00000902      0.00000255  ~
     25    -314.980455284005      0.000000002214      0.00000034      0.00000009      0.00001073      0.00000357  ~
     26    -314.980455283436      0.000000000569      0.00000301      0.00000082      0.00008399      0.00003880  ~
     27    -314.980455284357     -0.000000000920      0.00000224      0.00000060      0.00009523      0.00003296  ~
     28    -314.980455283432      0.000000000925      0.00000173      0.00000043      0.00001725      0.00000563  ~
     29    -314.980455287850     -0.000000004417      0.00000051      0.00000016      0.00002453      0.00000695  ~
     30    -314.980455285633      0.000000002216      0.00000086      0.00000022      0.00000410      0.00000123  ~
  --------------------------------------------------------------------------------------------------------------- ~

	Writing optimization data to binary file.
	Final energy is   -314.9804552856335
	Final (previous) structure:
	Cartesian Geometry (in Angstrom)
	    C    -2.9392274129   1.0409299304  -0.0711427662
	    H    -2.1324800306   1.5833162623   0.4220344121
	    H    -3.8807015377   1.4794113503   0.2596193928
	    H    -2.8494429916   1.2100954572  -1.1452806596
	    C     3.2288614580  -0.6823465323  -0.4283617266
	    H     2.4918912978  -1.3840356014  -0.8191128895
	    H     4.0583072010  -1.2645625295  -0.0276715269
	    H     3.6056330535  -0.0950806206  -1.2676176400
	    C    -2.8890537086  -0.4479207769   0.2524418442
	    H    -3.7603419542  -0.9404692230  -0.1856562908
	    H    -2.9692065259  -0.5833662584   1.3346322322
	    C     2.6263852930   0.2252506654   0.6381426945
	    H     2.2237990561  -0.3815991945   1.4519846915
	    H     3.4155389780   0.8390113628   1.0779573255
	    C    -1.6237968919  -1.1548429802  -0.2332039748
	    H    -1.5772190823  -1.1062010599  -1.3259436591
	    H    -1.7073056693  -2.2130236333   0.0232519582
	    C    -0.3257967250  -0.5798281656   0.3522799840
	    H     0.3690246894  -1.3941182020   0.5683291642
	    H    -0.5412214150  -0.1027832807   1.3153502592
	    C     0.3657146283   0.4239062261  -0.5677265313
	    H     0.7065871737  -0.1008746002  -1.4646256510
	    H    -0.3580825224   1.1650775368  -0.9115791004
	    C     1.5372276692   1.1486497572   0.0926244792
	    H     1.9871333210   1.8338354995  -0.6319818245
	    H     1.1524810956   1.7673479840   0.9089277975
	Saving final (previous) structure.
			--------------------------
			 OPTKING Finished Execution 
			--------------------------

    Final optimized geometry and variables:
    Molecular point group: c1
    Full point group: C1

    Geometry (in Angstrom), charge = 0, multiplicity = 1:

    C           -2.939227412902     1.040929930414    -0.071142766168
    H           -2.132480030610     1.583316262258     0.422034412116
    H           -3.880701537723     1.479411350268     0.259619392795
    H           -2.849442991552     1.210095457223    -1.145280659593
    C            3.228861458024    -0.682346532347    -0.428361726558
    H            2.491891297846    -1.384035601381    -0.819112889531
    H            4.058307200966    -1.264562529536    -0.027671526887
    H            3.605633053550    -0.095080620635    -1.267617639978
    C           -2.889053708574    -0.447920776925     0.252441844199
    H           -3.760341954187    -0.940469222951    -0.185656290814
    H           -2.969206525871    -0.583366258375     1.334632232164
    C            2.626385292969     0.225250665444     0.638142694480
    H            2.223799056141    -0.381599194507     1.451984691468
    H            3.415538977987     0.839011362801     1.077957325480
    C           -1.623796891897    -1.154842980205    -0.233203974820
    H           -1.577219082289    -1.106201059912    -1.325943659127
    H           -1.707305669334    -2.213023633314     0.023251958248
    C           -0.325796724997    -0.579828165632     0.352279984009
    H            0.369024689395    -1.394118201994     0.568329164236
    H           -0.541221415032    -0.102783280736     1.315350259181
    C            0.365714628310     0.423906226056    -0.567726531309
    H            0.706587173714    -0.100874600237    -1.464625651006
    H           -0.358082522358     1.165077536773    -0.911579100361
    C            1.537227669162     1.148649757153     0.092624479190
    H            1.987133320957     1.833835499501    -0.631981824549
    H            1.152481095617     1.767347983974     0.908927797507

	Cleaning optimization helper files.

*** Psi4 exiting successfully. Buy a developer a beer!
