    -----------------------------------------------------------------------
          Psi4: An Open-Source Ab Initio Electronic Structure Package
                              Psi4 1.0.0 Driver

                          Git: Rev {master} 6a9a71b dirty

    J. M. Turney, A. C. Simmonett, R. M. Parrish, E. G. Hohenstein,
    F. A. Evangelista, J. T. Fermann, B. J. Mintz, L. A. Burns, J. J. Wilke,
    M. L. Abrams, N. J. Russ, M. L. Leininger, C. L. Janssen, E. T. Seidl,
    W. D. Allen, H. F. Schaefer, R. A. King, E. F. Valeev, C. D. Sherrill,
    and T. D. Crawford, WIREs Comput. Mol. Sci. 2, 556-565 (2012)
    (doi: 10.1002/wcms.93)

                         Additional Contributions by
    A. E. DePrince, U. Bozkaya, A. Yu. Sokolov, D. G. A. Smith, R. Di Remigio,
    R. M. Richard, J. F. Gonthier, H. R. McAlexander, M. Saitow, and
    B. P. Pritchard
    -----------------------------------------------------------------------


    Psi4 started on: Wed Sep 21 04:57:33 2016

    Process ID:   5209
    PSI4DATADIR: /usr/local/hpc5/psi4conda/share/psi4
    Memory level set to 256.000 MB

  ==> Input File <==

--------------------------------------------------------------------------
memory 60 Gb

molecule molecule_54_psi {
0 1
C            3.334478168405     0.694418973462    -0.665759004146
H            4.173265400207     0.078059103537    -0.338987409986
H            3.720687956956     1.682526318694    -0.915044714317
H            2.937244610674     0.254330982633    -1.580599145733
C           -3.546044107064     0.157556319939    -0.701676067569
H           -3.293544590870     0.659508607019    -1.637256711767
H           -4.591987578321     0.369163494462    -0.480737914603
H           -3.455340806026    -0.915603764341    -0.863796611275
C            2.271496319380     0.771635193461     0.425029793701
H            1.466845088568     1.436967125084     0.106088314024
H            2.711222294225     1.219020956585     1.319465954242
C           -2.638226083297     0.637252452589     0.426010381035
H           -2.839546207782     1.692962425419     0.620949480860
H           -2.881075888543     0.100726824283     1.347553407392
C            1.697177094591    -0.602394124025     0.776730137527
H            1.151691055630    -0.544476025068     1.723252983186
H            2.535670431331    -1.282010430528     0.951221727679
C            0.765545988481    -1.187310575033    -0.296386259700
H            0.954779286576    -2.256828138951    -0.408312294960
H            0.992381839658    -0.736716428775    -1.267124967641
C           -0.720763277332    -0.993995517188     0.005980617074
H           -1.303181460086    -1.483824628234    -0.777689082819
H           -0.961911152894    -1.509351076024     0.942142985486
C           -1.150092353861     0.463973767215     0.126050215906
H           -0.573155717598     0.945507397694     0.919076338292
H           -0.905641055603     0.990914980800    -0.803017538391
}

set globals {
  reference rhf
  g_convergence gau_verytight
  basis aug-cc-pvtz
  freeze_core true
  scf_type df
  mp_type df
}
optimize('mp2')
--------------------------------------------------------------------------
/usr/local/hpc5/psi4conda/lib/python2.7/site-packages/v2rdm_casscf/v2rdm_casscf.so loaded.

  Memory set to  60.000 GiB by Python script.
gradient() will perform analytic gradient computation.

*** tstart() called on wr38
*** at Wed Sep 21 04:57:34 2016


         ---------------------------------------------------------
                                   SCF
            by Justin Turney, Rob Parrish, and Andy Simmonett
                              RHF Reference
                       12 Threads,  60000 MiB Core
         ---------------------------------------------------------

  ==> Geometry <==

    Molecular point group: c1
    Full point group: C1

    Geometry (in Angstrom), charge = 0, multiplicity = 1:

       Center              X                  Y                   Z               Mass       
    ------------   -----------------  -----------------  -----------------  -----------------
           C          3.334478168405     0.694418973462    -0.665759004146    12.000000000000
           H          4.173265400207     0.078059103537    -0.338987409986     1.007825032070
           H          3.720687956956     1.682526318694    -0.915044714317     1.007825032070
           H          2.937244610674     0.254330982633    -1.580599145733     1.007825032070
           C         -3.546044107064     0.157556319939    -0.701676067569    12.000000000000
           H         -3.293544590870     0.659508607019    -1.637256711767     1.007825032070
           H         -4.591987578321     0.369163494462    -0.480737914603     1.007825032070
           H         -3.455340806026    -0.915603764341    -0.863796611275     1.007825032070
           C          2.271496319380     0.771635193461     0.425029793701    12.000000000000
           H          1.466845088568     1.436967125084     0.106088314024     1.007825032070
           H          2.711222294225     1.219020956585     1.319465954242     1.007825032070
           C         -2.638226083297     0.637252452589     0.426010381035    12.000000000000
           H         -2.839546207782     1.692962425419     0.620949480860     1.007825032070
           H         -2.881075888543     0.100726824283     1.347553407392     1.007825032070
           C          1.697177094591    -0.602394124025     0.776730137527    12.000000000000
           H          1.151691055630    -0.544476025068     1.723252983186     1.007825032070
           H          2.535670431331    -1.282010430528     0.951221727679     1.007825032070
           C          0.765545988481    -1.187310575033    -0.296386259700    12.000000000000
           H          0.954779286576    -2.256828138951    -0.408312294960     1.007825032070
           H          0.992381839658    -0.736716428775    -1.267124967641     1.007825032070
           C         -0.720763277332    -0.993995517188     0.005980617074    12.000000000000
           H         -1.303181460086    -1.483824628234    -0.777689082819     1.007825032070
           H         -0.961911152894    -1.509351076024     0.942142985486     1.007825032070
           C         -1.150092353861     0.463973767215     0.126050215906    12.000000000000
           H         -0.573155717598     0.945507397694     0.919076338292     1.007825032070
           H         -0.905641055603     0.990914980800    -0.803017538391     1.007825032070

  Running in c1 symmetry.

  Rotational constants: A =      0.13798  B =      0.02549  C =      0.02420 [cm^-1]
  Rotational constants: A =   4136.54795  B =    764.11864  C =    725.54987 [MHz]
  Nuclear repulsion =  395.804011926332294

  Charge       = 0
  Multiplicity = 1
  Electrons    = 66
  Nalpha       = 33
  Nbeta        = 33

  ==> Algorithm <==

  SCF Algorithm Type is DF.
  DIIS enabled.
  MOM disabled.
  Fractional occupation disabled.
  Guess Type is SAD.
  Energy threshold   = 1.00e-10
  Density threshold  = 1.00e-10
  Integral threshold = 0.00e+00

  ==> Primary Basis <==

  Basis Set: AUG-CC-PVTZ
    Number of shells: 274
    Number of basis function: 782
    Number of Cartesian functions: 890
    Spherical Harmonics?: true
    Max angular momentum: 3

  ==> Pre-Iterations <==

   -------------------------------------------------------
    Irrep   Nso     Nmo     Nalpha   Nbeta   Ndocc  Nsocc
   -------------------------------------------------------
     A        782     782       0       0       0       0
   -------------------------------------------------------
    Total     782     782      33      33      33       0
   -------------------------------------------------------

  ==> Integral Setup <==

  ==> DFJK: Density-Fitted J/K Matrices <==

    J tasked:                  Yes
    K tasked:                  Yes
    wK tasked:                  No
    OpenMP threads:             12
    Integrals threads:          12
    Memory (MB):             42915
    Algorithm:                Core
    Integral Cache:           NONE
    Schwarz Cutoff:          1E-12
    Fitting Condition:       1E-12

   => Auxiliary Basis Set <=

  Basis Set: 
    Number of shells: 492
    Number of basis function: 1660
    Number of Cartesian functions: 2038
    Spherical Harmonics?: true
    Max angular momentum: 4

  Minimum eigenvalue in the overlap matrix is 2.0317486176E-06.
  Using Symmetric Orthogonalization.
  SCF Guess: Superposition of Atomic Densities via on-the-fly atomic UHF.

  ==> Iterations <==

                           Total Energy        Delta E     RMS |[F,P]|

   @DF-RHF iter   0:  -316.86056566791814   -3.16861e+02   6.96115e-03 
   @DF-RHF iter   1:  -313.27809551897218    3.58247e+00   7.43641e-04 
   @DF-RHF iter   2:  -313.50118769797922   -2.23092e-01   2.80484e-04 DIIS
   @DF-RHF iter   3:  -313.53136385224235   -3.01762e-02   1.01993e-04 DIIS
   @DF-RHF iter   4:  -313.53676168855969   -5.39784e-03   1.50334e-05 DIIS
   @DF-RHF iter   5:  -313.53691570864368   -1.54020e-04   4.56956e-06 DIIS
   @DF-RHF iter   6:  -313.53692687330016   -1.11647e-05   1.38388e-06 DIIS
   @DF-RHF iter   7:  -313.53692792587839   -1.05258e-06   2.58184e-07 DIIS
   @DF-RHF iter   8:  -313.53692797540288   -4.95245e-08   6.81541e-08 DIIS
   @DF-RHF iter   9:  -313.53692797860236   -3.19949e-09   1.99770e-08 DIIS
   @DF-RHF iter  10:  -313.53692797887169   -2.69324e-10   6.24272e-09 DIIS
   @DF-RHF iter  11:  -313.53692797889431   -2.26237e-11   1.41873e-09 DIIS
   @DF-RHF iter  12:  -313.53692797889556   -1.25056e-12   3.45285e-10 DIIS
   @DF-RHF iter  13:  -313.53692797889545    1.13687e-13   1.04109e-10 DIIS
   @DF-RHF iter  14:  -313.53692797889545    0.00000e+00   3.06661e-11 DIIS

  ==> Post-Iterations <==

    Orbital Energies (a.u.)
    -----------------------

    Doubly Occupied:                                                      

       1A    -11.212996     2A    -11.211808     3A    -11.210516  
       4A    -11.210266     5A    -11.209897     6A    -11.209518  
       7A    -11.206597     8A    -11.206230     9A     -1.094095  
      10A     -1.058989    11A     -1.007767    12A     -0.942328  
      13A     -0.892269    14A     -0.830866    15A     -0.779545  
      16A     -0.761590    17A     -0.644178    18A     -0.625081  
      19A     -0.612547    20A     -0.593573    21A     -0.585688  
      22A     -0.558926    23A     -0.545375    24A     -0.529336  
      25A     -0.514674    26A     -0.499777    27A     -0.485252  
      28A     -0.475425    29A     -0.467773    30A     -0.461316  
      31A     -0.449120    32A     -0.435010    33A     -0.432166  

    Virtual:                                                              

      34A      0.029964    35A      0.033016    36A      0.033575  
      37A      0.035300    38A      0.046116    39A      0.048288  
      40A      0.048810    41A      0.054175    42A      0.055476  
      43A      0.063971    44A      0.069558    45A      0.071152  
      46A      0.074838    47A      0.075711    48A      0.086249  
      49A      0.091443    50A      0.099068    51A      0.103376  
      52A      0.113892    53A      0.119677    54A      0.121291  
      55A      0.122696    56A      0.127981    57A      0.130464  
      58A      0.131046    59A      0.133794    60A      0.137040  
      61A      0.144979    62A      0.146620    63A      0.150472  
      64A      0.151919    65A      0.158597    66A      0.161893  
      67A      0.163779    68A      0.167318    69A      0.174538  
      70A      0.176420    71A      0.180371    72A      0.184732  
      73A      0.187616    74A      0.194425    75A      0.196385  
      76A      0.202279    77A      0.214809    78A      0.223556  
      79A      0.227048    80A      0.232130    81A      0.238433  
      82A      0.250333    83A      0.255291    84A      0.257290  
      85A      0.264145    86A      0.275805    87A      0.279782  
      88A      0.281703    89A      0.290868    90A      0.292635  
      91A      0.295241    92A      0.307811    93A      0.308787  
      94A      0.314731    95A      0.317649    96A      0.321814  
      97A      0.324169    98A      0.329500    99A      0.334675  
     100A      0.337919   101A      0.338791   102A      0.342541  
     103A      0.348878   104A      0.352255   105A      0.355958  
     106A      0.357712   107A      0.359939   108A      0.365596  
     109A      0.367779   110A      0.371318   111A      0.373064  
     112A      0.378589   113A      0.381030   114A      0.383846  
     115A      0.392862   116A      0.396650   117A      0.401692  
     118A      0.407574   119A      0.409581   120A      0.412898  
     121A      0.415590   122A      0.422103   123A      0.425578  
     124A      0.427544   125A      0.432121   126A      0.436057  
     127A      0.442687   128A      0.444596   129A      0.451273  
     130A      0.452914   131A      0.456716   132A      0.460635  
     133A      0.466915   134A      0.471895   135A      0.472682  
     136A      0.475041   137A      0.476898   138A      0.478231  
     139A      0.482078   140A      0.485907   141A      0.492163  
     142A      0.495491   143A      0.497607   144A      0.502173  
     145A      0.510742   146A      0.511892   147A      0.513698  
     148A      0.520707   149A      0.523122   150A      0.523438  
     151A      0.529623   152A      0.540309   153A      0.541694  
     154A      0.544264   155A      0.548018   156A      0.553638  
     157A      0.559601   158A      0.564226   159A      0.566659  
     160A      0.568478   161A      0.575612   162A      0.582736  
     163A      0.588244   164A      0.595519   165A      0.596491  
     166A      0.599255   167A      0.606616   168A      0.611560  
     169A      0.615715   170A      0.620952   171A      0.624427  
     172A      0.626369   173A      0.631535   174A      0.633527  
     175A      0.640663   176A      0.648815   177A      0.653814  
     178A      0.654494   179A      0.656072   180A      0.665939  
     181A      0.668787   182A      0.671345   183A      0.679881  
     184A      0.686677   185A      0.693659   186A      0.696272  
     187A      0.704221   188A      0.706617   189A      0.714457  
     190A      0.720981   191A      0.727963   192A      0.731958  
     193A      0.739466   194A      0.745030   195A      0.746681  
     196A      0.762229   197A      0.772391   198A      0.775632  
     199A      0.777196   200A      0.790810   201A      0.793838  
     202A      0.808036   203A      0.824738   204A      0.827663  
     205A      0.830581   206A      0.842334   207A      0.844952  
     208A      0.848575   209A      0.852486   210A      0.859094  
     211A      0.866628   212A      0.875221   213A      0.879282  
     214A      0.885441   215A      0.887729   216A      0.892350  
     217A      0.894435   218A      0.902913   219A      0.904251  
     220A      0.910964   221A      0.915248   222A      0.917971  
     223A      0.924805   224A      0.929373   225A      0.934744  
     226A      0.943709   227A      0.946379   228A      0.951175  
     229A      0.958275   230A      0.963204   231A      0.968405  
     232A      0.972005   233A      0.975583   234A      0.983722  
     235A      0.984718   236A      0.992527   237A      0.996816  
     238A      1.000841   239A      1.005234   240A      1.006717  
     241A      1.010489   242A      1.013575   243A      1.019816  
     244A      1.026263   245A      1.039581   246A      1.040638  
     247A      1.045941   248A      1.056033   249A      1.058034  
     250A      1.063199   251A      1.074238   252A      1.078698  
     253A      1.081943   254A      1.086595   255A      1.093426  
     256A      1.094448   257A      1.099588   258A      1.106027  
     259A      1.113497   260A      1.116402   261A      1.124217  
     262A      1.132240   263A      1.133797   264A      1.137997  
     265A      1.140161   266A      1.143625   267A      1.147797  
     268A      1.156332   269A      1.161163   270A      1.164494  
     271A      1.174549   272A      1.179122   273A      1.181154  
     274A      1.188603   275A      1.192448   276A      1.203364  
     277A      1.209783   278A      1.211462   279A      1.215808  
     280A      1.216729   281A      1.226383   282A      1.229814  
     283A      1.233440   284A      1.240901   285A      1.249989  
     286A      1.257082   287A      1.263087   288A      1.265077  
     289A      1.273261   290A      1.281343   291A      1.283171  
     292A      1.285013   293A      1.291043   294A      1.296677  
     295A      1.302105   296A      1.309712   297A      1.312590  
     298A      1.314287   299A      1.322324   300A      1.331718  
     301A      1.337020   302A      1.343156   303A      1.347942  
     304A      1.352478   305A      1.372725   306A      1.375014  
     307A      1.382830   308A      1.385219   309A      1.394284  
     310A      1.409531   311A      1.415607   312A      1.418170  
     313A      1.432371   314A      1.442313   315A      1.443716  
     316A      1.450188   317A      1.456033   318A      1.462507  
     319A      1.465519   320A      1.479528   321A      1.487291  
     322A      1.490519   323A      1.494255   324A      1.509785  
     325A      1.511561   326A      1.518990   327A      1.520319  
     328A      1.526906   329A      1.531820   330A      1.545350  
     331A      1.553845   332A      1.560434   333A      1.565551  
     334A      1.581337   335A      1.589706   336A      1.598800  
     337A      1.608506   338A      1.613313   339A      1.615736  
     340A      1.621329   341A      1.628155   342A      1.642322  
     343A      1.649860   344A      1.656614   345A      1.658949  
     346A      1.663871   347A      1.673504   348A      1.682060  
     349A      1.686064   350A      1.690535   351A      1.697125  
     352A      1.700824   353A      1.706380   354A      1.713582  
     355A      1.714872   356A      1.720883   357A      1.732367  
     358A      1.736743   359A      1.746896   360A      1.748116  
     361A      1.754913   362A      1.758210   363A      1.763082  
     364A      1.767105   365A      1.772781   366A      1.785092  
     367A      1.787370   368A      1.789340   369A      1.801328  
     370A      1.806046   371A      1.810385   372A      1.821060  
     373A      1.829304   374A      1.835691   375A      1.837773  
     376A      1.843638   377A      1.851512   378A      1.857815  
     379A      1.862546   380A      1.866623   381A      1.880790  
     382A      1.882543   383A      1.886427   384A      1.892866  
     385A      1.896771   386A      1.901505   387A      1.909334  
     388A      1.913168   389A      1.923580   390A      1.928672  
     391A      1.933575   392A      1.941797   393A      1.942843  
     394A      1.952998   395A      1.962787   396A      1.967999  
     397A      1.981834   398A      1.988149   399A      1.998089  
     400A      2.004115   401A      2.010703   402A      2.012967  
     403A      2.026676   404A      2.029721   405A      2.043742  
     406A      2.048139   407A      2.051420   408A      2.057763  
     409A      2.063837   410A      2.068658   411A      2.079004  
     412A      2.085999   413A      2.092837   414A      2.097045  
     415A      2.103734   416A      2.109996   417A      2.120255  
     418A      2.130638   419A      2.135417   420A      2.140328  
     421A      2.146667   422A      2.161133   423A      2.175955  
     424A      2.177217   425A      2.186255   426A      2.190542  
     427A      2.198284   428A      2.207479   429A      2.216603  
     430A      2.224636   431A      2.236803   432A      2.242682  
     433A      2.252127   434A      2.262366   435A      2.269034  
     436A      2.281763   437A      2.290898   438A      2.292311  
     439A      2.304678   440A      2.315682   441A      2.320188  
     442A      2.321842   443A      2.335723   444A      2.339536  
     445A      2.351178   446A      2.356423   447A      2.359218  
     448A      2.371456   449A      2.379042   450A      2.387211  
     451A      2.399816   452A      2.427885   453A      2.432218  
     454A      2.438910   455A      2.449003   456A      2.458744  
     457A      2.466165   458A      2.471194   459A      2.477023  
     460A      2.484576   461A      2.503511   462A      2.519673  
     463A      2.524501   464A      2.539965   465A      2.543355  
     466A      2.563816   467A      2.570145   468A      2.589541  
     469A      2.592002   470A      2.608453   471A      2.617313  
     472A      2.637950   473A      2.642763   474A      2.650947  
     475A      2.683594   476A      2.699020   477A      2.703253  
     478A      2.727732   479A      2.734179   480A      2.777635  
     481A      2.797723   482A      2.815516   483A      2.848267  
     484A      2.863114   485A      2.901709   486A      2.942191  
     487A      3.010880   488A      3.018354   489A      3.053798  
     490A      3.130133   491A      3.186082   492A      3.206835  
     493A      3.277510   494A      3.324442   495A      3.327160  
     496A      3.417909   497A      3.438671   498A      3.449720  
     499A      3.457704   500A      3.466789   501A      3.479889  
     502A      3.491811   503A      3.518205   504A      3.520363  
     505A      3.542251   506A      3.544784   507A      3.562536  
     508A      3.575069   509A      3.581584   510A      3.600847  
     511A      3.611685   512A      3.622291   513A      3.629785  
     514A      3.644311   515A      3.654843   516A      3.663752  
     517A      3.667371   518A      3.678012   519A      3.680622  
     520A      3.702453   521A      3.705372   522A      3.712247  
     523A      3.720359   524A      3.734241   525A      3.735438  
     526A      3.747589   527A      3.750898   528A      3.754860  
     529A      3.772439   530A      3.783669   531A      3.798453  
     532A      3.805219   533A      3.812086   534A      3.819988  
     535A      3.828961   536A      3.839367   537A      3.844625  
     538A      3.851622   539A      3.856465   540A      3.859836  
     541A      3.878660   542A      3.891060   543A      3.899406  
     544A      3.907354   545A      3.913479   546A      3.920032  
     547A      3.928773   548A      3.936032   549A      3.939260  
     550A      3.949524   551A      3.953538   552A      3.957922  
     553A      3.967697   554A      3.978856   555A      3.987827  
     556A      3.990913   557A      3.996009   558A      4.002967  
     559A      4.010971   560A      4.021947   561A      4.030659  
     562A      4.031573   563A      4.040094   564A      4.057494  
     565A      4.060341   566A      4.061324   567A      4.072131  
     568A      4.080859   569A      4.087000   570A      4.088892  
     571A      4.102471   572A      4.114494   573A      4.115039  
     574A      4.123147   575A      4.123840   576A      4.136963  
     577A      4.156831   578A      4.166989   579A      4.175167  
     580A      4.182168   581A      4.189139   582A      4.194823  
     583A      4.201478   584A      4.216645   585A      4.226315  
     586A      4.236787   587A      4.242252   588A      4.263443  
     589A      4.264723   590A      4.273521   591A      4.288265  
     592A      4.294647   593A      4.304533   594A      4.315505  
     595A      4.322487   596A      4.327963   597A      4.331235  
     598A      4.337569   599A      4.357254   600A      4.377324  
     601A      4.387064   602A      4.401389   603A      4.409959  
     604A      4.417878   605A      4.419705   606A      4.431589  
     607A      4.439570   608A      4.463181   609A      4.467879  
     610A      4.483392   611A      4.495406   612A      4.520433  
     613A      4.523654   614A      4.546639   615A      4.559392  
     616A      4.576341   617A      4.590417   618A      4.597382  
     619A      4.610376   620A      4.625679   621A      4.636852  
     622A      4.650647   623A      4.663747   624A      4.681792  
     625A      4.689900   626A      4.699776   627A      4.704765  
     628A      4.713176   629A      4.730591   630A      4.734297  
     631A      4.750206   632A      4.763546   633A      4.768799  
     634A      4.781731   635A      4.790991   636A      4.803730  
     637A      4.809913   638A      4.829593   639A      4.835221  
     640A      4.838448   641A      4.854594   642A      4.862691  
     643A      4.870185   644A      4.886867   645A      4.901446  
     646A      4.902262   647A      4.910014   648A      4.920727  
     649A      4.926005   650A      4.943966   651A      4.947164  
     652A      4.966840   653A      4.969046   654A      4.990506  
     655A      4.992149   656A      5.006128   657A      5.022300  
     658A      5.039262   659A      5.045813   660A      5.071260  
     661A      5.078423   662A      5.085190   663A      5.102266  
     664A      5.109860   665A      5.121827   666A      5.125581  
     667A      5.152504   668A      5.164082   669A      5.169188  
     670A      5.171033   671A      5.173163   672A      5.203696  
     673A      5.209354   674A      5.225934   675A      5.240711  
     676A      5.242762   677A      5.251080   678A      5.275209  
     679A      5.296600   680A      5.301611   681A      5.311956  
     682A      5.318024   683A      5.333590   684A      5.344799  
     685A      5.349535   686A      5.361322   687A      5.378177  
     688A      5.383372   689A      5.394127   690A      5.410313  
     691A      5.412367   692A      5.417738   693A      5.432136  
     694A      5.440450   695A      5.451625   696A      5.461238  
     697A      5.486607   698A      5.496799   699A      5.499372  
     700A      5.505195   701A      5.528989   702A      5.534863  
     703A      5.542225   704A      5.562885   705A      5.569412  
     706A      5.570598   707A      5.598888   708A      5.606970  
     709A      5.628784   710A      5.638835   711A      5.655071  
     712A      5.663147   713A      5.682839   714A      5.691049  
     715A      5.696512   716A      5.704870   717A      5.715098  
     718A      5.724812   719A      5.736686   720A      5.748518  
     721A      5.762216   722A      5.778329   723A      5.787330  
     724A      5.800209   725A      5.816182   726A      5.827584  
     727A      5.838780   728A      5.852994   729A      5.863376  
     730A      5.887398   731A      5.921402   732A      5.928186  
     733A      5.959731   734A      5.995124   735A      6.043842  
     736A      6.055935   737A      6.060256   738A      6.070082  
     739A      6.088741   740A      6.112247   741A      6.141753  
     742A      6.167523   743A      6.177555   744A      6.204818  
     745A      6.215309   746A      6.250239   747A      6.267731  
     748A      6.271435   749A      6.294737   750A      6.298931  
     751A      6.305942   752A      6.343002   753A      6.354547  
     754A      6.364810   755A      6.373847   756A      6.393698  
     757A      6.414307   758A      6.476591   759A      6.582997  
     760A      6.653532   761A      6.684363   762A      6.706460  
     763A      6.722749   764A      6.791753   765A      6.801572  
     766A      6.820362   767A      6.894795   768A      6.900038  
     769A      6.942101   770A      6.990903   771A      7.004674  
     772A      7.040269   773A      7.100429   774A      7.120276  
     775A     17.956164   776A     18.169732   777A     18.437377  
     778A     18.552289   779A     18.666399   780A     18.962073  
     781A     19.438687   782A     19.835415  

    Final Occupation by Irrep:
              A 
    DOCC [    33 ]

  Energy converged.

  @DF-RHF Final Energy:  -313.53692797889545

   => Energetics <=

    Nuclear Repulsion Energy =            395.8040119263322936
    One-Electron Energy =               -1206.7608993872647716
    Two-Electron Energy =                 497.4199594820370294
    DFT Exchange-Correlation Energy =       0.0000000000000000
    Empirical Dispersion Energy =           0.0000000000000000
    PCM Polarization Energy =               0.0000000000000000
    EFP Energy =                            0.0000000000000000
    Total Energy =                       -313.5369279788953918


  Saving occupied orbitals to File 180.

*** tstop() called on wr38 at Wed Sep 21 04:59:02 2016
Module time:
	user time   =     957.68 seconds =      15.96 minutes
	system time =      12.36 seconds =       0.21 minutes
	total time  =         88 seconds =       1.47 minutes
Total time:
	user time   =     957.68 seconds =      15.96 minutes
	system time =      12.36 seconds =       0.21 minutes
	total time  =         88 seconds =       1.47 minutes


Properties will be evaluated at   0.000000,   0.000000,   0.000000 Bohr

Properties computed using the SCF density matrix

  Nuclear Dipole Moment: (a.u.)
     X:    -0.1515      Y:     0.6571      Z:    -1.0714

  Electronic Dipole Moment: (a.u.)
     X:     0.1396      Y:    -0.6495      Z:     1.1053

  Dipole Moment: (a.u.)
     X:    -0.0119      Y:     0.0076      Z:     0.0339     Total:     0.0367

  Dipole Moment: (Debye)
     X:    -0.0302      Y:     0.0193      Z:     0.0862     Total:     0.0933


  //>>>>>>>>>>>>>>>>>>>>>>>>>>>>>>>>>>>//
  //               DFMP2               //
  //<<<<<<<<<<<<<<<<<<<<<<<<<<<<<<<<<<<//


*** tstart() called on wr38
*** at Wed Sep 21 04:59:02 2016


*** tstop() called on wr38 at Wed Sep 21 04:59:03 2016
Module time:
	user time   =       3.72 seconds =       0.06 minutes
	system time =       0.17 seconds =       0.00 minutes
	total time  =          1 seconds =       0.02 minutes
Total time:
	user time   =     962.99 seconds =      16.05 minutes
	system time =      12.57 seconds =       0.21 minutes
	total time  =         89 seconds =       1.48 minutes
	 --------------------------------------------------------
	                          DF-MP2                         
	      2nd-Order Density-Fitted Moller-Plesset Theory     
	              RMP2 Wavefunction,  12 Threads             
	                                                         
	        Rob Parrish, Justin Turney, Andy Simmonett,      
	           Ed Hohenstein, and C. David Sherrill          
	 --------------------------------------------------------

   => Auxiliary Basis Set <=

  Basis Set: 
    Number of shells: 476
    Number of basis function: 1676
    Number of Cartesian functions: 2078
    Spherical Harmonics?: true
    Max angular momentum: 4

	 --------------------------------------------------------
	                 NBF =   782, NAUX =  1676
	 --------------------------------------------------------
	   CLASS    FOCC     OCC    AOCC    AVIR     VIR    FVIR
	   PAIRS       8      33      25     749     749       0
	 --------------------------------------------------------

DGAS Warning! /src/lib/libfock/apps.cc:80 is not currently checking restricted

         ------------------------------------------------------------
                                     CPHF                           
                                  Rob Parrish                       
         ------------------------------------------------------------

  ==> Geometry <==

    Molecular point group: c1
    Full point group: C1

    Geometry (in Angstrom), charge = 0, multiplicity = 1:

       Center              X                  Y                   Z               Mass       
    ------------   -----------------  -----------------  -----------------  -----------------
           C          3.334478168405     0.694418973462    -0.665759004146    12.000000000000
           H          4.173265400207     0.078059103537    -0.338987409986     1.007825032070
           H          3.720687956956     1.682526318694    -0.915044714317     1.007825032070
           H          2.937244610674     0.254330982633    -1.580599145733     1.007825032070
           C         -3.546044107064     0.157556319939    -0.701676067569    12.000000000000
           H         -3.293544590870     0.659508607019    -1.637256711767     1.007825032070
           H         -4.591987578321     0.369163494462    -0.480737914603     1.007825032070
           H         -3.455340806026    -0.915603764341    -0.863796611275     1.007825032070
           C          2.271496319380     0.771635193461     0.425029793701    12.000000000000
           H          1.466845088568     1.436967125084     0.106088314024     1.007825032070
           H          2.711222294225     1.219020956585     1.319465954242     1.007825032070
           C         -2.638226083297     0.637252452589     0.426010381035    12.000000000000
           H         -2.839546207782     1.692962425419     0.620949480860     1.007825032070
           H         -2.881075888543     0.100726824283     1.347553407392     1.007825032070
           C          1.697177094591    -0.602394124025     0.776730137527    12.000000000000
           H          1.151691055630    -0.544476025068     1.723252983186     1.007825032070
           H          2.535670431331    -1.282010430528     0.951221727679     1.007825032070
           C          0.765545988481    -1.187310575033    -0.296386259700    12.000000000000
           H          0.954779286576    -2.256828138951    -0.408312294960     1.007825032070
           H          0.992381839658    -0.736716428775    -1.267124967641     1.007825032070
           C         -0.720763277332    -0.993995517188     0.005980617074    12.000000000000
           H         -1.303181460086    -1.483824628234    -0.777689082819     1.007825032070
           H         -0.961911152894    -1.509351076024     0.942142985486     1.007825032070
           C         -1.150092353861     0.463973767215     0.126050215906    12.000000000000
           H         -0.573155717598     0.945507397694     0.919076338292     1.007825032070
           H         -0.905641055603     0.990914980800    -0.803017538391     1.007825032070

  Nuclear repulsion =  395.804011926332294
  Reference energy  = -313.536927978895449

  ==> Basis Set <==

  Basis Set: AUG-CC-PVTZ
    Number of shells: 274
    Number of basis function: 782
    Number of Cartesian functions: 890
    Spherical Harmonics?: true
    Max angular momentum: 3

  ==> CGRSolver (by Rob Parrish) <==

   Number of roots    =         1
   Preconditioning    =    JACOBI
   Convergence cutoff =     1E-06
   Maximum iterations =       100

  ==> CPHFRHamiltonian (by Rob Parrish) <== 

  ==> DFJK: Density-Fitted J/K Matrices <==

    J tasked:                  Yes
    K tasked:                  Yes
    wK tasked:                  No
    OpenMP threads:             12
    Integrals threads:          12
    Memory (MB):             42915
    Algorithm:                Core
    Integral Cache:           NONE
    Schwarz Cutoff:          1E-12
    Fitting Condition:       1E-12

   => Auxiliary Basis Set <=

  Basis Set: 
    Number of shells: 492
    Number of basis function: 1660
    Number of Cartesian functions: 2038
    Spherical Harmonics?: true
    Max angular momentum: 4

  ==> CPHF Iterations <==

  => Iterations <=

             Iter  Converged  Remaining    Residual
  CGR           1          0          1   9.170E-02
  CGR           2          0          1   1.295E-02
  CGR           3          0          1   3.506E-03
  CGR           4          0          1   8.591E-04
  CGR           5          0          1   2.045E-04
  CGR           6          0          1   4.499E-05
  CGR           7          0          1   1.241E-05
  CGR           8          0          1   3.346E-06
  CGR           9          1          0   9.248E-07

    CGRSolver converged.

  ==> DFCorrGrad: Density-Fitted Correlated Gradients <==

    OpenMP threads:             12
    Integrals threads:          12
    Memory (MB):             42915
    Schwarz Cutoff:          0E+00
    Fitting Condition:       1E-12

   => Auxiliary Basis Set <=

  Basis Set: 
    Number of shells: 492
    Number of basis function: 1660
    Number of Cartesian functions: 2038
    Spherical Harmonics?: true
    Max angular momentum: 4

	-----------------------------------------------------------
	 ==================> DF-MP2 Energies <==================== 
	-----------------------------------------------------------
	 Reference Energy          =    -313.5369279788954486 [Eh]
	 Singles Energy            =      -0.0000000000000000 [Eh]
	 Same-Spin Energy          =      -0.3166619563275558 [Eh]
	 Opposite-Spin Energy      =      -1.1261083460116530 [Eh]
	 Correlation Energy        =      -1.4427703023392087 [Eh]
	 Total Energy              =    -314.9796982812346755 [Eh]
	-----------------------------------------------------------
	 ================> DF-SCS-MP2 Energies <================== 
	-----------------------------------------------------------
	 SCS Same-Spin Scale       =       0.3333333333333333 [-]
	 SCS Opposite-Spin Scale   =       1.2000000000000000 [-]
	 SCS Same-Spin Energy      =      -0.1055539854425186 [Eh]
	 SCS Opposite-Spin Energy  =      -1.3513300152139835 [Eh]
	 SCS Correlation Energy    =      -1.4568840006565020 [Eh]
	 SCS Total Energy          =    -314.9938119795519356 [Eh]
	-----------------------------------------------------------


  -Total Gradient:
     Atom            X                  Y                   Z
    ------   -----------------  -----------------  -----------------
       1       -0.000000635915     0.000000067366     0.000000490392
       2        0.000000562653    -0.000000401379     0.000000118678
       3        0.000000178936     0.000000655112    -0.000000090215
       4       -0.000000195411    -0.000000300793    -0.000000664074
       5        0.000000744265     0.000000357226     0.000000900224
       6        0.000000222165     0.000000477951    -0.000001173296
       7       -0.000001050590     0.000000259156     0.000000337048
       8        0.000000087340    -0.000001314695    -0.000000343946
       9        0.000000538782    -0.000001200374    -0.000000521359
      10       -0.000000897697     0.000000744277    -0.000000346944
      11        0.000000415687     0.000000249040     0.000000776650
      12        0.000000083984    -0.000000279102    -0.000001312175
      13       -0.000000408089     0.000001266580     0.000000171323
      14       -0.000000451105    -0.000000763281     0.000001314086
      15        0.000000400599     0.000000577021    -0.000000886425
      16       -0.000000687303     0.000000028719     0.000000871519
      17        0.000000552345    -0.000000326809     0.000000020522
      18       -0.000000960595     0.000000315524     0.000001581525
      19        0.000000256431    -0.000001108739     0.000000083808
      20        0.000000655385     0.000000467975    -0.000001390518
      21        0.000001527162     0.000001294380    -0.000000415443
      22       -0.000000895451    -0.000000548441    -0.000001096526
      23       -0.000000271568    -0.000001078314     0.000001680334
      24       -0.000001261152    -0.000001821987     0.000000253079
      25        0.000000995441     0.000000939948     0.000001165175
      26        0.000000493704     0.000001443638    -0.000001523436


			-----------------------------------------
			 OPTKING 2.0: for geometry optimizations 
			  - R.A. King,  Bethel University        
			-----------------------------------------

	Internal coordinates to be generated automatically.
	Detected frag 1 with atoms:  1 2 3 4 5 6 7 8 9 10 11 12 13 14 15 16 17 18 19 20
	 21 22 23 24 25 26
	---Fragment 1 Bond Connectivity---
	 1 : 2 3 4 9
	 2 : 1
	 3 : 1
	 4 : 1
	 5 : 6 7 8 12
	 6 : 5
	 7 : 5
	 8 : 5
	 9 : 1 10 11 15
	 10 : 9
	 11 : 9
	 12 : 5 13 14 24
	 13 : 12
	 14 : 12
	 15 : 9 16 17 18
	 16 : 15
	 17 : 15
	 18 : 15 19 20 21
	 19 : 18
	 20 : 18
	 21 : 18 22 23 24
	 22 : 21
	 23 : 21
	 24 : 12 21 25 26
	 25 : 24
	 26 : 24

	---Fragment 1 Geometry and Gradient---
	 C           6.3012505344        1.3122616813       -1.2581021883
	 H           7.8863286862        0.1475103279       -0.6405933674
	 H           7.0310812646        3.1795139537       -1.7291839094
	 H           5.5505878995        0.4806159043       -2.9868995113
	 C          -6.7010522175        0.2977382952       -1.3259756017
	 H          -6.2238972832        1.2462906495       -3.0939667945
	 H          -8.6775989286        0.6976179028       -0.9084630003
	 H          -6.5296478192       -1.7302403608       -1.6323390298
	 C           4.2925059555        1.4581791901        0.8031899084
	 H           2.7719354968        2.7154743284        0.2004778594
	 H           5.1234676215        2.3036157582        2.4934292952
	 C          -4.9855247741        1.2042326129        0.8050429499
	 H          -5.3659646744        3.1992353373        1.1734244612
	 H          -5.4444443974        0.1903461121        2.5465068894
	 C           3.2071999078       -1.1383599185        1.4678072391
	 H           2.1763806848       -1.0289105733        3.2564761959
	 H           4.7917226785       -2.4226486132        1.7975485570
	 C           1.4466722604       -2.2436918215       -0.5600888604
	 H           1.8042713690       -4.2647871116       -0.7715984142
	 H           1.8753298962       -1.3921922880       -2.3945191650
	 C          -1.3620452008       -1.8783793048        0.0113017284
	 H          -2.4626560610       -2.8040221766       -1.4696193831
	 H          -1.8177486431       -2.8522601721        1.7803922206
	 C          -2.1733595763        0.8767833529        0.2382003871
	 H          -1.0831073378        1.7867500383        1.7368025746
	 H          -1.7114135698        1.8725579347       -1.5174832275
	            -0.0000006359        0.0000000674        0.0000004904
	             0.0000005627       -0.0000004014        0.0000001187
	             0.0000001789        0.0000006551       -0.0000000902
	            -0.0000001954       -0.0000003008       -0.0000006641
	             0.0000007443        0.0000003572        0.0000009002
	             0.0000002222        0.0000004780       -0.0000011733
	            -0.0000010506        0.0000002592        0.0000003370
	             0.0000000873       -0.0000013147       -0.0000003439
	             0.0000005388       -0.0000012004       -0.0000005214
	            -0.0000008977        0.0000007443       -0.0000003469
	             0.0000004157        0.0000002490        0.0000007767
	             0.0000000840       -0.0000002791       -0.0000013122
	            -0.0000004081        0.0000012666        0.0000001713
	            -0.0000004511       -0.0000007633        0.0000013141
	             0.0000004006        0.0000005770       -0.0000008864
	            -0.0000006873        0.0000000287        0.0000008715
	             0.0000005523       -0.0000003268        0.0000000205
	            -0.0000009606        0.0000003155        0.0000015815
	             0.0000002564       -0.0000011087        0.0000000838
	             0.0000006554        0.0000004680       -0.0000013905
	             0.0000015272        0.0000012944       -0.0000004154
	            -0.0000008955       -0.0000005484       -0.0000010965
	            -0.0000002716       -0.0000010783        0.0000016803
	            -0.0000012612       -0.0000018220        0.0000002531
	             0.0000009954        0.0000009399        0.0000011652
	             0.0000004937        0.0000014436       -0.0000015234

	Previous optimization step data not found.  Starting new optimization.

	---Fragment 1 Intrafragment Coordinates---
	 - Coordinate -           - BOHR/RAD -       - ANG/DEG -
	 R(1,2)           =         2.061658	       1.090983
	 R(1,3)           =         2.059418	       1.089797
	 R(1,4)           =         2.060065	       1.090140
	 R(1,9)           =         2.881887	       1.525029
	 R(5,6)           =         2.062334	       1.091340
	 R(5,7)           =         2.059358	       1.089766
	 R(5,8)           =         2.058139	       1.089120
	 R(5,12)          =         2.882014	       1.525096
	 R(9,10)          =         2.063053	       1.091721
	 R(9,11)          =         2.064502	       1.092488
	 R(9,15)          =         2.891647	       1.530194
	 R(12,13)         =         2.064092	       1.092270
	 R(12,14)         =         2.066705	       1.093653
	 R(12,24)         =         2.887353	       1.527921
	 R(15,16)         =         2.067342	       1.093990
	 R(15,17)         =         2.066117	       1.093342
	 R(15,18)         =         2.904062	       1.536764
	 R(18,19)         =         2.063356	       1.091881
	 R(18,20)         =         2.067349	       1.093994
	 R(18,21)         =         2.889435	       1.529023
	 R(21,22)         =         2.064288	       1.092374
	 R(21,23)         =         2.070215	       1.095511
	 R(21,24)         =         2.881082	       1.524603
	 R(24,25)         =         2.064582	       1.092530
	 R(24,26)         =         2.070600	       1.095715
	 B(1,9,10)        =         1.913079	     109.611367
	 B(1,9,11)        =         1.902628	     109.012537
	 B(1,9,15)        =         1.961177	     112.367143
	 B(2,1,3)         =         1.884191	     107.956212
	 B(2,1,4)         =         1.879095	     107.664200
	 B(2,1,9)         =         1.928654	     110.503741
	 B(3,1,4)         =         1.878847	     107.650012
	 B(3,1,9)         =         1.944128	     111.390344
	 B(4,1,9)         =         1.946250	     111.511891
	 B(5,12,13)       =         1.903140	     109.041875
	 B(5,12,14)       =         1.914071	     109.668215
	 B(5,12,24)       =         1.981134	     113.510634
	 B(6,5,7)         =         1.882369	     107.851823
	 B(6,5,8)         =         1.882124	     107.837781
	 B(6,5,12)        =         1.929967	     110.578989
	 B(7,5,8)         =         1.877001	     107.544250
	 B(7,5,12)        =         1.939420	     111.120564
	 B(8,5,12)        =         1.950256	     111.741422
	 B(9,15,16)       =         1.916080	     109.783315
	 B(9,15,17)       =         1.882836	     107.878530
	 B(9,15,18)       =         1.991944	     114.129973
	 B(10,9,11)       =         1.861134	     106.635134
	 B(10,9,15)       =         1.915325	     109.740018
	 B(11,9,15)       =         1.907749	     109.305959
	 B(12,24,21)      =         1.980328	     113.464461
	 B(12,24,25)      =         1.898466	     108.774085
	 B(12,24,26)      =         1.906263	     109.220825
	 B(13,12,14)      =         1.857558	     106.430247
	 B(13,12,24)      =         1.900924	     108.914895
	 B(14,12,24)      =         1.902929	     109.029779
	 B(15,18,19)      =         1.917007	     109.836392
	 B(15,18,20)      =         1.914690	     109.703630
	 B(15,18,21)      =         1.985680	     113.771075
	 B(16,15,17)      =         1.851699	     106.094545
	 B(16,15,18)      =         1.898680	     108.786323
	 B(17,15,18)      =         1.917477	     109.863338
	 B(18,21,22)      =         1.896223	     108.645599
	 B(18,21,23)      =         1.900208	     108.873875
	 B(18,21,24)      =         1.993483	     114.218185
	 B(19,18,20)      =         1.850999	     106.054422
	 B(19,18,21)      =         1.888704	     108.214777
	 B(20,18,21)      =         1.901757	     108.962662
	 B(21,24,25)      =         1.907044	     109.265550
	 B(21,24,26)      =         1.907408	     109.286450
	 B(22,21,23)      =         1.859537	     106.543630
	 B(22,21,24)      =         1.912580	     109.582767
	 B(23,21,24)      =         1.897136	     108.697908
	 B(25,24,26)      =         1.860525	     106.600223
	 D(1,9,15,16)     =         2.878646	     164.934293
	 D(1,9,15,17)     =         0.868237	      49.746339
	 D(1,9,15,18)     =        -1.267895	     -72.645047
	 D(2,1,9,10)      =         3.085248	     176.771682
	 D(2,1,9,11)      =         1.054154	      60.398592
	 D(2,1,9,15)      =        -1.063411	     -60.928955
	 D(3,1,9,10)      =         0.990886	      56.773596
	 D(3,1,9,11)      =        -1.040207	     -59.599493
	 D(3,1,9,15)      =         3.125413	     179.072959
	 D(4,1,9,10)      =        -1.108600	     -63.518121
	 D(4,1,9,11)      =        -3.139694	    -179.891211
	 D(4,1,9,15)      =         1.025926	      58.781242
	 D(5,12,24,21)    =        -1.141339	     -65.393927
	 D(5,12,24,25)    =         3.015447	     172.772372
	 D(5,12,24,26)    =         0.991197	      56.791431
	 D(6,5,12,13)     =         1.147415	      65.742033
	 D(6,5,12,14)     =        -3.108123	    -178.082348
	 D(6,5,12,24)     =        -0.975066	     -55.867183
	 D(7,5,12,13)     =        -0.942441	     -53.997900
	 D(7,5,12,14)     =         1.085206	      62.177719
	 D(7,5,12,24)     =        -3.064922	    -175.607116
	 D(8,5,12,13)     =        -3.039079	    -174.126399
	 D(8,5,12,14)     =        -1.011432	     -57.950780
	 D(8,5,12,24)     =         1.121625	      64.264385
	 D(9,15,18,19)    =         2.433724	     139.442131
	 D(9,15,18,20)    =         0.405694	      23.244561
	 D(9,15,18,21)    =        -1.729484	     -99.092131
	 D(10,9,15,16)    =        -1.271284	     -72.839217
	 D(10,9,15,17)    =         3.001492	     171.972829
	 D(10,9,15,18)    =         0.865359	      49.581443
	 D(11,9,15,16)    =         0.764014	      43.774790
	 D(11,9,15,17)    =        -1.246395	     -71.413164
	 D(11,9,15,18)    =         2.900658	     166.195450
	 D(12,24,21,18)   =         3.139981	     179.907648
	 D(12,24,21,22)   =         1.008102	      57.759986
	 D(12,24,21,23)   =        -1.017697	     -58.309765
	 D(13,12,24,21)   =         3.018128	     172.925998
	 D(13,12,24,25)   =         0.891729	      51.092297
	 D(13,12,24,26)   =        -1.132520	     -64.888644
	 D(14,12,24,21)   =         0.997885	      57.174620
	 D(14,12,24,25)   =        -1.128514	     -64.659081
	 D(14,12,24,26)   =         3.130422	     179.359978
	 D(15,18,21,22)   =        -3.090067	    -177.047776
	 D(15,18,21,23)   =        -1.071509	     -61.392956
	 D(15,18,21,24)   =         1.052309	      60.292846
	 D(16,15,18,19)   =        -1.703331	     -97.593659
	 D(16,15,18,20)   =         2.551824	     146.208771
	 D(16,15,18,21)   =         0.416646	      23.872078
	 D(17,15,18,19)   =         0.316657	      18.143087
	 D(17,15,18,20)   =        -1.711374	     -98.054483
	 D(17,15,18,21)   =         2.436634	     139.608825
	 D(18,21,24,25)   =        -1.021593	     -58.532995
	 D(18,21,24,26)   =         1.008080	      57.758736
	 D(19,18,21,22)   =        -0.954419	     -54.684155
	 D(19,18,21,23)   =         1.064139	      60.970665
	 D(19,18,21,24)   =        -3.095229	    -177.343533
	 D(20,18,21,22)   =         1.050830	      60.208098
	 D(20,18,21,23)   =         3.069387	     175.862919
	 D(20,18,21,24)   =        -1.089980	     -62.451279
	 D(22,21,24,25)   =         3.129713	     179.319343
	 D(22,21,24,26)   =        -1.123799	     -64.388926
	 D(23,21,24,25)   =         1.103914	      63.249592
	 D(23,21,24,26)   =         3.133587	     179.541323
	 R(9,24)          =         6.516491	       3.448378

	Current energy   :      -314.9796982812

	Generating empirical Hessian (Schlegel '84) for each fragment.
	Taking RFO optimization step.
	Going to follow RFO solution 1.
	Using RFO vector 1.
	Norm of target step-size    0.00034
	Projected energy change by RFO approximation:         0.0000000002

	Back-transformation to cartesian coordinates...
	Successfully converged to displaced geometry.

	--- Internal Coordinate Step in ANG or DEG, aJ/ANG or AJ/DEG ---
	 ---------------------------------------------------------------------------
	   Coordinate                Previous        Force       Change         New 
	   ----------                --------       ------       ------       ------
	    1 R(1,2)          =      1.090983    -0.000006    -0.000001     1.090982
	    2 R(1,3)          =      1.089797    -0.000006    -0.000001     1.089796
	    3 R(1,4)          =      1.090140    -0.000006    -0.000001     1.090138
	    4 R(1,9)          =      1.525029    -0.000000    -0.000000     1.525029
	    5 R(5,6)          =      1.091340    -0.000011    -0.000002     1.091338
	    6 R(5,7)          =      1.089766    -0.000009    -0.000002     1.089764
	    7 R(5,8)          =      1.089120    -0.000011    -0.000002     1.089118
	    8 R(5,12)         =      1.525096    -0.000002    -0.000000     1.525096
	    9 R(9,10)         =      1.091721    -0.000010    -0.000002     1.091719
	   10 R(9,11)         =      1.092488    -0.000007    -0.000001     1.092486
	   11 R(9,15)         =      1.530194     0.000003     0.000000     1.530194
	   12 R(12,13)        =      1.092270    -0.000011    -0.000002     1.092268
	   13 R(12,14)        =      1.093653    -0.000013    -0.000002     1.093651
	   14 R(12,24)        =      1.527921    -0.000006    -0.000001     1.527920
	   15 R(15,16)        =      1.093990    -0.000009    -0.000002     1.093989
	   16 R(15,17)        =      1.093342    -0.000005    -0.000001     1.093341
	   17 R(15,18)        =      1.536764     0.000002    -0.000000     1.536763
	   18 R(18,19)        =      1.091881    -0.000009    -0.000002     1.091879
	   19 R(18,20)        =      1.093994    -0.000013    -0.000002     1.093992
	   20 R(18,21)        =      1.529023     0.000001    -0.000001     1.529022
	   21 R(21,22)        =      1.092374    -0.000013    -0.000002     1.092372
	   22 R(21,23)        =      1.095511    -0.000016    -0.000003     1.095508
	   23 R(21,24)        =      1.524603    -0.000006    -0.000001     1.524602
	   24 R(24,25)        =      1.092530    -0.000015    -0.000003     1.092527
	   25 R(24,26)        =      1.095715    -0.000017    -0.000003     1.095711
	   26 B(1,9,10)       =    109.611367     0.000000     0.000052   109.611419
	   27 B(1,9,11)       =    109.012537    -0.000000    -0.000033   109.012505
	   28 B(1,9,15)       =    112.367143    -0.000000    -0.000078   112.367066
	   29 B(2,1,3)        =    107.956212    -0.000000     0.000001   107.956213
	   30 B(2,1,4)        =    107.664200     0.000000     0.000020   107.664220
	   31 B(2,1,9)        =    110.503741    -0.000000    -0.000056   110.503684
	   32 B(3,1,4)        =    107.650012    -0.000000     0.000005   107.650016
	   33 B(3,1,9)        =    111.390344     0.000000     0.000081   111.390425
	   34 B(4,1,9)        =    111.511891    -0.000000    -0.000050   111.511842
	   35 B(5,12,13)      =    109.041875     0.000000     0.000056   109.041931
	   36 B(5,12,14)      =    109.668215     0.000000     0.000030   109.668246
	   37 B(5,12,24)      =    113.510634     0.000000     0.000036   113.510670
	   38 B(6,5,7)        =    107.851823    -0.000000     0.000009   107.851832
	   39 B(6,5,8)        =    107.837781     0.000000     0.000047   107.837828
	   40 B(6,5,12)       =    110.578989    -0.000000    -0.000061   110.578928
	   41 B(7,5,8)        =    107.544250    -0.000000    -0.000011   107.544239
	   42 B(7,5,12)       =    111.120564     0.000000     0.000099   111.120663
	   43 B(8,5,12)       =    111.741422    -0.000000    -0.000080   111.741343
	   44 B(9,15,16)      =    109.783315    -0.000000    -0.000108   109.783207
	   45 B(9,15,17)      =    107.878530    -0.000000     0.000112   107.878641
	   46 B(9,15,18)      =    114.129973     0.000000    -0.000039   114.129934
	   47 B(10,9,11)      =    106.635134    -0.000000    -0.000025   106.635109
	   48 B(10,9,15)      =    109.740018     0.000000     0.000009   109.740026
	   49 B(11,9,15)      =    109.305959     0.000000     0.000077   109.306036
	   50 B(12,24,21)     =    113.464461     0.000000     0.000068   113.464529
	   51 B(12,24,25)     =    108.774085    -0.000000    -0.000092   108.773993
	   52 B(12,24,26)     =    109.220825     0.000000     0.000117   109.220942
	   53 B(13,12,14)     =    106.430247     0.000000     0.000003   106.430250
	   54 B(13,12,24)     =    108.914895    -0.000000    -0.000087   108.914808
	   55 B(14,12,24)     =    109.029779    -0.000000    -0.000041   109.029738
	   56 B(15,18,19)     =    109.836392     0.000000     0.000201   109.836593
	   57 B(15,18,20)     =    109.703630     0.000000     0.000095   109.703725
	   58 B(15,18,21)     =    113.771075    -0.000000    -0.000339   113.770736
	   59 B(16,15,17)     =    106.094545     0.000000    -0.000054   106.094491
	   60 B(16,15,18)     =    108.786323    -0.000000    -0.000032   108.786291
	   61 B(17,15,18)     =    109.863338    -0.000000     0.000122   109.863460
	   62 B(18,21,22)     =    108.645599     0.000000     0.000165   108.645764
	   63 B(18,21,23)     =    108.873875     0.000000     0.000052   108.873927
	   64 B(18,21,24)     =    114.218185    -0.000000    -0.000408   114.217777
	   65 B(19,18,20)     =    106.054422    -0.000000     0.000095   106.054517
	   66 B(19,18,21)     =    108.214777    -0.000000     0.000141   108.214918
	   67 B(20,18,21)     =    108.962662    -0.000000    -0.000165   108.962496
	   68 B(21,24,25)     =    109.265550    -0.000000    -0.000053   109.265496
	   69 B(21,24,26)     =    109.286450    -0.000000    -0.000201   109.286249
	   70 B(22,21,23)     =    106.543630    -0.000000     0.000059   106.543689
	   71 B(22,21,24)     =    109.582767     0.000000     0.000212   109.582980
	   72 B(23,21,24)     =    108.697908     0.000000    -0.000051   108.697858
	   73 B(25,24,26)     =    106.600223     0.000000     0.000170   106.600393
	   74 D(1,9,15,16)    =    164.934293    -0.000000    -0.004664   164.929629
	   75 D(1,9,15,17)    =     49.746339    -0.000000    -0.004604    49.741735
	   76 D(1,9,15,18)    =    -72.645047    -0.000000    -0.004815   -72.649862
	   77 D(2,1,9,10)     =    176.771682     0.000000    -0.000382   176.771300
	   78 D(2,1,9,11)     =     60.398592     0.000000    -0.000363    60.398229
	   79 D(2,1,9,15)     =    -60.928955    -0.000000    -0.000387   -60.929342
	   80 D(3,1,9,10)     =     56.773596    -0.000000    -0.000400    56.773197
	   81 D(3,1,9,11)     =    -59.599493     0.000000    -0.000380   -59.599873
	   82 D(3,1,9,15)     =    179.072959    -0.000000    -0.000404   179.072555
	   83 D(4,1,9,10)     =    -63.518121    -0.000000    -0.000427   -63.518548
	   84 D(4,1,9,11)     =   -179.891211    -0.000000    -0.000408  -179.891618
	   85 D(4,1,9,15)     =     58.781242    -0.000000    -0.000432    58.780810
	   86 D(5,12,24,21)   =    -65.393927     0.000000     0.000106   -65.393820
	   87 D(5,12,24,25)   =    172.772372     0.000000     0.000196   172.772568
	   88 D(5,12,24,26)   =     56.791431    -0.000000    -0.000021    56.791411
	   89 D(6,5,12,13)    =     65.742033    -0.000000     0.000406    65.742439
	   90 D(6,5,12,14)    =   -178.082348     0.000000     0.000459  -178.081889
	   91 D(6,5,12,24)    =    -55.867183     0.000000     0.000453   -55.866729
	   92 D(7,5,12,13)    =    -53.997900    -0.000000     0.000370   -53.997530
	   93 D(7,5,12,14)    =     62.177719     0.000000     0.000423    62.178141
	   94 D(7,5,12,24)    =   -175.607116     0.000000     0.000417  -175.606699
	   95 D(8,5,12,13)    =   -174.126399    -0.000000     0.000370  -174.126029
	   96 D(8,5,12,14)    =    -57.950780     0.000000     0.000423   -57.950357
	   97 D(8,5,12,24)    =     64.264385     0.000000     0.000417    64.264803
	   98 D(9,15,18,19)   =    139.442131    -0.000000    -0.001085   139.441046
	   99 D(9,15,18,20)   =     23.244561    -0.000000    -0.001371    23.243190
	  100 D(9,15,18,21)   =    -99.092131    -0.000000    -0.000990   -99.093121
	  101 D(10,9,15,16)   =    -72.839217    -0.000000    -0.004644   -72.843861
	  102 D(10,9,15,17)   =    171.972829    -0.000000    -0.004584   171.968245
	  103 D(10,9,15,18)   =     49.581443    -0.000000    -0.004796    49.576648
	  104 D(11,9,15,16)   =     43.774790    -0.000000    -0.004625    43.770166
	  105 D(11,9,15,17)   =    -71.413164     0.000000    -0.004564   -71.417728
	  106 D(11,9,15,18)   =    166.195450    -0.000000    -0.004776   166.190674
	  107 D(12,24,21,18)  =    179.907648     0.000000     0.003615   179.911263
	  108 D(12,24,21,22)  =     57.759986     0.000000     0.003526    57.763512
	  109 D(12,24,21,23)  =    -58.309765     0.000000     0.003368   -58.306397
	  110 D(13,12,24,21)  =    172.925998     0.000000     0.000073   172.926072
	  111 D(13,12,24,25)  =     51.092297     0.000000     0.000163    51.092460
	  112 D(13,12,24,26)  =    -64.888644    -0.000000    -0.000053   -64.888697
	  113 D(14,12,24,21)  =     57.174620     0.000000     0.000140    57.174760
	  114 D(14,12,24,25)  =    -64.659081     0.000000     0.000229   -64.658852
	  115 D(14,12,24,26)  =    179.359978    -0.000000     0.000013   179.359991
	  116 D(15,18,21,22)  =   -177.047776     0.000000     0.002079  -177.045697
	  117 D(15,18,21,23)  =    -61.392956     0.000000     0.002266   -61.390690
	  118 D(15,18,21,24)  =     60.292846     0.000000     0.001961    60.294807
	  119 D(16,15,18,19)  =    -97.593659     0.000000    -0.001277   -97.594936
	  120 D(16,15,18,20)  =    146.208771    -0.000000    -0.001563   146.207208
	  121 D(16,15,18,21)  =     23.872078    -0.000000    -0.001181    23.870897
	  122 D(17,15,18,19)  =     18.143087    -0.000000    -0.001293    18.141794
	  123 D(17,15,18,20)  =    -98.054483    -0.000000    -0.001579   -98.056062
	  124 D(17,15,18,21)  =    139.608825    -0.000000    -0.001197   139.607627
	  125 D(18,21,24,25)  =    -58.532995     0.000000     0.003504   -58.529492
	  126 D(18,21,24,26)  =     57.758736     0.000000     0.003565    57.762301
	  127 D(19,18,21,22)  =    -54.684155     0.000000     0.002213   -54.681942
	  128 D(19,18,21,23)  =     60.970665     0.000000     0.002399    60.973065
	  129 D(19,18,21,24)  =   -177.343533     0.000000     0.002095  -177.341438
	  130 D(20,18,21,22)  =     60.208098     0.000000     0.002314    60.210412
	  131 D(20,18,21,23)  =    175.862919     0.000000     0.002500   175.865419
	  132 D(20,18,21,24)  =    -62.451279    -0.000000     0.002196   -62.449083
	  133 D(22,21,24,25)  =    179.319343     0.000000     0.003415   179.322758
	  134 D(22,21,24,26)  =    -64.388926     0.000000     0.003476   -64.385450
	  135 D(23,21,24,25)  =     63.249592     0.000000     0.003257    63.252849
	  136 D(23,21,24,26)  =    179.541323     0.000000     0.003318   179.544641
	  137 R(9,24)         =      3.448378    -0.000003     0.000010     3.448388
	 ---------------------------------------------------------------------------

  ==> Convergence Check <==

  Measures of convergence in internal coordinates in au.
  Criteria marked as inactive (o), active & met (*), and active & unmet ( ).
  --------------------------------------------------------------------------------------------- ~
   Step     Total Energy     Delta E     MAX Force     RMS Force      MAX Disp      RMS Disp    ~
  --------------------------------------------------------------------------------------------- ~
    Convergence Criteria             o    2.00e-06 *    1.00e-06 *    6.00e-06 *    4.00e-06 *  ~
  --------------------------------------------------------------------------------------------- ~
      1    -314.97969828   -3.15e+02 o    2.09e-06      5.10e-07 *    8.40e-05      2.87e-05    ~
  ---------------------------------------------------------------------------------------------

	Writing optimization data to binary file.
	Structure for next step:
	Cartesian Geometry (in Angstrom)
	    C     3.3345716172   0.6944070295  -0.6656755827
	    H     4.1733382078   0.0780700857  -0.3388113396
	    H     3.7207881749   1.6825122090  -0.9149549143
	    H     2.9374268191   0.2542871289  -1.5805375562
	    C    -3.5461036941   0.1575250095  -0.7015924886
	    H    -3.2936597637   0.6594409967  -1.6372053237
	    H    -4.5920327294   0.3691393783  -0.4806013751
	    H    -3.4554092161  -0.9156393191  -0.8636763015
	    C     2.2714909224   0.7716361233   0.4250158910
	    H     1.4668617026   1.4369503719   0.1059883039
	    H     2.7111313529   1.2190471042   1.3194797916
	    C    -2.6382180363   0.6372639349   0.4260207472
	    H    -2.8395300403   1.6929776089   0.6209367349
	    H    -2.8810062685   0.1007694242   1.3475952127
	    C     1.6971567587  -0.6023926804   0.7766945709
	    H     1.1516563629  -0.5444773691   1.7232073732
	    H     2.5356406099  -1.2820166546   0.9511957367
	    C     0.7655374075  -1.1872911440  -0.2964414901
	    H     0.9547747761  -2.2568036899  -0.4083918446
	    H     0.9923728316  -0.7366728550  -1.2671663550
	    C    -0.7207724273  -0.9939850933   0.0059246389
	    H    -1.3031888084  -1.4838288112  -0.7777340241
	    H    -0.9619138572  -1.5093247100   0.9420938343
	    C    -1.1501031974   0.4639838158   0.1259744906
	    H    -0.5731231189   0.9455436913   0.9189492835
	    H    -0.9057111307   0.9908926295  -0.8031234003
			--------------------------
			 OPTKING Finished Execution 
			--------------------------

    Structure for next step:
    Molecular point group: c1
    Full point group: C1

    Geometry (in Angstrom), charge = 0, multiplicity = 1:

    C            3.334572811245     0.694406017882    -0.665669897289
    H            4.173339401821     0.078069074024    -0.338805654149
    H            3.720789368950     1.682511197309    -0.914949228887
    H            2.937428013149     0.254286117260    -1.580531870796
    C           -3.546102500106     0.157523997831    -0.701586803141
    H           -3.293658569709     0.659439984999    -1.637199638281
    H           -4.592031535407     0.369138366621    -0.480595689694
    H           -3.455408022056    -0.915640330775    -0.863670616018
    C            2.271492116451     0.771635111679     0.425021576435
    H            1.466862896605     1.436949360200     0.105993989387
    H            2.711132546979     1.219046092566     1.319485477047
    C           -2.638216842278     0.637262923262     0.426026432640
    H           -2.839528846288     1.692976597209     0.620942420355
    H           -2.881005074488     0.100768412513     1.347600898131
    C            1.697157952747    -0.602393692086     0.776700256319
    H            1.151657556970    -0.544478380750     1.723213058609
    H            2.535641803974    -1.282017666254     0.951201422125
    C            0.765538601554    -1.187292155638    -0.296435804665
    H            0.954775970166    -2.256804701573    -0.408386159195
    H            0.992374025610    -0.736673866688    -1.267160669510
    C           -0.720771233288    -0.993986105002     0.005930324388
    H           -1.303187614353    -1.483829822902    -0.777728338697
    H           -0.961912663163    -1.509325721663     0.942099519782
    C           -1.150102003386     0.463982804110     0.125980176025
    H           -0.573121924830     0.945542679600     0.918954968920
    H           -0.905709936653     0.990891617866    -0.803117714838

gradient() will perform analytic gradient computation.

*** tstart() called on wr38
*** at Wed Sep 21 05:04:19 2016


         ---------------------------------------------------------
                                   SCF
            by Justin Turney, Rob Parrish, and Andy Simmonett
                              RHF Reference
                       12 Threads,  60000 MiB Core
         ---------------------------------------------------------

  ==> Geometry <==

    Molecular point group: c1
    Full point group: C1

    Geometry (in Angstrom), charge = 0, multiplicity = 1:

       Center              X                  Y                   Z               Mass       
    ------------   -----------------  -----------------  -----------------  -----------------
           C          3.334572811245     0.694406017882    -0.665669897289    12.000000000000
           H          4.173339401821     0.078069074024    -0.338805654149     1.007825032070
           H          3.720789368950     1.682511197309    -0.914949228887     1.007825032070
           H          2.937428013149     0.254286117260    -1.580531870796     1.007825032070
           C         -3.546102500106     0.157523997831    -0.701586803141    12.000000000000
           H         -3.293658569709     0.659439984999    -1.637199638281     1.007825032070
           H         -4.592031535407     0.369138366621    -0.480595689694     1.007825032070
           H         -3.455408022056    -0.915640330775    -0.863670616018     1.007825032070
           C          2.271492116451     0.771635111679     0.425021576435    12.000000000000
           H          1.466862896605     1.436949360200     0.105993989387     1.007825032070
           H          2.711132546979     1.219046092566     1.319485477047     1.007825032070
           C         -2.638216842278     0.637262923262     0.426026432640    12.000000000000
           H         -2.839528846288     1.692976597209     0.620942420355     1.007825032070
           H         -2.881005074488     0.100768412513     1.347600898131     1.007825032070
           C          1.697157952747    -0.602393692086     0.776700256319    12.000000000000
           H          1.151657556970    -0.544478380750     1.723213058609     1.007825032070
           H          2.535641803974    -1.282017666254     0.951201422125     1.007825032070
           C          0.765538601554    -1.187292155638    -0.296435804665    12.000000000000
           H          0.954775970166    -2.256804701573    -0.408386159195     1.007825032070
           H          0.992374025610    -0.736673866688    -1.267160669510     1.007825032070
           C         -0.720771233288    -0.993986105002     0.005930324388    12.000000000000
           H         -1.303187614353    -1.483829822902    -0.777728338697     1.007825032070
           H         -0.961912663163    -1.509325721663     0.942099519782     1.007825032070
           C         -1.150102003386     0.463982804110     0.125980176025    12.000000000000
           H         -0.573121924830     0.945542679600     0.918954968920     1.007825032070
           H         -0.905709936653     0.990891617866    -0.803117714838     1.007825032070

  Running in c1 symmetry.

  Rotational constants: A =      0.13799  B =      0.02549  C =      0.02420 [cm^-1]
  Rotational constants: A =   4136.72749  B =    764.10703  C =    725.53634 [MHz]
  Nuclear repulsion =  395.803695593805685

  Charge       = 0
  Multiplicity = 1
  Electrons    = 66
  Nalpha       = 33
  Nbeta        = 33

  ==> Algorithm <==

  SCF Algorithm Type is DF.
  DIIS enabled.
  MOM disabled.
  Fractional occupation disabled.
  Guess Type is READ.
  Energy threshold   = 1.00e-10
  Density threshold  = 1.00e-10
  Integral threshold = 0.00e+00

  ==> Primary Basis <==

  Basis Set: AUG-CC-PVTZ
    Number of shells: 274
    Number of basis function: 782
    Number of Cartesian functions: 890
    Spherical Harmonics?: true
    Max angular momentum: 3

  ==> Pre-Iterations <==

   -------------------------------------------------------
    Irrep   Nso     Nmo     Nalpha   Nbeta   Ndocc  Nsocc
   -------------------------------------------------------
     A        782     782       0       0       0       0
   -------------------------------------------------------
    Total     782     782      33      33      33       0
   -------------------------------------------------------

  ==> Integral Setup <==

  ==> DFJK: Density-Fitted J/K Matrices <==

    J tasked:                  Yes
    K tasked:                  Yes
    wK tasked:                  No
    OpenMP threads:             12
    Integrals threads:          12
    Memory (MB):             42915
    Algorithm:                Core
    Integral Cache:           NONE
    Schwarz Cutoff:          1E-12
    Fitting Condition:       1E-12

   => Auxiliary Basis Set <=

  Basis Set: 
    Number of shells: 492
    Number of basis function: 1660
    Number of Cartesian functions: 2038
    Spherical Harmonics?: true
    Max angular momentum: 4

  Minimum eigenvalue in the overlap matrix is 2.0317793195E-06.
  Using Symmetric Orthogonalization.
  SCF Guess: Reading in previously saved MOs, projecting if necessary.

  Using orbitals from previous SCF, no projection.
  Recomputing DOCC and SOCC from number of alpha and beta electrons from previous calculation.
              A 
    DOCC [    33 ]

  ==> Iterations <==

                           Total Energy        Delta E     RMS |[F,P]|

   @DF-RHF iter   0:  -313.53698117829828   -3.13537e+02   2.45115e-07 
   @DF-RHF iter   1:  -313.53692845971892    5.27186e-05   5.03580e-08 
   @DF-RHF iter   2:  -313.53692846113785   -1.41893e-09   1.96534e-08 DIIS
   @DF-RHF iter   3:  -313.53692846133123   -1.93381e-10   8.20832e-09 DIIS
   @DF-RHF iter   4:  -313.53692846136909   -3.78577e-11   8.47099e-10 DIIS
   @DF-RHF iter   5:  -313.53692846136920   -1.13687e-13   2.87888e-10 DIIS
   @DF-RHF iter   6:  -313.53692846136965   -4.54747e-13   7.14148e-11 DIIS

  ==> Post-Iterations <==

    Orbital Energies (a.u.)
    -----------------------

    Doubly Occupied:                                                      

       1A    -11.212995     2A    -11.211807     3A    -11.210515  
       4A    -11.210265     5A    -11.209896     6A    -11.209517  
       7A    -11.206596     8A    -11.206229     9A     -1.094095  
      10A     -1.058989    11A     -1.007768    12A     -0.942329  
      13A     -0.892268    14A     -0.830866    15A     -0.779545  
      16A     -0.761592    17A     -0.644179    18A     -0.625081  
      19A     -0.612547    20A     -0.593573    21A     -0.585690  
      22A     -0.558927    23A     -0.545374    24A     -0.529336  
      25A     -0.514673    26A     -0.499779    27A     -0.485252  
      28A     -0.475425    29A     -0.467773    30A     -0.461316  
      31A     -0.449122    32A     -0.435010    33A     -0.432166  

    Virtual:                                                              

      34A      0.029964    35A      0.033016    36A      0.033575  
      37A      0.035301    38A      0.046116    39A      0.048288  
      40A      0.048810    41A      0.054175    42A      0.055476  
      43A      0.063970    44A      0.069557    45A      0.071152  
      46A      0.074838    47A      0.075712    48A      0.086248  
      49A      0.091444    50A      0.099068    51A      0.103377  
      52A      0.113891    53A      0.119678    54A      0.121292  
      55A      0.122695    56A      0.127980    57A      0.130464  
      58A      0.131046    59A      0.133793    60A      0.137040  
      61A      0.144979    62A      0.146621    63A      0.150472  
      64A      0.151920    65A      0.158596    66A      0.161893  
      67A      0.163778    68A      0.167318    69A      0.174538  
      70A      0.176421    71A      0.180372    72A      0.184732  
      73A      0.187617    74A      0.194423    75A      0.196384  
      76A      0.202279    77A      0.214808    78A      0.223558  
      79A      0.227050    80A      0.232131    81A      0.238434  
      82A      0.250333    83A      0.255288    84A      0.257291  
      85A      0.264146    86A      0.275804    87A      0.279782  
      88A      0.281701    89A      0.290868    90A      0.292634  
      91A      0.295238    92A      0.307812    93A      0.308788  
      94A      0.314732    95A      0.317649    96A      0.321813  
      97A      0.324166    98A      0.329500    99A      0.334676  
     100A      0.337920   101A      0.338793   102A      0.342541  
     103A      0.348878   104A      0.352257   105A      0.355961  
     106A      0.357712   107A      0.359939   108A      0.365596  
     109A      0.367778   110A      0.371318   111A      0.373062  
     112A      0.378591   113A      0.381028   114A      0.383847  
     115A      0.392861   116A      0.396650   117A      0.401689  
     118A      0.407571   119A      0.409584   120A      0.412895  
     121A      0.415589   122A      0.422104   123A      0.425575  
     124A      0.427544   125A      0.432121   126A      0.436056  
     127A      0.442687   128A      0.444595   129A      0.451273  
     130A      0.452914   131A      0.456717   132A      0.460636  
     133A      0.466914   134A      0.471893   135A      0.472684  
     136A      0.475040   137A      0.476898   138A      0.478232  
     139A      0.482077   140A      0.485909   141A      0.492163  
     142A      0.495494   143A      0.497607   144A      0.502171  
     145A      0.510744   146A      0.511890   147A      0.513695  
     148A      0.520708   149A      0.523122   150A      0.523437  
     151A      0.529623   152A      0.540309   153A      0.541691  
     154A      0.544264   155A      0.548015   156A      0.553640  
     157A      0.559598   158A      0.564226   159A      0.566658  
     160A      0.568480   161A      0.575610   162A      0.582735  
     163A      0.588240   164A      0.595518   165A      0.596490  
     166A      0.599255   167A      0.606618   168A      0.611561  
     169A      0.615717   170A      0.620949   171A      0.624425  
     172A      0.626372   173A      0.631536   174A      0.633524  
     175A      0.640661   176A      0.648813   177A      0.653817  
     178A      0.654492   179A      0.656066   180A      0.665937  
     181A      0.668790   182A      0.671345   183A      0.679882  
     184A      0.686675   185A      0.693656   186A      0.696268  
     187A      0.704221   188A      0.706617   189A      0.714458  
     190A      0.720978   191A      0.727963   192A      0.731958  
     193A      0.739467   194A      0.745030   195A      0.746685  
     196A      0.762230   197A      0.772393   198A      0.775634  
     199A      0.777194   200A      0.790808   201A      0.793835  
     202A      0.808041   203A      0.824741   204A      0.827664  
     205A      0.830580   206A      0.842332   207A      0.844951  
     208A      0.848573   209A      0.852487   210A      0.859099  
     211A      0.866632   212A      0.875216   213A      0.879280  
     214A      0.885438   215A      0.887731   216A      0.892345  
     217A      0.894433   218A      0.902913   219A      0.904253  
     220A      0.910966   221A      0.915253   222A      0.917973  
     223A      0.924805   224A      0.929373   225A      0.934745  
     226A      0.943702   227A      0.946381   228A      0.951174  
     229A      0.958270   230A      0.963206   231A      0.968403  
     232A      0.972005   233A      0.975583   234A      0.983721  
     235A      0.984715   236A      0.992530   237A      0.996816  
     238A      1.000833   239A      1.005235   240A      1.006712  
     241A      1.010484   242A      1.013576   243A      1.019815  
     244A      1.026266   245A      1.039586   246A      1.040636  
     247A      1.045939   248A      1.056032   249A      1.058031  
     250A      1.063201   251A      1.074238   252A      1.078697  
     253A      1.081946   254A      1.086595   255A      1.093427  
     256A      1.094447   257A      1.099587   258A      1.106029  
     259A      1.113492   260A      1.116399   261A      1.124218  
     262A      1.132244   263A      1.133796   264A      1.137993  
     265A      1.140162   266A      1.143625   267A      1.147796  
     268A      1.156332   269A      1.161170   270A      1.164492  
     271A      1.174546   272A      1.179124   273A      1.181155  
     274A      1.188604   275A      1.192440   276A      1.203367  
     277A      1.209782   278A      1.211463   279A      1.215809  
     280A      1.216731   281A      1.226381   282A      1.229814  
     283A      1.233438   284A      1.240900   285A      1.249988  
     286A      1.257074   287A      1.263086   288A      1.265076  
     289A      1.273257   290A      1.281338   291A      1.283165  
     292A      1.285011   293A      1.291044   294A      1.296680  
[...]
	 Skipping Hessian update for step 15.
	Denominators (dg)(dq) or (dq)(dq) are very small.
	 Skipping Hessian update for step 14.
	Denominators (dg)(dq) or (dq)(dq) are very small.
	 Skipping Hessian update for step 13.
	Denominators (dg)(dq) or (dq)(dq) are very small.
	 Skipping Hessian update for step 12.
	Denominators (dg)(dq) or (dq)(dq) are very small.
	 Skipping Hessian update for step 11.
	Denominators (dg)(dq) or (dq)(dq) are very small.
	 Skipping Hessian update for step 10.
	Denominators (dg)(dq) or (dq)(dq) are very small.
	 Skipping Hessian update for step 9.
	Denominators (dg)(dq) or (dq)(dq) are very small.
	 Skipping Hessian update for step 8.
	Denominators (dg)(dq) or (dq)(dq) are very small.
	 Skipping Hessian update for step 7.
	Denominators (dg)(dq) or (dq)(dq) are very small.
	 Skipping Hessian update for step 6.
	Denominators (dg)(dq) or (dq)(dq) are very small.
	 Skipping Hessian update for step 5.
	Denominators (dg)(dq) or (dq)(dq) are very small.
	 Skipping Hessian update for step 4.
	Denominators (dg)(dq) or (dq)(dq) are very small.
	 Skipping Hessian update for step 3.
	Denominators (dg)(dq) or (dq)(dq) are very small.
	 Skipping Hessian update for step 2.
	Steps to be used in Hessian update: 1
	Taking RFO optimization step.
	Going to follow RFO solution 1.
	Using RFO vector 1.
	Norm of target step-size    0.00003
	Projected energy change by RFO approximation:        -0.0000000000

	Back-transformation to cartesian coordinates...
	Successfully converged to displaced geometry.

	--- Internal Coordinate Step in ANG or DEG, aJ/ANG or AJ/DEG ---
	 ---------------------------------------------------------------------------
	   Coordinate                Previous        Force       Change         New 
	   ----------                --------       ------       ------       ------
	    1 R(1,2)          =      1.090982     0.000000     0.000000     1.090982
	    2 R(1,3)          =      1.089797     0.000000     0.000000     1.089797
	    3 R(1,4)          =      1.090140    -0.000000     0.000000     1.090140
	    4 R(1,9)          =      1.525029    -0.000000    -0.000000     1.525029
	    5 R(5,6)          =      1.091340    -0.000000     0.000000     1.091340
	    6 R(5,7)          =      1.089765     0.000000     0.000000     1.089765
	    7 R(5,8)          =      1.089120     0.000001     0.000000     1.089120
	    8 R(5,12)         =      1.525096     0.000000     0.000000     1.525096
	    9 R(9,10)         =      1.091720     0.000000     0.000000     1.091720
	   10 R(9,11)         =      1.092487     0.000000     0.000000     1.092487
	   11 R(9,15)         =      1.530194     0.000000     0.000000     1.530194
	   12 R(12,13)        =      1.092270    -0.000000    -0.000000     1.092270
	   13 R(12,14)        =      1.093652     0.000001     0.000000     1.093653
	   14 R(12,24)        =      1.527921    -0.000001    -0.000000     1.527921
	   15 R(15,16)        =      1.093990     0.000000     0.000000     1.093990
	   16 R(15,17)        =      1.093342    -0.000000     0.000000     1.093342
	   17 R(15,18)        =      1.536764    -0.000000     0.000000     1.536764
	   18 R(18,19)        =      1.091881    -0.000000     0.000000     1.091881
	   19 R(18,20)        =      1.093994    -0.000001     0.000000     1.093994
	   20 R(18,21)        =      1.529023    -0.000000    -0.000000     1.529023
	   21 R(21,22)        =      1.092374    -0.000000    -0.000000     1.092374
	   22 R(21,23)        =      1.095510    -0.000000     0.000000     1.095510
	   23 R(21,24)        =      1.524603    -0.000001    -0.000000     1.524603
	   24 R(24,25)        =      1.092529    -0.000002    -0.000000     1.092529
	   25 R(24,26)        =      1.095714    -0.000002    -0.000000     1.095713
	   26 B(1,9,10)       =    109.611386    -0.000000    -0.000003   109.611383
	   27 B(1,9,11)       =    109.012568    -0.000000    -0.000003   109.012565
	   28 B(1,9,15)       =    112.367065     0.000000    -0.000002   112.367064
	   29 B(2,1,3)        =    107.956224    -0.000000    -0.000005   107.956219
	   30 B(2,1,4)        =    107.664204     0.000000     0.000006   107.664210
	   31 B(2,1,9)        =    110.503707     0.000000    -0.000003   110.503704
	   32 B(3,1,4)        =    107.650025     0.000000     0.000008   107.650033
	   33 B(3,1,9)        =    111.390400    -0.000000    -0.000004   111.390396
	   34 B(4,1,9)        =    111.511840     0.000000    -0.000001   111.511839
	   35 B(5,12,13)      =    109.041908    -0.000000     0.000003   109.041912
	   36 B(5,12,14)      =    109.668220    -0.000000    -0.000016   109.668204
	   37 B(5,12,24)      =    113.510619     0.000000     0.000023   113.510642
	   38 B(6,5,7)        =    107.851830     0.000000     0.000003   107.851834
	   39 B(6,5,8)        =    107.837797    -0.000000    -0.000003   107.837794
	   40 B(6,5,12)       =    110.578968     0.000000     0.000009   110.578977
	   41 B(7,5,8)        =    107.544261    -0.000000    -0.000006   107.544255
	   42 B(7,5,12)       =    111.120604    -0.000000    -0.000007   111.120597
	   43 B(8,5,12)       =    111.741371     0.000000     0.000003   111.741374
	   44 B(9,15,16)      =    109.783332    -0.000000    -0.000011   109.783321
	   45 B(9,15,17)      =    107.878544    -0.000000    -0.000013   107.878532
	   46 B(9,15,18)      =    114.129911     0.000000     0.000014   114.129925
	   47 B(10,9,11)      =    106.635136     0.000000     0.000013   106.635149
	   48 B(10,9,15)      =    109.739974    -0.000000    -0.000011   109.739963
	   49 B(11,9,15)      =    109.306034    -0.000000     0.000007   109.306041
	   50 B(12,24,21)     =    113.464455     0.000000     0.000075   113.464530
	   51 B(12,24,25)     =    108.774084    -0.000000    -0.000002   108.774082
	   52 B(12,24,26)     =    109.220850    -0.000000    -0.000015   109.220835
	   53 B(13,12,14)     =    106.430255     0.000000     0.000001   106.430256
	   54 B(13,12,24)     =    108.914882    -0.000000    -0.000006   108.914876
	   55 B(14,12,24)     =    109.029762    -0.000000    -0.000008   109.029754
	   56 B(15,18,19)     =    109.836468     0.000000     0.000028   109.836496
	   57 B(15,18,20)     =    109.703657     0.000000    -0.000014   109.703643
	   58 B(15,18,21)     =    113.770984    -0.000000    -0.000028   113.770956
	   59 B(16,15,17)     =    106.094525     0.000000     0.000005   106.094530
	   60 B(16,15,18)     =    108.786325    -0.000000    -0.000006   108.786319
	   61 B(17,15,18)     =    109.863389    -0.000000     0.000011   109.863400
	   62 B(18,21,22)     =    108.645649     0.000000     0.000018   108.645666
	   63 B(18,21,23)     =    108.873926     0.000000     0.000024   108.873949
	   64 B(18,21,24)     =    114.218007    -0.000000    -0.000083   114.217924
	   65 B(19,18,20)     =    106.054452     0.000000     0.000019   106.054471
	   66 B(19,18,21)     =    108.214819    -0.000000     0.000020   108.214839
	   67 B(20,18,21)     =    108.962584    -0.000000    -0.000022   108.962563
	   68 B(21,24,25)     =    109.265555    -0.000000     0.000001   109.265556
	   69 B(21,24,26)     =    109.286356    -0.000000    -0.000039   109.286317
	   70 B(22,21,23)     =    106.543646    -0.000000     0.000027   106.543673
	   71 B(22,21,24)     =    109.582817     0.000000    -0.000007   109.582810
	   72 B(23,21,24)     =    108.697932     0.000000     0.000029   108.697961
	   73 B(25,24,26)     =    106.600300     0.000000    -0.000026   106.600274
	   74 D(1,9,15,16)    =    164.934216    -0.000000    -0.000212   164.934004
	   75 D(1,9,15,17)    =     49.746268    -0.000000    -0.000205    49.746063
	   76 D(1,9,15,18)    =    -72.645152    -0.000000    -0.000219   -72.645371
	   77 D(2,1,9,10)     =    176.771550    -0.000000    -0.000052   176.771498
	   78 D(2,1,9,11)     =     60.398431    -0.000000    -0.000064    60.398367
	   79 D(2,1,9,15)     =    -60.929182    -0.000000    -0.000070   -60.929252
	   80 D(3,1,9,10)     =     56.773435     0.000000    -0.000041    56.773393
	   81 D(3,1,9,11)     =    -59.599685     0.000000    -0.000053   -59.599738
	   82 D(3,1,9,15)     =    179.072702     0.000000    -0.000059   179.072643
	   83 D(4,1,9,10)     =    -63.518303    -0.000000    -0.000048   -63.518351
	   84 D(4,1,9,11)     =   -179.891423     0.000000    -0.000060  -179.891483
	   85 D(4,1,9,15)     =     58.780964     0.000000    -0.000066    58.780899
	   86 D(5,12,24,21)   =    -65.393651     0.000000     0.000274   -65.393377
	   87 D(5,12,24,25)   =    172.772646    -0.000000     0.000223   172.772870
	   88 D(5,12,24,26)   =     56.791600     0.000000     0.000264    56.791864
	   89 D(6,5,12,13)    =     65.742124     0.000000     0.000127    65.742252
	   90 D(6,5,12,14)    =   -178.082225     0.000000     0.000122  -178.082103
	   91 D(6,5,12,24)    =    -55.867089     0.000000     0.000117   -55.866973
	   92 D(7,5,12,13)    =    -53.997832     0.000000     0.000122   -53.997710
	   93 D(7,5,12,14)    =     62.177819    -0.000000     0.000117    62.177936
	   94 D(7,5,12,24)    =   -175.607045    -0.000000     0.000111  -175.606934
	   95 D(8,5,12,13)    =   -174.126337     0.000000     0.000132  -174.126205
	   96 D(8,5,12,14)    =    -57.950686     0.000000     0.000127   -57.950560
	   97 D(8,5,12,24)    =     64.264450     0.000000     0.000121    64.264571
	   98 D(9,15,18,19)   =    139.441473    -0.000000    -0.000241   139.441232
	   99 D(9,15,18,20)   =     23.243807    -0.000000    -0.000272    23.243535
	  100 D(9,15,18,21)   =    -99.092741    -0.000000    -0.000215   -99.092956
	  101 D(10,9,15,16)   =    -72.839353    -0.000000    -0.000225   -72.839578
	  102 D(10,9,15,17)   =    171.972699     0.000000    -0.000218   171.972481
	  103 D(10,9,15,18)   =     49.581279    -0.000000    -0.000232    49.581047
	  104 D(11,9,15,16)   =     43.774674    -0.000000    -0.000211    43.774462
	  105 D(11,9,15,17)   =    -71.413274     0.000000    -0.000205   -71.413479
	  106 D(11,9,15,18)   =    166.195306    -0.000000    -0.000218   166.195088
	  107 D(12,24,21,18)  =    179.908304    -0.000000    -0.000215   179.908089
	  108 D(12,24,21,22)  =     57.760664     0.000000    -0.000175    57.760489
	  109 D(12,24,21,23)  =    -58.309147    -0.000000    -0.000219   -58.309366
	  110 D(13,12,24,21)  =    172.926250     0.000000     0.000258   172.926509
	  111 D(13,12,24,25)  =     51.092548    -0.000000     0.000208    51.092755
	  112 D(13,12,24,26)  =    -64.888499     0.000000     0.000248   -64.888251
	  113 D(14,12,24,21)  =     57.174878     0.000000     0.000264    57.175142
	  114 D(14,12,24,25)  =    -64.658824    -0.000000     0.000213   -64.658611
	  115 D(14,12,24,26)  =    179.360129     0.000000     0.000254   179.360383
	  116 D(15,18,21,22)  =   -177.047501    -0.000000     0.000061  -177.047440
	  117 D(15,18,21,23)  =    -61.392607     0.000000     0.000115   -61.392492
	  118 D(15,18,21,24)  =     60.293142     0.000000     0.000113    60.293255
	  119 D(16,15,18,19)  =    -97.594336    -0.000000    -0.000251   -97.594587
	  120 D(16,15,18,20)  =    146.207998    -0.000000    -0.000282   146.207716
	  121 D(16,15,18,21)  =     23.871450    -0.000000    -0.000224    23.871226
	  122 D(17,15,18,19)  =     18.142415    -0.000000    -0.000242    18.142173
	  123 D(17,15,18,20)  =    -98.055251    -0.000000    -0.000273   -98.055524
	  124 D(17,15,18,21)  =    139.608201    -0.000000    -0.000216   139.607985
	  125 D(18,21,24,25)  =    -58.532342     0.000000    -0.000166   -58.532507
	  126 D(18,21,24,26)  =     57.759432    -0.000000    -0.000218    57.759214
	  127 D(19,18,21,22)  =    -54.683811    -0.000000     0.000092   -54.683720
	  128 D(19,18,21,23)  =     60.971082     0.000000     0.000146    60.971228
	  129 D(19,18,21,24)  =   -177.343169     0.000000     0.000144  -177.343024
	  130 D(20,18,21,22)  =     60.208460    -0.000000     0.000114    60.208573
	  131 D(20,18,21,23)  =    175.863353     0.000000     0.000168   175.863521
	  132 D(20,18,21,24)  =    -62.450897     0.000000     0.000166   -62.450731
	  133 D(22,21,24,25)  =    179.320018     0.000000    -0.000125   179.319893
	  134 D(22,21,24,26)  =    -64.388208    -0.000000    -0.000178   -64.388385
	  135 D(23,21,24,25)  =     63.250208     0.000000    -0.000170    63.250038
	  136 D(23,21,24,26)  =    179.541982    -0.000000    -0.000223   179.541759
	  137 R(9,24)         =      3.448384    -0.000000     0.000002     3.448385
	 ---------------------------------------------------------------------------

  ==> Convergence Check <==

  Measures of convergence in internal coordinates in au.
  Criteria marked as inactive (o), active & met (*), and active & unmet ( ).
  ---------------------------------------------------------------------------------------------
   Step     Total Energy     Delta E     MAX Force     RMS Force      MAX Disp      RMS Disp   
  ---------------------------------------------------------------------------------------------
    Convergence Criteria             o    2.00e-06 *    1.00e-06 *    6.00e-06 *    4.00e-06 *
  ---------------------------------------------------------------------------------------------
     19    -314.97969828   -3.73e-09 o    2.55e-07 *    5.24e-08 *    4.92e-06 *    2.22e-06 *  ~
  ---------------------------------------------------------------------------------------------


  **** Optimization is complete! (in 19 steps) ****

  ==> Optimization Summary <==

  Measures of convergence in internal coordinates in au.
  --------------------------------------------------------------------------------------------------------------- ~
   Step         Total Energy             Delta E       MAX Force       RMS Force        MAX Disp        RMS Disp  ~
  --------------------------------------------------------------------------------------------------------------- ~
      1    -314.979698281235   -314.979698281235      0.00000209      0.00000051      0.00008404      0.00002867  ~
      2    -314.979698282512     -0.000000001277      0.00000205      0.00000052      0.00009074      0.00002749  ~
      3    -314.979698277521      0.000000004991      0.00000148      0.00000038      0.00005730      0.00001786  ~
      4    -314.979698282392     -0.000000004872      0.00000173      0.00000046      0.00007643      0.00002561  ~
      5    -314.979698281763      0.000000000630      0.00000101      0.00000030      0.00005408      0.00001957  ~
      6    -314.979698277882      0.000000003881      0.00000070      0.00000013      0.00004574      0.00001761  ~
      7    -314.979698282644     -0.000000004762      0.00000099      0.00000023      0.00005088      0.00001660  ~
      8    -314.979698280613      0.000000002030      0.00000229      0.00000059      0.00003008      0.00001189  ~
      9    -314.979698282667     -0.000000002054      0.00000091      0.00000025      0.00002776      0.00000954  ~
     10    -314.979698282679     -0.000000000012      0.00000093      0.00000025      0.00001175      0.00000492  ~
     11    -314.979698281597      0.000000001082      0.00000051      0.00000011      0.00001581      0.00000570  ~
     12    -314.979698280958      0.000000000639      0.00000073      0.00000017      0.00000628      0.00000325  ~
     13    -314.979698279607      0.000000001350      0.00000042      0.00000009      0.00000978      0.00000304  ~
     14    -314.979698278350      0.000000001258      0.00000211      0.00000052      0.00001524      0.00000526  ~
     15    -314.979698281561     -0.000000003211      0.00000156      0.00000035      0.00001938      0.00000841  ~
     16    -314.979698279270      0.000000002291      0.00000151      0.00000034      0.00001274      0.00000489  ~
     17    -314.979698284648     -0.000000005378      0.00000071      0.00000017      0.00000637      0.00000289  ~
     18    -314.979698279554      0.000000005094      0.00000138      0.00000039      0.00001006      0.00000381  ~
     19    -314.979698283287     -0.000000003733      0.00000025      0.00000005      0.00000492      0.00000222  ~
  --------------------------------------------------------------------------------------------------------------- ~

	Writing optimization data to binary file.
	Final energy is   -314.9796982832871
	Final (previous) structure:
	Cartesian Geometry (in Angstrom)
	    C     3.3344902699   0.6944123858  -0.6657473593
	    H     4.1732730876   0.0780527218  -0.3389648689
	    H     3.7207041940   1.6825172271  -0.9150357760
	    H     2.9372632986   0.2543196013  -1.5805878957
	    C    -3.5460522708   0.1575475213  -0.7016615137
	    H    -3.2935615020   0.6594926508  -1.6372476844
	    H    -4.5919936471   0.3691546705  -0.4807161958
	    H    -3.4553484523  -0.9156130975  -0.8637739898
	    C     2.2714990310   0.7716360245   0.4250318453
	    H     1.4668529422   1.4369693484   0.1060813820
	    H     2.7112181200   1.2190226721   1.3194704379
	    C    -2.6382245792   0.6372533012   0.4260129285
	    H    -2.8395445203   1.6929636025   0.6209470252
	    H    -2.8810638730   0.1007335213   1.3475612309
	    C     1.6971715001  -0.6023909405   0.7767288992
	    H     1.1516783718  -0.5444702227   1.7232470795
	    H     2.5356604550  -1.2820104968   0.9512277875
	    C     0.7655458534  -1.1873031551  -0.2963953463
	    H     0.9547821424  -2.2568189310  -0.4083293498
	    H     0.9923819556  -0.7367004878  -1.2671295596
	    C    -0.7207645034  -0.9939932402   0.0059691703
	    H    -1.3031801806  -1.4838219818  -0.7777016390
	    H    -0.9619129674  -1.5093495780   0.9421298839
	    C    -1.1500938284   0.4639756265   0.1260395112
	    H    -0.5731508162   0.9455113088   0.9190587302
	    H    -0.9056518071   0.9909128939  -0.8030318100
	Saving final (previous) structure.
			--------------------------
			 OPTKING Finished Execution 
			--------------------------

    Final optimized geometry and variables:
    Molecular point group: c1
    Full point group: C1

    Geometry (in Angstrom), charge = 0, multiplicity = 1:

    C            3.334490269897     0.694412385794    -0.665747359346
    H            4.173273087617     0.078052721757    -0.338964868862
    H            3.720704193991     1.682517227078    -0.915035776042
    H            2.937263298625     0.254319601310    -1.580587895662
    C           -3.546052270787     0.157547521337    -0.701661513730
    H           -3.293561501954     0.659492650810    -1.637247684360
    H           -4.591993647121     0.369154670520    -0.480716195751
    H           -3.455348452287    -0.915613097515    -0.863773989846
    C            2.271499031014     0.771636024490     0.425031845266
    H            1.466852942214     1.436969348359     0.106081381951
    H            2.711218119977     1.219022672074     1.319470437872
    C           -2.638224579191     0.637253301219     0.426012928485
    H           -2.839544520312     1.692963602546     0.620947025172
    H           -2.881063872993     0.100733521284     1.347561230850
    C            1.697171500076    -0.602390940463     0.776728899168
    H            1.151678371759    -0.544470222717     1.723247079520
    H            2.535660454990    -1.282010496813     0.951227787487
    C            0.765545853423    -1.187303155150    -0.296395346290
    H            0.954782142407    -2.256818930968    -0.408329349830
    H            0.992381955621    -0.736700487825    -1.267129559649
    C           -0.720764503427    -0.993993240185     0.005969170307
    H           -1.303180180627    -1.483821981793    -0.777701639043
    H           -0.961912967447    -1.509349577965     0.942129883938
    C           -1.150093828433     0.463975626522     0.126039511246
    H           -0.573150816248     0.945511308761     0.919058730157
    H           -0.905651807127     0.990912893913    -0.803031809989

	Cleaning optimization helper files.

*** Psi4 exiting successfully. Buy a developer a beer!
