    -----------------------------------------------------------------------
          Psi4: An Open-Source Ab Initio Electronic Structure Package
                              Psi4 1.0.0 Driver

                          Git: Rev {master} 6a9a71b dirty

    J. M. Turney, A. C. Simmonett, R. M. Parrish, E. G. Hohenstein,
    F. A. Evangelista, J. T. Fermann, B. J. Mintz, L. A. Burns, J. J. Wilke,
    M. L. Abrams, N. J. Russ, M. L. Leininger, C. L. Janssen, E. T. Seidl,
    W. D. Allen, H. F. Schaefer, R. A. King, E. F. Valeev, C. D. Sherrill,
    and T. D. Crawford, WIREs Comput. Mol. Sci. 2, 556-565 (2012)
    (doi: 10.1002/wcms.93)

                         Additional Contributions by
    A. E. DePrince, U. Bozkaya, A. Yu. Sokolov, D. G. A. Smith, R. Di Remigio,
    R. M. Richard, J. F. Gonthier, H. R. McAlexander, M. Saitow, and
    B. P. Pritchard
    -----------------------------------------------------------------------


    Psi4 started on: Tue Sep 20 16:43:05 2016

    Process ID:  29797
    PSI4DATADIR: /usr/local/hpc5/psi4conda/share/psi4
    Memory level set to 256.000 MB

  ==> Input File <==

--------------------------------------------------------------------------
memory 30 Gb

molecule molecule_24_psi {
0 1
symmetry c1
    C            3.948806195830    -0.247516670120    -0.272548649203
    H            4.680425039683     0.513759819408    -0.533193613914
    H            3.916019396172    -0.973021221163    -1.083576936207
    H            4.301378998840    -0.763037705282     0.618972136323
    C           -3.077915547941    -1.032751157097    -0.513152006488
    H           -2.174820545246    -1.627967044892    -0.627376454396
    H           -3.365509143435    -0.673160013163    -1.500519110249
    H           -3.865024618372    -1.691743315898    -0.153547015520
    C            2.574813227887     0.352314000278    -0.037569619227
    H            2.260757251837     0.892952748941    -0.929365623395
    H            2.623956534652     1.083781183731     0.771432237220
    C           -2.858839597515     0.130401807196     0.437727558651
    H           -3.809174026035     0.631872378635     0.621646691973
    H           -2.522179006992    -0.244419770449     1.404003194655
    C            1.543497212635    -0.704242777620     0.315511972476
    H            1.923815100644    -1.296952758398     1.150038200211
    H            1.434497442812    -1.391388053239    -0.527854920525
    C            0.178660471508    -0.143676496968     0.681409631187
    H            0.282409294197     0.541490177940     1.527584466761
    H           -0.455780630792    -0.962337079620     1.022495558236
    C           -0.504926730847     0.582442068283    -0.463212031562
    H            0.127878086069     1.400668345753    -0.806352523097
    H           -0.605395620998    -0.101480076955    -1.308533334888
    C           -1.865525407527     1.154256221578    -0.092080815758
    H           -1.725818702303     1.936027477282     0.657223927306
    H           -2.295996269453     1.638730700271    -0.970883751224
}

set globals {
  reference rhf
  g_convergence gau_verytight
  basis aug-cc-pvtz
  freeze_core true
  scf_type df
  mp_type df
}
optimize('mp2')
--------------------------------------------------------------------------
/usr/local/hpc5/psi4conda/lib/python2.7/site-packages/v2rdm_casscf/v2rdm_casscf.so loaded.

  Memory set to  30.000 GiB by Python script.
gradient() will perform analytic gradient computation.

*** tstart() called on wr34
*** at Tue Sep 20 16:43:06 2016


         ---------------------------------------------------------
                                   SCF
            by Justin Turney, Rob Parrish, and Andy Simmonett
                              RHF Reference
                       12 Threads,  30000 MiB Core
         ---------------------------------------------------------

  ==> Geometry <==

    Molecular point group: c1
    Full point group: C1

    Geometry (in Angstrom), charge = 0, multiplicity = 1:

       Center              X                  Y                   Z               Mass       
    ------------   -----------------  -----------------  -----------------  -----------------
           C          3.948806195830    -0.247516670120    -0.272548649203    12.000000000000
           H          4.680425039683     0.513759819408    -0.533193613914     1.007825032070
           H          3.916019396172    -0.973021221163    -1.083576936207     1.007825032070
           H          4.301378998840    -0.763037705282     0.618972136323     1.007825032070
           C         -3.077915547941    -1.032751157097    -0.513152006488    12.000000000000
           H         -2.174820545246    -1.627967044892    -0.627376454396     1.007825032070
           H         -3.365509143435    -0.673160013163    -1.500519110249     1.007825032070
           H         -3.865024618372    -1.691743315898    -0.153547015520     1.007825032070
           C          2.574813227887     0.352314000278    -0.037569619227    12.000000000000
           H          2.260757251837     0.892952748941    -0.929365623395     1.007825032070
           H          2.623956534652     1.083781183731     0.771432237220     1.007825032070
           C         -2.858839597515     0.130401807196     0.437727558651    12.000000000000
           H         -3.809174026035     0.631872378635     0.621646691973     1.007825032070
           H         -2.522179006992    -0.244419770449     1.404003194655     1.007825032070
           C          1.543497212635    -0.704242777620     0.315511972476    12.000000000000
           H          1.923815100644    -1.296952758398     1.150038200211     1.007825032070
           H          1.434497442812    -1.391388053239    -0.527854920525     1.007825032070
           C          0.178660471508    -0.143676496968     0.681409631187    12.000000000000
           H          0.282409294197     0.541490177940     1.527584466761     1.007825032070
           H         -0.455780630792    -0.962337079620     1.022495558236     1.007825032070
           C         -0.504926730847     0.582442068283    -0.463212031562    12.000000000000
           H          0.127878086069     1.400668345753    -0.806352523097     1.007825032070
           H         -0.605395620998    -0.101480076955    -1.308533334888     1.007825032070
           C         -1.865525407527     1.154256221578    -0.092080815758    12.000000000000
           H         -1.725818702303     1.936027477282     0.657223927306     1.007825032070
           H         -2.295996269453     1.638730700271    -0.970883751224     1.007825032070

  Running in c1 symmetry.

  Rotational constants: A =      0.17215  B =      0.02339  C =      0.02240 [cm^-1]
  Rotational constants: A =   5160.95739  B =    701.22858  C =    671.44841 [MHz]
  Nuclear repulsion =  394.558125177619559

  Charge       = 0
  Multiplicity = 1
  Electrons    = 66
  Nalpha       = 33
  Nbeta        = 33

  ==> Algorithm <==

  SCF Algorithm Type is DF.
  DIIS enabled.
  MOM disabled.
  Fractional occupation disabled.
  Guess Type is SAD.
  Energy threshold   = 1.00e-10
  Density threshold  = 1.00e-10
  Integral threshold = 0.00e+00

  ==> Primary Basis <==

  Basis Set: AUG-CC-PVTZ
    Number of shells: 274
    Number of basis function: 782
    Number of Cartesian functions: 890
    Spherical Harmonics?: true
    Max angular momentum: 3

  ==> Pre-Iterations <==

   -------------------------------------------------------
    Irrep   Nso     Nmo     Nalpha   Nbeta   Ndocc  Nsocc
   -------------------------------------------------------
     A        782     782       0       0       0       0
   -------------------------------------------------------
    Total     782     782      33      33      33       0
   -------------------------------------------------------

  ==> Integral Setup <==

  ==> DFJK: Density-Fitted J/K Matrices <==

    J tasked:                  Yes
    K tasked:                  Yes
    wK tasked:                  No
    OpenMP threads:             12
    Integrals threads:          12
    Memory (MB):             21457
    Algorithm:                Core
    Integral Cache:           NONE
    Schwarz Cutoff:          1E-12
    Fitting Condition:       1E-12

   => Auxiliary Basis Set <=

  Basis Set: 
    Number of shells: 492
    Number of basis function: 1660
    Number of Cartesian functions: 2038
    Spherical Harmonics?: true
    Max angular momentum: 4

  Minimum eigenvalue in the overlap matrix is 1.8185460978E-06.
  Using Symmetric Orthogonalization.
  SCF Guess: Superposition of Atomic Densities via on-the-fly atomic UHF.

  ==> Iterations <==

                           Total Energy        Delta E     RMS |[F,P]|

   @DF-RHF iter   0:  -317.01738766991400   -3.17017e+02   7.08429e-03 
   @DF-RHF iter   1:  -313.30044555608083    3.71694e+00   6.90454e-04 
   @DF-RHF iter   2:  -313.50780482878372   -2.07359e-01   2.56030e-04 DIIS
   @DF-RHF iter   3:  -313.53567750002674   -2.78727e-02   1.04612e-04 DIIS
   @DF-RHF iter   4:  -313.54109051538478   -5.41302e-03   1.38379e-05 DIIS
   @DF-RHF iter   5:  -313.54121532209263   -1.24807e-04   4.35264e-06 DIIS
   @DF-RHF iter   6:  -313.54122463591375   -9.31382e-06   1.00065e-06 DIIS
   @DF-RHF iter   7:  -313.54122515536949   -5.19456e-07   2.03986e-07 DIIS
   @DF-RHF iter   8:  -313.54122517895939   -2.35899e-08   5.55467e-08 DIIS
   @DF-RHF iter   9:  -313.54122518049439   -1.53500e-09   1.30374e-08 DIIS
   @DF-RHF iter  10:  -313.54122518059921   -1.04819e-10   3.42987e-09 DIIS
   @DF-RHF iter  11:  -313.54122518060831   -9.09495e-12   7.95152e-10 DIIS
   @DF-RHF iter  12:  -313.54122518060956   -1.25056e-12   2.05387e-10 DIIS
   @DF-RHF iter  13:  -313.54122518060854    1.02318e-12   6.45250e-11 DIIS

  ==> Post-Iterations <==

    Orbital Energies (a.u.)
    -----------------------

    Doubly Occupied:                                                      

       1A    -11.209874     2A    -11.209851     3A    -11.208716  
       4A    -11.208564     5A    -11.207882     6A    -11.206641  
       7A    -11.205412     8A    -11.205394     9A     -1.098464  
      10A     -1.063552    11A     -1.008346    12A     -0.950831  
      13A     -0.882671    14A     -0.837552    15A     -0.787969  
      16A     -0.751427    17A     -0.643023    18A     -0.633962  
      19A     -0.626380    20A     -0.585839    21A     -0.573481  
      22A     -0.566837    23A     -0.549852    24A     -0.529325  
      25A     -0.519087    26A     -0.502229    27A     -0.485920  
      28A     -0.473454    29A     -0.468614    30A     -0.458627  
      31A     -0.449998    32A     -0.438467    33A     -0.433329  

    Virtual:                                                              

      34A      0.030794    35A      0.032762    36A      0.033899  
      37A      0.035960    38A      0.045582    39A      0.047385  
      40A      0.048947    41A      0.054027    42A      0.056130  
      43A      0.065737    44A      0.067245    45A      0.070566  
      46A      0.072103    47A      0.079436    48A      0.090196  
      49A      0.092249    50A      0.096148    51A      0.100028  
      52A      0.112650    53A      0.114650    54A      0.118265  
      55A      0.124244    56A      0.127217    57A      0.128513  
      58A      0.132533    59A      0.134582    60A      0.138482  
      61A      0.146495    62A      0.151106    63A      0.153463  
      64A      0.157715    65A      0.158547    66A      0.160225  
      67A      0.163066    68A      0.169543    69A      0.171768  
      70A      0.173740    71A      0.177854    72A      0.184089  
      73A      0.188197    74A      0.190238    75A      0.199595  
      76A      0.204229    77A      0.223499    78A      0.225625  
      79A      0.230090    80A      0.235138    81A      0.241435  
      82A      0.244286    83A      0.252175    84A      0.262298  
      85A      0.267686    86A      0.271180    87A      0.280603  
      88A      0.282406    89A      0.288063    90A      0.290936  
      91A      0.295619    92A      0.296396    93A      0.305506  
      94A      0.310070    95A      0.314294    96A      0.324500  
      97A      0.324809    98A      0.327969    99A      0.330280  
     100A      0.336583   101A      0.342565   102A      0.345272  
     103A      0.353899   104A      0.355186   105A      0.356602  
     106A      0.357844   107A      0.361371   108A      0.364483  
     109A      0.365678   110A      0.368841   111A      0.371650  
     112A      0.380479   113A      0.383407   114A      0.387312  
     115A      0.389938   116A      0.395434   117A      0.400768  
     118A      0.405188   119A      0.406659   120A      0.411264  
     121A      0.413379   122A      0.419925   123A      0.423517  
     124A      0.428467   125A      0.434428   126A      0.436498  
     127A      0.440110   128A      0.444042   129A      0.445781  
     130A      0.447018   131A      0.455297   132A      0.459745  
     133A      0.463332   134A      0.468594   135A      0.469124  
     136A      0.473617   137A      0.478464   138A      0.479817  
     139A      0.489093   140A      0.493105   141A      0.495284  
     142A      0.497455   143A      0.502217   144A      0.505331  
     145A      0.505613   146A      0.508540   147A      0.515753  
     148A      0.517010   149A      0.521066   150A      0.523683  
     151A      0.531694   152A      0.535529   153A      0.537152  
     154A      0.542877   155A      0.547802   156A      0.550600  
     157A      0.553216   158A      0.556997   159A      0.560312  
     160A      0.562814   161A      0.569649   162A      0.573050  
     163A      0.583349   164A      0.585794   165A      0.590552  
     166A      0.595938   167A      0.600681   168A      0.605989  
     169A      0.614141   170A      0.616421   171A      0.620787  
     172A      0.626829   173A      0.634525   174A      0.637830  
     175A      0.639286   176A      0.644678   177A      0.648230  
     178A      0.655882   179A      0.663226   180A      0.664767  
     181A      0.671017   182A      0.675922   183A      0.678852  
     184A      0.685013   185A      0.687713   186A      0.691914  
     187A      0.694499   188A      0.699147   189A      0.711133  
     190A      0.718634   191A      0.729848   192A      0.734834  
     193A      0.739535   194A      0.746063   195A      0.751350  
     196A      0.762097   197A      0.767765   198A      0.775086  
     199A      0.784591   200A      0.796107   201A      0.804961  
     202A      0.810834   203A      0.816734   204A      0.825094  
     205A      0.826546   206A      0.840033   207A      0.847285  
     208A      0.848683   209A      0.853361   210A      0.859514  
     211A      0.864381   212A      0.872070   213A      0.874234  
     214A      0.884811   215A      0.887192   216A      0.892015  
     217A      0.897760   218A      0.905387   219A      0.908778  
     220A      0.912631   221A      0.919716   222A      0.924973  
     223A      0.927497   224A      0.933042   225A      0.936272  
     226A      0.937675   227A      0.946105   228A      0.950292  
     229A      0.953177   230A      0.961026   231A      0.963377  
     232A      0.969366   233A      0.973718   234A      0.981414  
     235A      0.983813   236A      0.987481   237A      0.990879  
     238A      0.993245   239A      0.995527   240A      1.007907  
     241A      1.009246   242A      1.020106   243A      1.026156  
     244A      1.029568   245A      1.034098   246A      1.037375  
     247A      1.041432   248A      1.054157   249A      1.055952  
     250A      1.058604   251A      1.065681   252A      1.071103  
     253A      1.075337   254A      1.080965   255A      1.089867  
     256A      1.094292   257A      1.101664   258A      1.110431  
     259A      1.115264   260A      1.118270   261A      1.119891  
     262A      1.123931   263A      1.128576   264A      1.130165  
     265A      1.142939   266A      1.145090   267A      1.153669  
     268A      1.160080   269A      1.165576   270A      1.166921  
     271A      1.174782   272A      1.176561   273A      1.179677  
     274A      1.191652   275A      1.192850   276A      1.198696  
     277A      1.204957   278A      1.206349   279A      1.211176  
     280A      1.213459   281A      1.228995   282A      1.232945  
     283A      1.237190   284A      1.243974   285A      1.249414  
     286A      1.253013   287A      1.256031   288A      1.261752  
     289A      1.267872   290A      1.279219   291A      1.280510  
     292A      1.283787   293A      1.292255   294A      1.294758  
     295A      1.298510   296A      1.303901   297A      1.317197  
     298A      1.321372   299A      1.326402   300A      1.332236  
     301A      1.336942   302A      1.347113   303A      1.347869  
     304A      1.356061   305A      1.363517   306A      1.372287  
     307A      1.374418   308A      1.385621   309A      1.390997  
     310A      1.397858   311A      1.402727   312A      1.411812  
     313A      1.421684   314A      1.426581   315A      1.431478  
     316A      1.446438   317A      1.448820   318A      1.457167  
     319A      1.466693   320A      1.472048   321A      1.489669  
     322A      1.493325   323A      1.499387   324A      1.502155  
     325A      1.515825   326A      1.520934   327A      1.525560  
     328A      1.527179   329A      1.541166   330A      1.546515  
     331A      1.558022   332A      1.563808   333A      1.576916  
     334A      1.582905   335A      1.584068   336A      1.593546  
     337A      1.595219   338A      1.607694   339A      1.614061  
     340A      1.622586   341A      1.629330   342A      1.640525  
     343A      1.644295   344A      1.651089   345A      1.659205  
     346A      1.662224   347A      1.670531   348A      1.672943  
     349A      1.679482   350A      1.684378   351A      1.692036  
     352A      1.698182   353A      1.701825   354A      1.706974  
     355A      1.714453   356A      1.715914   357A      1.718527  
     358A      1.725767   359A      1.736276   360A      1.749738  
     361A      1.754283   362A      1.757634   363A      1.764388  
     364A      1.767645   365A      1.774635   366A      1.775297  
     367A      1.785376   368A      1.789411   369A      1.794608  
     370A      1.802112   371A      1.810686   372A      1.819353  
     373A      1.821298   374A      1.823006   375A      1.833847  
     376A      1.835320   377A      1.846215   378A      1.850713  
     379A      1.857516   380A      1.862702   381A      1.875126  
     382A      1.882438   383A      1.884768   384A      1.896324  
     385A      1.902231   386A      1.904898   387A      1.911904  
     388A      1.919608   389A      1.925034   390A      1.926865  
     391A      1.937150   392A      1.945604   393A      1.953839  
     394A      1.958475   395A      1.962838   396A      1.977683  
     397A      1.983833   398A      1.991780   399A      1.997221  
     400A      2.003672   401A      2.008216   402A      2.015483  
     403A      2.018670   404A      2.027189   405A      2.031706  
     406A      2.034982   407A      2.043999   408A      2.053249  
     409A      2.058792   410A      2.062022   411A      2.077712  
     412A      2.082025   413A      2.094312   414A      2.096552  
     415A      2.101299   416A      2.108054   417A      2.113777  
     418A      2.122010   419A      2.132720   420A      2.143966  
     421A      2.152409   422A      2.157112   423A      2.164671  
     424A      2.176384   425A      2.180362   426A      2.191511  
     427A      2.203788   428A      2.209049   429A      2.210934  
     430A      2.228701   431A      2.239388   432A      2.253410  
     433A      2.254752   434A      2.264291   435A      2.268091  
     436A      2.275157   437A      2.290454   438A      2.299396  
     439A      2.303625   440A      2.314774   441A      2.322732  
     442A      2.330443   443A      2.349139   444A      2.359844  
     445A      2.362983   446A      2.369560   447A      2.378892  
     448A      2.385315   449A      2.391991   450A      2.399180  
     451A      2.411896   452A      2.413912   453A      2.421095  
     454A      2.434735   455A      2.449476   456A      2.458467  
     457A      2.465360   458A      2.475229   459A      2.484024  
     460A      2.486874   461A      2.505683   462A      2.521295  
     463A      2.536373   464A      2.547883   465A      2.554290  
     466A      2.558484   467A      2.565557   468A      2.593662  
     469A      2.612593   470A      2.617471   471A      2.635461  
     472A      2.638447   473A      2.658423   474A      2.677638  
     475A      2.684736   476A      2.693341   477A      2.702744  
     478A      2.733459   479A      2.751258   480A      2.767328  
     481A      2.797023   482A      2.814255   483A      2.830877  
     484A      2.874428   485A      2.906952   486A      2.949204  
     487A      3.020186   488A      3.020970   489A      3.045933  
     490A      3.122385   491A      3.172454   492A      3.242163  
     493A      3.297213   494A      3.327329   495A      3.345905  
     496A      3.400640   497A      3.441805   498A      3.463849  
     499A      3.466635   500A      3.475596   501A      3.490803  
     502A      3.504075   503A      3.508889   504A      3.524355  
     505A      3.533686   506A      3.539557   507A      3.547271  
     508A      3.568461   509A      3.576397   510A      3.592904  
     511A      3.601606   512A      3.608215   513A      3.618809  
     514A      3.631060   515A      3.656178   516A      3.669028  
     517A      3.675505   518A      3.677321   519A      3.688277  
     520A      3.693323   521A      3.707293   522A      3.716669  
     523A      3.723131   524A      3.728168   525A      3.743274  
     526A      3.752546   527A      3.756652   528A      3.772125  
     529A      3.774097   530A      3.784304   531A      3.794683  
     532A      3.799669   533A      3.806176   534A      3.814663  
     535A      3.828650   536A      3.831970   537A      3.840735  
     538A      3.850396   539A      3.857388   540A      3.862742  
     541A      3.884898   542A      3.891426   543A      3.900370  
     544A      3.911934   545A      3.914278   546A      3.920924  
     547A      3.927685   548A      3.937605   549A      3.946047  
     550A      3.951490   551A      3.970631   552A      3.972713  
     553A      3.978221   554A      3.984820   555A      3.990366  
     556A      4.003803   557A      4.007855   558A      4.011659  
     559A      4.020299   560A      4.023673   561A      4.041575  
     562A      4.044041   563A      4.047867   564A      4.051374  
     565A      4.057754   566A      4.069985   567A      4.071746  
     568A      4.080721   569A      4.084903   570A      4.100715  
     571A      4.105045   572A      4.108658   573A      4.114612  
     574A      4.119651   575A      4.129952   576A      4.135982  
     577A      4.159674   578A      4.172424   579A      4.179405  
     580A      4.189368   581A      4.194685   582A      4.206892  
     583A      4.209273   584A      4.211873   585A      4.238128  
     586A      4.239763   587A      4.255962   588A      4.262213  
     589A      4.263712   590A      4.281168   591A      4.287266  
     592A      4.293232   593A      4.306674   594A      4.314815  
     595A      4.318448   596A      4.325511   597A      4.338663  
     598A      4.340167   599A      4.358221   600A      4.378595  
     601A      4.382756   602A      4.406881   603A      4.416173  
     604A      4.427477   605A      4.430974   606A      4.443008  
     607A      4.451445   608A      4.464227   609A      4.475952  
     610A      4.490785   611A      4.503635   612A      4.517286  
     613A      4.531077   614A      4.545907   615A      4.572920  
     616A      4.580550   617A      4.594313   618A      4.607138  
     619A      4.615415   620A      4.633979   621A      4.651623  
     622A      4.659331   623A      4.682634   624A      4.685874  
     625A      4.706283   626A      4.712750   627A      4.715853  
     628A      4.718516   629A      4.735084   630A      4.740566  
     631A      4.750284   632A      4.755668   633A      4.764271  
     634A      4.776273   635A      4.801405   636A      4.807965  
     637A      4.812913   638A      4.821416   639A      4.822181  
     640A      4.839193   641A      4.848906   642A      4.857365  
     643A      4.874203   644A      4.882477   645A      4.884970  
     646A      4.898237   647A      4.907809   648A      4.922060  
     649A      4.925840   650A      4.938398   651A      4.949492  
     652A      4.974672   653A      4.988841   654A      4.999278  
     655A      5.007878   656A      5.020474   657A      5.027127  
     658A      5.053400   659A      5.056128   660A      5.061449  
     661A      5.090838   662A      5.109187   663A      5.121324  
     664A      5.127550   665A      5.133003   666A      5.158160  
     667A      5.169521   668A      5.181324   669A      5.185323  
     670A      5.193149   671A      5.202885   672A      5.219065  
     673A      5.232886   674A      5.241711   675A      5.258044  
     676A      5.262195   677A      5.276731   678A      5.284263  
     679A      5.288442   680A      5.306972   681A      5.317504  
     682A      5.328461   683A      5.348078   684A      5.354067  
     685A      5.366412   686A      5.380093   687A      5.385473  
     688A      5.400370   689A      5.406470   690A      5.418033  
     691A      5.435645   692A      5.438032   693A      5.448741  
     694A      5.453484   695A      5.460167   696A      5.476481  
     697A      5.485892   698A      5.490111   699A      5.510123  
     700A      5.516900   701A      5.537595   702A      5.550924  
     703A      5.563903   704A      5.574633   705A      5.588705  
     706A      5.603095   707A      5.607841   708A      5.615687  
     709A      5.643510   710A      5.647936   711A      5.652330  
     712A      5.681122   713A      5.692479   714A      5.708496  
     715A      5.714148   716A      5.721056   717A      5.734436  
     718A      5.738629   719A      5.742255   720A      5.755257  
     721A      5.766949   722A      5.786213   723A      5.799894  
     724A      5.822589   725A      5.830937   726A      5.850313  
     727A      5.859735   728A      5.887234   729A      5.899610  
     730A      5.934932   731A      5.942384   732A      5.964712  
     733A      5.982544   734A      5.993387   735A      6.017646  
     736A      6.032934   737A      6.042075   738A      6.081153  
     739A      6.119599   740A      6.129098   741A      6.153418  
     742A      6.175210   743A      6.179844   744A      6.189236  
     745A      6.224466   746A      6.241068   747A      6.262120  
     748A      6.281009   749A      6.299865   750A      6.300351  
     751A      6.321553   752A      6.340504   753A      6.347093  
     754A      6.367292   755A      6.383183   756A      6.400868  
     757A      6.420804   758A      6.458741   759A      6.578679  
     760A      6.653984   761A      6.670575   762A      6.675644  
     763A      6.751096   764A      6.775676   765A      6.793510  
     766A      6.852968   767A      6.883267   768A      6.900696  
     769A      6.924281   770A      6.992363   771A      7.023855  
     772A      7.062496   773A      7.076604   774A      7.140793  
     775A     18.046843   776A     18.183814   777A     18.339948  
     778A     18.602375   779A     18.700485   780A     19.029964  
     781A     19.375620   782A     19.880964  

    Final Occupation by Irrep:
              A 
    DOCC [    33 ]

  Energy converged.

  @DF-RHF Final Energy:  -313.54122518060854

   => Energetics <=

    Nuclear Repulsion Energy =            394.5581251776195586
    One-Electron Energy =               -1204.2355634894693139
    Two-Electron Energy =                 496.1362131312407087
    DFT Exchange-Correlation Energy =       0.0000000000000000
    Empirical Dispersion Energy =           0.0000000000000000
    PCM Polarization Energy =               0.0000000000000000
    EFP Energy =                            0.0000000000000000
    Total Energy =                       -313.5412251806090467


  Saving occupied orbitals to File 180.

*** tstop() called on wr34 at Tue Sep 20 16:44:30 2016
Module time:
	user time   =     913.94 seconds =      15.23 minutes
	system time =      10.01 seconds =       0.17 minutes
	total time  =         84 seconds =       1.40 minutes
Total time:
	user time   =     913.94 seconds =      15.23 minutes
	system time =      10.01 seconds =       0.17 minutes
	total time  =         84 seconds =       1.40 minutes


Properties will be evaluated at   0.000000,   0.000000,   0.000000 Bohr

Properties computed using the SCF density matrix

  Nuclear Dipole Moment: (a.u.)
     X:     0.6857      Y:    -1.0183      Z:    -0.6260

  Electronic Dipole Moment: (a.u.)
     X:    -0.7070      Y:     1.0511      Z:     0.6430

  Dipole Moment: (a.u.)
     X:    -0.0213      Y:     0.0328      Z:     0.0169     Total:     0.0426

  Dipole Moment: (Debye)
     X:    -0.0541      Y:     0.0834      Z:     0.0431     Total:     0.1083


  //>>>>>>>>>>>>>>>>>>>>>>>>>>>>>>>>>>>//
  //               DFMP2               //
  //<<<<<<<<<<<<<<<<<<<<<<<<<<<<<<<<<<<//


*** tstart() called on wr34
*** at Tue Sep 20 16:44:30 2016


*** tstop() called on wr34 at Tue Sep 20 16:44:31 2016
Module time:
	user time   =       3.92 seconds =       0.07 minutes
	system time =       0.21 seconds =       0.00 minutes
	total time  =          1 seconds =       0.02 minutes
Total time:
	user time   =     919.52 seconds =      15.33 minutes
	system time =      10.31 seconds =       0.17 minutes
	total time  =         85 seconds =       1.42 minutes
	 --------------------------------------------------------
	                          DF-MP2                         
	      2nd-Order Density-Fitted Moller-Plesset Theory     
	              RMP2 Wavefunction,  12 Threads             
	                                                         
	        Rob Parrish, Justin Turney, Andy Simmonett,      
	           Ed Hohenstein, and C. David Sherrill          
	 --------------------------------------------------------

   => Auxiliary Basis Set <=

  Basis Set: 
    Number of shells: 476
    Number of basis function: 1676
    Number of Cartesian functions: 2078
    Spherical Harmonics?: true
    Max angular momentum: 4

	 --------------------------------------------------------
	                 NBF =   782, NAUX =  1676
	 --------------------------------------------------------
	   CLASS    FOCC     OCC    AOCC    AVIR     VIR    FVIR
	   PAIRS       8      33      25     749     749       0
	 --------------------------------------------------------

DGAS Warning! /src/lib/libfock/apps.cc:80 is not currently checking restricted

         ------------------------------------------------------------
                                     CPHF                           
                                  Rob Parrish                       
         ------------------------------------------------------------

  ==> Geometry <==

    Molecular point group: c1
    Full point group: C1

    Geometry (in Angstrom), charge = 0, multiplicity = 1:

       Center              X                  Y                   Z               Mass       
    ------------   -----------------  -----------------  -----------------  -----------------
           C          3.948806195830    -0.247516670120    -0.272548649203    12.000000000000
           H          4.680425039683     0.513759819408    -0.533193613914     1.007825032070
           H          3.916019396172    -0.973021221163    -1.083576936207     1.007825032070
           H          4.301378998840    -0.763037705282     0.618972136323     1.007825032070
           C         -3.077915547941    -1.032751157097    -0.513152006488    12.000000000000
           H         -2.174820545246    -1.627967044892    -0.627376454396     1.007825032070
           H         -3.365509143435    -0.673160013163    -1.500519110249     1.007825032070
           H         -3.865024618372    -1.691743315898    -0.153547015520     1.007825032070
           C          2.574813227887     0.352314000278    -0.037569619227    12.000000000000
           H          2.260757251837     0.892952748941    -0.929365623395     1.007825032070
           H          2.623956534652     1.083781183731     0.771432237220     1.007825032070
           C         -2.858839597515     0.130401807196     0.437727558651    12.000000000000
           H         -3.809174026035     0.631872378635     0.621646691973     1.007825032070
           H         -2.522179006992    -0.244419770449     1.404003194655     1.007825032070
           C          1.543497212635    -0.704242777620     0.315511972476    12.000000000000
           H          1.923815100644    -1.296952758398     1.150038200211     1.007825032070
           H          1.434497442812    -1.391388053239    -0.527854920525     1.007825032070
           C          0.178660471508    -0.143676496968     0.681409631187    12.000000000000
           H          0.282409294197     0.541490177940     1.527584466761     1.007825032070
           H         -0.455780630792    -0.962337079620     1.022495558236     1.007825032070
           C         -0.504926730847     0.582442068283    -0.463212031562    12.000000000000
           H          0.127878086069     1.400668345753    -0.806352523097     1.007825032070
           H         -0.605395620998    -0.101480076955    -1.308533334888     1.007825032070
           C         -1.865525407527     1.154256221578    -0.092080815758    12.000000000000
           H         -1.725818702303     1.936027477282     0.657223927306     1.007825032070
           H         -2.295996269453     1.638730700271    -0.970883751224     1.007825032070

  Nuclear repulsion =  394.558125177619559
  Reference energy  = -313.541225180608535

  ==> Basis Set <==

  Basis Set: AUG-CC-PVTZ
    Number of shells: 274
    Number of basis function: 782
    Number of Cartesian functions: 890
    Spherical Harmonics?: true
    Max angular momentum: 3

  ==> CGRSolver (by Rob Parrish) <==

   Number of roots    =         1
   Preconditioning    =    JACOBI
   Convergence cutoff =     1E-06
   Maximum iterations =       100

  ==> CPHFRHamiltonian (by Rob Parrish) <== 

  ==> DFJK: Density-Fitted J/K Matrices <==

    J tasked:                  Yes
    K tasked:                  Yes
    wK tasked:                  No
    OpenMP threads:             12
    Integrals threads:          12
    Memory (MB):             21457
    Algorithm:                Core
    Integral Cache:           NONE
    Schwarz Cutoff:          1E-12
    Fitting Condition:       1E-12

   => Auxiliary Basis Set <=

  Basis Set: 
    Number of shells: 492
    Number of basis function: 1660
    Number of Cartesian functions: 2038
    Spherical Harmonics?: true
    Max angular momentum: 4

  ==> CPHF Iterations <==

  => Iterations <=

             Iter  Converged  Remaining    Residual
  CGR           1          0          1   9.140E-02
  CGR           2          0          1   1.294E-02
  CGR           3          0          1   3.568E-03
  CGR           4          0          1   8.500E-04
  CGR           5          0          1   2.033E-04
  CGR           6          0          1   5.104E-05
  CGR           7          0          1   1.381E-05
  CGR           8          0          1   3.197E-06
  CGR           9          1          0   8.534E-07

    CGRSolver converged.

  ==> DFCorrGrad: Density-Fitted Correlated Gradients <==

    OpenMP threads:             12
    Integrals threads:          12
    Memory (MB):             21457
    Schwarz Cutoff:          0E+00
    Fitting Condition:       1E-12

   => Auxiliary Basis Set <=

  Basis Set: 
    Number of shells: 492
    Number of basis function: 1660
    Number of Cartesian functions: 2038
    Spherical Harmonics?: true
    Max angular momentum: 4

	-----------------------------------------------------------
	 ==================> DF-MP2 Energies <==================== 
	-----------------------------------------------------------
	 Reference Energy          =    -313.5412251806085351 [Eh]
	 Singles Energy            =      -0.0000000000000002 [Eh]
	 Same-Spin Energy          =      -0.3168211294887418 [Eh]
	 Opposite-Spin Energy      =      -1.1250553090995872 [Eh]
	 Correlation Energy        =      -1.4418764385883291 [Eh]
	 Total Energy              =    -314.9831016191968729 [Eh]
	-----------------------------------------------------------
	 ================> DF-SCS-MP2 Energies <================== 
	-----------------------------------------------------------
	 SCS Same-Spin Scale       =       0.3333333333333333 [-]
	 SCS Opposite-Spin Scale   =       1.2000000000000000 [-]
	 SCS Same-Spin Energy      =      -0.1056070431629139 [Eh]
	 SCS Opposite-Spin Energy  =      -1.3500663709195047 [Eh]
	 SCS Correlation Energy    =      -1.4556734140824188 [Eh]
	 SCS Total Energy          =    -314.9968985946909470 [Eh]
	-----------------------------------------------------------


  -Total Gradient:
     Atom            X                  Y                   Z
    ------   -----------------  -----------------  -----------------
       1       -0.001407696928     0.000659141113     0.000284381093
       2       -0.001149538540    -0.000838899105     0.000337207451
       3       -0.000272977265     0.001032155556     0.001090214337
       4       -0.000754134574     0.000745637959    -0.001075862574
       5        0.000757004146     0.001025544418     0.000899826274
       6       -0.001174657116     0.001098803176     0.000401135136
       7        0.000463452053    -0.000162315311     0.001360630642
       8        0.000908670793     0.000977221332    -0.000249585285
       9        0.000205257912    -0.001984780552     0.000035894816
      10        0.000346092153    -0.001100542798     0.001077310648
      11       -0.000097879735    -0.001243196365    -0.000941214487
      12        0.001170579125    -0.000166293985    -0.001815230880
      13        0.001249222067    -0.000564325534    -0.000414504662
      14       -0.000150749163     0.000607728766    -0.001429782965
      15       -0.000452703267     0.002006163840     0.000206641533
      16       -0.000518647321     0.000925464561    -0.000988296915
      17        0.000030392906     0.001221681357     0.000828415612
      18        0.000738079054    -0.000105217620    -0.001903570035
      19       -0.000169382954    -0.000592131585    -0.001267739242
      20        0.000878597683     0.000974339544    -0.000668615636
      21       -0.000884997620    -0.000152875804     0.001795460740
      22       -0.000765917812    -0.000961668156     0.000748303439
      23        0.000024630475     0.000822612294     0.001271229508
      24        0.000464365254    -0.002212967579     0.000177181584
      25        0.000005950539    -0.001180474629    -0.000796028324
      26        0.000556988135    -0.000830804892     0.001036598189


			-----------------------------------------
			 OPTKING 2.0: for geometry optimizations 
			  - R.A. King,  Bethel University        
			-----------------------------------------

	Internal coordinates to be generated automatically.
	Detected frag 1 with atoms:  1 2 3 4 5 6 7 8 9 10 11 12 13 14 15 16 17 18 19 20
	 21 22 23 24 25 26
	---Fragment 1 Bond Connectivity---
	 1 : 2 3 4 9
	 2 : 1
	 3 : 1
	 4 : 1
	 5 : 6 7 8 12
	 6 : 5
	 7 : 5
	 8 : 5
	 9 : 1 10 11 15
	 10 : 9
	 11 : 9
	 12 : 5 13 14 24
	 13 : 12
	 14 : 12
	 15 : 9 16 17 18
	 16 : 15
	 17 : 15
	 18 : 15 19 20 21
	 19 : 18
	 20 : 18
	 21 : 18 22 23 24
	 22 : 21
	 23 : 21
	 24 : 12 21 25 26
	 25 : 24
	 26 : 24

	---Fragment 1 Geometry and Gradient---
	 C           7.4621622620       -0.4677387199       -0.5150423049
	 H           8.8447215105        0.9708653568       -1.0075899061
	 H           7.4002041898       -1.8387436295       -2.0476636533
	 H           8.1284283016       -1.4419322920        1.1696878215
	 C          -5.8164174458       -1.9516168503       -0.9697167568
	 H          -4.1098152187       -3.0764118682       -1.1855696810
	 H          -6.3598905788       -1.2720880685       -2.8355701755
	 H          -7.3038380256       -3.1969315542       -0.2901618079
	 C           4.8656918440        0.6657769733       -0.0709962913
	 H           4.2722120589        1.6874361451       -1.7562465055
	 H           4.9585592351        2.0480496252        1.4577956584
	 C          -5.4024238972        0.2464237028        0.8271852067
	 H          -7.1982957017        1.1940657466        1.1747419992
	 H          -4.7662275813       -0.4618864276        2.6531815276
	 C           2.9167870188       -1.3308259808        0.5962312196
	 H           3.6354836705       -2.4508855207        2.1732572408
	 H           2.7108073052       -2.6293423652       -0.9975012377
	 C           0.3376193619       -0.2715092310        1.2876775873
	 H           0.5336762234        1.0232681400        2.8867162870
	 H          -0.8613005689       -1.8185535280        1.9322365772
	 C          -0.9541732385        1.1006559973       -0.8753438811
	 H           0.2416545611        2.6468795765       -1.5237854352
	 H          -1.1440319257       -0.1917695534       -2.4727696387
	 C          -3.5253321142        2.1812281460       -0.1740075239
	 H          -3.2613247024        3.6585617178        1.2419732306
	 H          -4.3388041514        3.0967522291       -1.8347043967
	            -0.0014076969        0.0006591411        0.0002843811
	            -0.0011495385       -0.0008388991        0.0003372075
	            -0.0002729773        0.0010321556        0.0010902143
	            -0.0007541346        0.0007456380       -0.0010758626
	             0.0007570041        0.0010255444        0.0008998263
	            -0.0011746571        0.0010988032        0.0004011351
	             0.0004634521       -0.0001623153        0.0013606306
	             0.0009086708        0.0009772213       -0.0002495853
	             0.0002052579       -0.0019847806        0.0000358948
	             0.0003460922       -0.0011005428        0.0010773106
	            -0.0000978797       -0.0012431964       -0.0009412145
	             0.0011705791       -0.0001662940       -0.0018152309
	             0.0012492221       -0.0005643255       -0.0004145047
	            -0.0001507492        0.0006077288       -0.0014297830
	            -0.0004527033        0.0020061638        0.0002066415
	            -0.0005186473        0.0009254646       -0.0009882969
	             0.0000303929        0.0012216814        0.0008284156
	             0.0007380791       -0.0001052176       -0.0019035700
	            -0.0001693830       -0.0005921316       -0.0012677392
	             0.0008785977        0.0009743395       -0.0006686156
	            -0.0008849976       -0.0001528758        0.0017954607
	            -0.0007659178       -0.0009616682        0.0007483034
	             0.0000246305        0.0008226123        0.0012712295
	             0.0004643653       -0.0022129676        0.0001771816
	             0.0000059505       -0.0011804746       -0.0007960283
	             0.0005569881       -0.0008308049        0.0010365982

	Previous optimization step data not found.  Starting new optimization.

	---Fragment 1 Intrafragment Coordinates---
	 - Coordinate -           - BOHR/RAD -       - ANG/DEG -
	 R(1,2)           =         2.055153	       1.087540
	 R(1,3)           =         2.057285	       1.088668
	 R(1,4)           =         2.057007	       1.088521
	 R(1,9)           =         2.867698	       1.517521
	 R(5,6)           =         2.055297	       1.087617
	 R(5,7)           =         2.058769	       1.089454
	 R(5,8)           =         2.055486	       1.087716
	 R(5,12)          =         2.869082	       1.518253
	 R(9,10)          =         2.058172	       1.089138
	 R(9,11)          =         2.063130	       1.091762
	 R(9,15)          =         2.868771	       1.518088
	 R(12,13)         =         2.060091	       1.090153
	 R(12,14)         =         2.059299	       1.089734
	 R(12,24)         =         2.875644	       1.521725
	 R(15,16)         =         2.063509	       1.091962
	 R(15,17)         =         2.066048	       1.093306
	 R(15,18)         =         2.872691	       1.520163
	 R(18,19)         =         2.066836	       1.093723
	 R(18,20)         =         2.060634	       1.090440
	 R(18,21)         =         2.868837	       1.518123
	 R(21,22)         =         2.059439	       1.089808
	 R(21,23)         =         2.063536	       1.091976
	 R(21,24)         =         2.875825	       1.521821
	 R(24,25)         =         2.063302	       1.091852
	 R(24,26)         =         2.063452	       1.091932
	 B(1,9,10)        =         1.907631	     109.299207
	 B(1,9,11)        =         1.916449	     109.804460
	 B(1,9,15)        =         1.956286	     112.086940
	 B(2,1,3)         =         1.884103	     107.951134
	 B(2,1,4)         =         1.885895	     108.053844
	 B(2,1,9)         =         1.949292	     111.686223
	 B(3,1,4)         =         1.879989	     107.715454
	 B(3,1,9)         =         1.929970	     110.579118
	 B(4,1,9)         =         1.932261	     110.710401
	 B(5,12,13)       =         1.909523	     109.407605
	 B(5,12,14)       =         1.913901	     109.658438
	 B(5,12,24)       =         1.973161	     113.053777
	 B(6,5,7)         =         1.880363	     107.736855
	 B(6,5,8)         =         1.879711	     107.699524
	 B(6,5,12)        =         1.944675	     111.421687
	 B(7,5,8)         =         1.884487	     107.973159
	 B(7,5,12)        =         1.931396	     110.660819
	 B(8,5,12)        =         1.940681	     111.192827
	 B(9,15,16)       =         1.895378	     108.597177
	 B(9,15,17)       =         1.902592	     109.010487
	 B(9,15,18)       =         1.992455	     114.159269
	 B(10,9,11)       =         1.862042	     106.687148
	 B(10,9,15)       =         1.917741	     109.878451
	 B(11,9,15)       =         1.901313	     108.937189
	 B(12,24,21)      =         1.999509	     114.563426
	 B(12,24,25)      =         1.903220	     109.046447
	 B(12,24,26)      =         1.897998	     108.747280
	 B(13,12,14)      =         1.852445	     106.137254
	 B(13,12,24)      =         1.894705	     108.558594
	 B(14,12,24)      =         1.916098	     109.784321
	 B(15,18,19)      =         1.909283	     109.393838
	 B(15,18,20)      =         1.897386	     108.712203
	 B(15,18,21)      =         1.981410	     113.526457
	 B(16,15,17)      =         1.857830	     106.445814
	 B(16,15,18)      =         1.905943	     109.202501
	 B(17,15,18)      =         1.904901	     109.142783
	 B(18,21,22)      =         1.912448	     109.575219
	 B(18,21,23)      =         1.902365	     108.997506
	 B(18,21,24)      =         1.980596	     113.479808
	 B(19,18,20)      =         1.858247	     106.469703
	 B(19,18,21)      =         1.903291	     109.050515
	 B(20,18,21)      =         1.910220	     109.447563
	 B(21,24,25)      =         1.898636	     108.783812
	 B(21,24,26)      =         1.899592	     108.838590
	 B(22,21,23)      =         1.854506	     106.255386
	 B(22,21,24)      =         1.890011	     108.289667
	 B(23,21,24)      =         1.919694	     109.990364
	 B(25,24,26)      =         1.859888	     106.563738
	 D(1,9,15,16)     =         0.920824	      52.759303
	 D(1,9,15,17)     =        -1.096534	     -62.826750
	 D(1,9,15,18)     =         3.051725	     174.850988
	 D(2,1,9,10)      =         1.002694	      57.450127
	 D(2,1,9,11)      =        -1.034276	     -59.259646
	 D(2,1,9,15)      =         3.133157	     179.516676
	 D(3,1,9,10)      =        -1.095862	     -62.788242
	 D(3,1,9,11)      =        -3.132831	    -179.498015
	 D(3,1,9,15)      =         1.034602	      59.278307
	 D(4,1,9,10)      =         3.105083	     177.908126
	 D(4,1,9,11)      =         1.068113	      61.198353
	 D(4,1,9,15)      =        -1.047640	     -60.025325
	 D(5,12,24,21)    =        -0.968120	     -55.469197
	 D(5,12,24,25)    =        -3.100275	    -177.632685
	 D(5,12,24,26)    =         1.161339	      66.539817
	 D(6,5,12,13)     =        -3.023891	    -173.256177
	 D(6,5,12,14)     =        -0.998857	     -57.230270
	 D(6,5,12,24)     =         1.145539	      65.634544
	 D(7,5,12,13)     =         1.167564	      66.896497
	 D(7,5,12,14)     =        -3.090587	    -177.077595
	 D(7,5,12,24)     =        -0.946192	     -54.212782
	 D(8,5,12,13)     =        -0.926728	     -53.097584
	 D(8,5,12,14)     =         1.098306	      62.928323
	 D(8,5,12,24)     =        -3.040483	    -174.206863
	 D(9,15,18,19)    =        -1.011834	     -57.973825
	 D(9,15,18,20)    =        -3.034421	    -173.859525
	 D(9,15,18,21)    =         1.118354	      64.076938
	 D(10,9,15,16)    =         3.045507	     174.494697
	 D(10,9,15,17)    =         1.028150	      58.908645
	 D(10,9,15,18)    =        -1.106776	     -63.413618
	 D(11,9,15,16)    =        -1.203623	     -68.962494
	 D(11,9,15,17)    =         3.062206	     175.451453
	 D(11,9,15,18)    =         0.927279	      53.129191
	 D(12,24,21,18)   =        -0.992432	     -56.862146
	 D(12,24,21,22)   =        -3.119826	    -178.752837
	 D(12,24,21,23)   =         1.143691	      65.528683
	 D(13,12,24,21)   =        -3.090243	    -177.057908
	 D(13,12,24,25)   =         1.060787	      60.778603
	 D(13,12,24,26)   =        -0.960784	     -55.048895
	 D(14,12,24,21)   =         1.175055	      67.325675
	 D(14,12,24,25)   =        -0.957100	     -54.837814
	 D(14,12,24,26)   =        -2.978672	    -170.665311
	 D(15,18,21,22)   =        -1.017461	     -58.296250
	 D(15,18,21,23)   =         1.005183	      57.592723
	 D(15,18,21,24)   =        -3.132311	    -179.468228
	 D(16,15,18,19)   =         1.113262	      63.785230
	 D(16,15,18,20)   =        -0.909325	     -52.100470
	 D(16,15,18,21)   =        -3.039735	    -174.164006
	 D(17,15,18,19)   =         3.137689	     179.776322
	 D(17,15,18,20)   =         1.115102	      63.890622
	 D(17,15,18,21)   =        -1.015309	     -58.172914
	 D(18,21,24,25)   =         1.142214	      65.444064
	 D(18,21,24,26)   =        -3.121022	    -178.821404
	 D(19,18,21,22)   =         1.116051	      63.945003
	 D(19,18,21,23)   =         3.138695	     179.833976
	 D(19,18,21,24)   =        -0.998799	     -57.226975
	 D(20,18,21,22)   =        -3.140729	    -179.950495
	 D(20,18,21,23)   =        -1.118084	     -64.061522
	 D(20,18,21,24)   =         1.027607	      58.877527
	 D(22,21,24,25)   =        -0.985180	     -56.446628
	 D(22,21,24,26)   =         1.034769	      59.287905
	 D(23,21,24,25)   =        -3.004848	    -172.165107
	 D(23,21,24,26)   =        -0.984899	     -56.430574
	 R(5,18)          =         6.766887	       3.580882

	Current energy   :      -314.9831016192

	Generating empirical Hessian (Schlegel '84) for each fragment.
	Taking RFO optimization step.
	Going to follow RFO solution 1.
	Using RFO vector 1.
	Norm of target step-size    0.08885
	Projected energy change by RFO approximation:        -0.0005681000

	Back-transformation to cartesian coordinates...
	Successfully converged to displaced geometry.

	--- Internal Coordinate Step in ANG or DEG, aJ/ANG or AJ/DEG ---
	 ---------------------------------------------------------------------------
	   Coordinate                Previous        Force       Change         New 
	   ----------                --------       ------       ------       ------
	    1 R(1,2)          =      1.087540     0.011875     0.002170     1.089710
	    2 R(1,3)          =      1.088668     0.012291     0.002254     1.090922
	    3 R(1,4)          =      1.088521     0.012181     0.002233     1.090754
	    4 R(1,9)          =      1.517521     0.032753     0.006861     1.524382
	    5 R(5,6)          =      1.087617     0.013337     0.002437     1.090054
	    6 R(5,7)          =      1.089454     0.011609     0.002135     1.091588
	    7 R(5,8)          =      1.087716     0.010975     0.002006     1.089723
	    8 R(5,12)         =      1.518253     0.026343     0.006279     1.524531
	    9 R(9,10)         =      1.089138     0.012590     0.002313     1.091451
	   10 R(9,11)         =      1.091762     0.012645     0.002343     1.094104
	   11 R(9,15)         =      1.518088     0.034728     0.007288     1.525376
	   12 R(12,13)        =      1.090153     0.011687     0.002154     1.092307
	   13 R(12,14)        =      1.089734     0.012551     0.002310     1.092044
	   14 R(12,24)        =      1.521725     0.029490     0.007179     1.528904
	   15 R(15,16)        =      1.091962     0.011850     0.002197     1.094159
	   16 R(15,17)        =      1.093306     0.011616     0.002163     1.095469
	   17 R(15,18)        =      1.520163     0.036137     0.007633     1.527796
	   18 R(18,19)        =      1.093723     0.011269     0.002102     1.095824
	   19 R(18,20)        =      1.090440     0.011961     0.002207     1.092647
	   20 R(18,21)        =      1.518123     0.029060     0.006863     1.524986
	   21 R(21,22)        =      1.089808     0.011554     0.002127     1.091935
	   22 R(21,23)        =      1.091976     0.012371     0.002294     1.094270
	   23 R(21,24)        =      1.521821     0.030368     0.007359     1.529180
	   24 R(24,25)        =      1.091852     0.011458     0.002124     1.093976
	   25 R(24,26)        =      1.091932     0.011719     0.002173     1.094105
	   26 B(1,9,10)       =    109.299207    -0.000000     0.004758   109.303965
	   27 B(1,9,11)       =    109.804460     0.000001    -0.015486   109.788974
	   28 B(1,9,15)       =    112.086940    -0.000007     0.015983   112.102924
	   29 B(2,1,3)        =    107.951134    -0.000022    -0.102571   107.848563
	   30 B(2,1,4)        =    108.053844    -0.000023    -0.123745   107.930099
	   31 B(2,1,9)        =    111.686223     0.000015     0.055768   111.741991
	   32 B(3,1,4)        =    107.715454    -0.000023    -0.088395   107.627059
	   33 B(3,1,9)        =    110.579118     0.000026     0.128150   110.707268
	   34 B(4,1,9)        =    110.710401     0.000024     0.114738   110.825139
	   35 B(5,12,13)      =    109.407605     0.000033    -0.014106   109.393499
	   36 B(5,12,14)      =    109.658438    -0.000005    -0.046203   109.612235
	   37 B(5,12,24)      =    113.053777    -0.000058     0.030166   113.083943
	   38 B(6,5,7)        =    107.736855    -0.000025    -0.094695   107.642160
	   39 B(6,5,8)        =    107.699524    -0.000025    -0.121067   107.578457
	   40 B(6,5,12)       =    111.421687     0.000030     0.146566   111.568253
	   41 B(7,5,8)        =    107.973159    -0.000023    -0.124303   107.848856
	   42 B(7,5,12)       =    110.660819     0.000024     0.116009   110.776828
	   43 B(8,5,12)       =    111.192827     0.000015     0.058398   111.251225
	   44 B(9,15,16)      =    108.597177    -0.000021    -0.142508   108.454669
	   45 B(9,15,17)      =    109.010487    -0.000002     0.132185   109.142672
	   46 B(9,15,18)      =    114.159269     0.000049     0.224247   114.383516
	   47 B(10,9,11)      =    106.687148    -0.000014    -0.190611   106.496536
	   48 B(10,9,15)      =    109.878451     0.000013     0.113343   109.991794
	   49 B(11,9,15)      =    108.937189     0.000008     0.061699   108.998888
	   50 B(12,24,21)     =    114.563426    -0.000102     0.070204   114.633630
	   51 B(12,24,25)     =    109.046447     0.000015     0.030050   109.076496
	   52 B(12,24,26)     =    108.747280     0.000047    -0.024320   108.722960
	   53 B(13,12,14)     =    106.137254    -0.000018    -0.137650   105.999604
	   54 B(13,12,24)     =    108.558594     0.000021     0.046545   108.605140
	   55 B(14,12,24)     =    109.784321     0.000031     0.110639   109.894960
	   56 B(15,18,19)     =    109.393838    -0.000025    -0.072685   109.321153
	   57 B(15,18,20)     =    108.712203    -0.000009    -0.043440   108.668763
	   58 B(15,18,21)     =    113.526457     0.000048     0.215928   113.742385
	   59 B(16,15,17)     =    106.445814    -0.000005    -0.222067   106.223747
	   60 B(16,15,18)     =    109.202501    -0.000012    -0.091495   109.111005
	   61 B(17,15,18)     =    109.142783    -0.000012     0.065748   109.208531
	   62 B(18,21,22)     =    109.575219     0.000037     0.078824   109.654043
	   63 B(18,21,23)     =    108.997506    -0.000000    -0.006281   108.991225
	   64 B(18,21,24)     =    113.479808    -0.000046     0.074836   113.554644
	   65 B(19,18,20)     =    106.469703    -0.000003    -0.184345   106.285359
	   66 B(19,18,21)     =    109.050515     0.000005     0.135453   109.185968
	   67 B(20,18,21)     =    109.447563    -0.000019    -0.078614   109.368948
	   68 B(21,24,25)     =    108.783812     0.000054     0.083370   108.867182
	   69 B(21,24,26)     =    108.838590     0.000015    -0.011957   108.826633
	   70 B(22,21,23)     =    106.255386    -0.000017    -0.161526   106.093860
	   71 B(22,21,24)     =    108.289667     0.000013     0.018635   108.308302
	   72 B(23,21,24)     =    109.990364     0.000015    -0.020067   109.970297
	   73 B(25,24,26)     =    106.563738    -0.000026    -0.166295   106.397442
	   74 D(1,9,15,16)    =     52.759303    -0.000001     0.365464    53.124767
	   75 D(1,9,15,17)    =    -62.826750     0.000003     0.635329   -62.191420
	   76 D(1,9,15,18)    =    174.850988    -0.000001     0.293746   175.144734
	   77 D(2,1,9,10)     =     57.450127    -0.000002    -0.061863    57.388264
	   78 D(2,1,9,11)     =    -59.259646     0.000002     0.174289   -59.085356
	   79 D(2,1,9,15)     =    179.516676     0.000001     0.096060   179.612737
	   80 D(3,1,9,10)     =    -62.788242    -0.000002    -0.056385   -62.844628
	   81 D(3,1,9,11)     =   -179.498015     0.000002     0.179767  -179.318248
	   82 D(3,1,9,15)     =     59.278307     0.000001     0.101538    59.379845
	   83 D(4,1,9,10)     =    177.908126    -0.000003    -0.102866   177.805260
	   84 D(4,1,9,11)     =     61.198353     0.000001     0.133286    61.331640
	   85 D(4,1,9,15)     =    -60.025325    -0.000000     0.055057   -59.970267
	   86 D(5,12,24,21)   =    -55.469197     0.000008    -0.059602   -55.528798
	   87 D(5,12,24,25)   =   -177.632685     0.000006    -0.239961  -177.872646
	   88 D(5,12,24,26)   =     66.539817     0.000005    -0.045212    66.494605
	   89 D(6,5,12,13)    =   -173.256177     0.000001    -0.353212  -173.609389
	   90 D(6,5,12,14)    =    -57.230270    -0.000000    -0.552883   -57.783153
	   91 D(6,5,12,24)    =     65.634544    -0.000001    -0.422769    65.211775
	   92 D(7,5,12,13)    =     66.896497     0.000000    -0.408643    66.487854
	   93 D(7,5,12,14)    =   -177.077595    -0.000001    -0.608314  -177.685910
	   94 D(7,5,12,24)    =    -54.212782    -0.000002    -0.478200   -54.690982
	   95 D(8,5,12,13)    =    -53.097584     0.000001    -0.367930   -53.465514
	   96 D(8,5,12,14)    =     62.928323    -0.000000    -0.567601    62.360722
	   97 D(8,5,12,24)    =   -174.206863    -0.000001    -0.437487  -174.644350
	   98 D(9,15,18,19)   =    -57.973825    -0.000001     0.745928   -57.227898
	   99 D(9,15,18,20)   =   -173.859525     0.000004     1.029276  -172.830249
	  100 D(9,15,18,21)   =     64.076938     0.000004     1.016337    65.093275
	  101 D(10,9,15,16)   =    174.494697    -0.000000     0.461971   174.956668
	  102 D(10,9,15,17)   =     58.908645     0.000004     0.731836    59.640481
	  103 D(10,9,15,18)   =    -63.413618     0.000000     0.390253   -63.023365
	  104 D(11,9,15,16)   =    -68.962494    -0.000002     0.331975   -68.630518
	  105 D(11,9,15,17)   =    175.451453     0.000003     0.601841   176.053294
	  106 D(11,9,15,18)   =     53.129191    -0.000001     0.260258    53.389448
	  107 D(12,24,21,18)  =    -56.862146     0.000007    -0.378349   -57.240494
	  108 D(12,24,21,22)  =   -178.752837     0.000001    -0.541796  -179.294634
	  109 D(12,24,21,23)  =     65.528683     0.000002    -0.348587    65.180096
	  110 D(13,12,24,21)  =   -177.057908     0.000004    -0.094405  -177.152314
	  111 D(13,12,24,25)  =     60.778603     0.000001    -0.274764    60.503838
	  112 D(13,12,24,26)  =    -55.048895     0.000001    -0.080016   -55.128911
	  113 D(14,12,24,21)  =     67.325675     0.000002    -0.016386    67.309289
	  114 D(14,12,24,25)  =    -54.837814    -0.000000    -0.196745   -55.034559
	  115 D(14,12,24,26)  =   -170.665311    -0.000001    -0.001997  -170.667308
	  116 D(15,18,21,22)  =    -58.296250     0.000001    -0.052809   -58.349058
	  117 D(15,18,21,23)  =     57.592723     0.000001    -0.206091    57.386632
	  118 D(15,18,21,24)  =   -179.468228    -0.000002    -0.184865  -179.653093
	  119 D(16,15,18,19)  =     63.785230    -0.000001     0.647390    64.432620
	  120 D(16,15,18,20)  =    -52.100470     0.000004     0.930738   -51.169731
	  121 D(16,15,18,21)  =   -174.164006     0.000003     0.917800  -173.246206
	  122 D(17,15,18,19)  =    179.776322    -0.000006     0.367684   180.144006
	  123 D(17,15,18,20)  =     63.890622    -0.000001     0.651032    64.541654
	  124 D(17,15,18,21)  =    -58.172914    -0.000001     0.638093   -57.534821
	  125 D(18,21,24,25)  =     65.444064     0.000005    -0.227326    65.216738
	  126 D(18,21,24,26)  =   -178.821404     0.000007    -0.386084  -179.207487
	  127 D(19,18,21,22)  =     63.945003     0.000002     0.101635    64.046638
	  128 D(19,18,21,23)  =    179.833976     0.000002    -0.051647   179.782328
	  129 D(19,18,21,24)  =    -57.226975    -0.000001    -0.030422   -57.257397
	  130 D(20,18,21,22)  =   -179.950495    -0.000001    -0.087025  -180.037519
	  131 D(20,18,21,23)  =    -64.061522    -0.000001    -0.240307   -64.301829
	  132 D(20,18,21,24)  =     58.877527    -0.000003    -0.219081    58.658446
	  133 D(22,21,24,25)  =    -56.446628    -0.000001    -0.390773   -56.837401
	  134 D(22,21,24,26)  =     59.287905     0.000001    -0.549531    58.738374
	  135 D(23,21,24,25)  =   -172.165107     0.000000    -0.197564  -172.362671
	  136 D(23,21,24,26)  =    -56.430574     0.000002    -0.356322   -56.786896
	  137 R(5,18)         =      3.580882     0.010915     0.026867     3.607749
	 ---------------------------------------------------------------------------

  ==> Convergence Check <==

  Measures of convergence in internal coordinates in au.
  Criteria marked as inactive (o), active & met (*), and active & unmet ( ).
  --------------------------------------------------------------------------------------------- ~
   Step     Total Energy     Delta E     MAX Force     RMS Force      MAX Disp      RMS Disp    ~
  --------------------------------------------------------------------------------------------- ~
    Convergence Criteria             o    2.00e-06 *    1.00e-06 *    6.00e-06 *    4.00e-06 *  ~
  --------------------------------------------------------------------------------------------- ~
      1    -314.98310162   -3.15e+02 o    4.39e-03      1.05e-03      5.08e-02      7.59e-03    ~
  ---------------------------------------------------------------------------------------------

	Writing optimization data to binary file.
	Structure for next step:
	Cartesian Geometry (in Angstrom)
	    C     3.9736673403  -0.2573808383  -0.2691659252
	    H     4.7148356450   0.5010595967  -0.5199754273
	    H     3.9377975124  -0.9743806169  -1.0905892578
	    H     4.3230208187  -0.7880452757   0.6174526003
	    C    -3.0990164518  -1.0374796638  -0.5179422039
	    H    -2.1934191300  -1.6314997611  -0.6414383727
	    H    -3.3966179915  -0.6788731453  -1.5050591785
	    H    -3.8818368688  -1.7025984486  -0.1542045323
	    C     2.5986785957   0.3548472405  -0.0276670651
	    H     2.2906878576   0.9113832819  -0.9146133879
	    H     2.6543441892   1.0795958439   0.7900769473
	    C    -2.8776597915   0.1297861778   0.4374043900
	    H    -3.8298868833   0.6313659232   0.6239965682
	    H    -2.5414405834  -0.2475430954   1.4054638889
	    C     1.5524146201  -0.7009721636   0.3148946934
	    H     1.9267782625  -1.3016165067   1.1493178498
	    H     1.4441063782  -1.3873923188  -0.5319517080
	    C     0.1815749784  -0.1348252984   0.6815523085
	    H     0.2881704829   0.5541637677   1.5269882799
	    H    -0.4526236031  -0.9530218839   1.0311576392
	    C    -0.5123144016   0.5869246688  -0.4687422483
	    H     0.1174386684   1.4062897286  -0.8214091868
	    H    -0.6135988580  -0.1025987746  -1.3123803646
	    C    -1.8802098434   1.1590897998  -0.0947379040
	    H    -1.7424406609   1.9440958982   0.6546410850
	    H    -2.3124418766   1.6446286522  -0.9747903188
			--------------------------
			 OPTKING Finished Execution 
			--------------------------

    Structure for next step:
    Molecular point group: c1
    Full point group: C1

    Geometry (in Angstrom), charge = 0, multiplicity = 1:

    C            3.973805514547    -0.258224739767    -0.269118736950
    H            4.714973819267     0.500215695253    -0.519928239093
    H            3.937935686681    -0.975224518345    -1.090542069505
    H            4.323158992999    -0.788889177170     0.617499788513
    C           -3.098878277538    -1.038323565233    -0.517895015672
    H           -2.193280955673    -1.632343662610    -0.641391184402
    H           -3.396479817176    -0.679717046763    -1.505011990257
    H           -3.881698694532    -1.703442350026    -0.154157344032
    C            2.598816769953     0.354003339082    -0.027619876888
    H            2.290826031903     0.910539380463    -0.914566199659
    H            2.654482363469     1.078751942452     0.790124135560
    C           -2.877521617253     0.128942276355     0.437451578301
    H           -3.829748709004     0.630522021769     0.624043756460
    H           -2.541302409108    -0.248386996839     1.405511077181
    C            1.552552794391    -0.701816065048     0.314941881681
    H            1.926916436774    -1.302460408204     1.149365038037
    H            1.444244552464    -1.388236220250    -0.531904519776
    C            0.181713152711    -0.135669199819     0.681599496741
    H            0.288308657156     0.553319866244     1.527035468142
    H           -0.452485428798    -0.953865785352     1.031204827436
    C           -0.512176227351     0.586080767314    -0.468695060034
    H            0.117576842673     1.405445827115    -0.821361998519
    H           -0.613460683681    -0.103442676061    -1.312333176318
    C           -1.880071669124     1.158245898308    -0.094690715767
    H           -1.742302486649     1.943251996720     0.654688273280
    H           -2.312303702270     1.643784750758    -0.974743130531

gradient() will perform analytic gradient computation.

*** tstart() called on wr34
*** at Tue Sep 20 16:50:59 2016


         ---------------------------------------------------------
                                   SCF
            by Justin Turney, Rob Parrish, and Andy Simmonett
                              RHF Reference
                       12 Threads,  30000 MiB Core
         ---------------------------------------------------------

  ==> Geometry <==

    Molecular point group: c1
    Full point group: C1

    Geometry (in Angstrom), charge = 0, multiplicity = 1:

       Center              X                  Y                   Z               Mass       
    ------------   -----------------  -----------------  -----------------  -----------------
           C          3.973805514547    -0.258224739767    -0.269118736950    12.000000000000
           H          4.714973819267     0.500215695253    -0.519928239093     1.007825032070
           H          3.937935686681    -0.975224518345    -1.090542069505     1.007825032070
           H          4.323158992999    -0.788889177170     0.617499788513     1.007825032070
           C         -3.098878277538    -1.038323565233    -0.517895015672    12.000000000000
           H         -2.193280955673    -1.632343662610    -0.641391184402     1.007825032070
           H         -3.396479817176    -0.679717046763    -1.505011990257     1.007825032070
           H         -3.881698694532    -1.703442350026    -0.154157344032     1.007825032070
           C          2.598816769953     0.354003339082    -0.027619876888    12.000000000000
           H          2.290826031903     0.910539380463    -0.914566199659     1.007825032070
           H          2.654482363469     1.078751942452     0.790124135560     1.007825032070
           C         -2.877521617253     0.128942276355     0.437451578301    12.000000000000
           H         -3.829748709004     0.630522021769     0.624043756460     1.007825032070
           H         -2.541302409108    -0.248386996839     1.405511077181     1.007825032070
           C          1.552552794391    -0.701816065048     0.314941881681    12.000000000000
           H          1.926916436774    -1.302460408204     1.149365038037     1.007825032070
           H          1.444244552464    -1.388236220250    -0.531904519776     1.007825032070
           C          0.181713152711    -0.135669199819     0.681599496741    12.000000000000
           H          0.288308657156     0.553319866244     1.527035468142     1.007825032070
           H         -0.452485428798    -0.953865785352     1.031204827436     1.007825032070
           C         -0.512176227351     0.586080767314    -0.468695060034    12.000000000000
           H          0.117576842673     1.405445827115    -0.821361998519     1.007825032070
           H         -0.613460683681    -0.103442676061    -1.312333176318     1.007825032070
           C         -1.880071669124     1.158245898308    -0.094690715767    12.000000000000
           H         -1.742302486649     1.943251996720     0.654688273280     1.007825032070
           H         -2.312303702270     1.643784750758    -0.974743130531     1.007825032070

  Running in c1 symmetry.

  Rotational constants: A =      0.17101  B =      0.02308  C =      0.02210 [cm^-1]
  Rotational constants: A =   5126.63418  B =    691.77359  C =    662.52356 [MHz]
  Nuclear repulsion =  392.600564166692550

  Charge       = 0
  Multiplicity = 1
  Electrons    = 66
  Nalpha       = 33
  Nbeta        = 33

  ==> Algorithm <==

  SCF Algorithm Type is DF.
  DIIS enabled.
  MOM disabled.
  Fractional occupation disabled.
  Guess Type is READ.
  Energy threshold   = 1.00e-10
  Density threshold  = 1.00e-10
  Integral threshold = 0.00e+00

  ==> Primary Basis <==

  Basis Set: AUG-CC-PVTZ
    Number of shells: 274
    Number of basis function: 782
    Number of Cartesian functions: 890
    Spherical Harmonics?: true
    Max angular momentum: 3

  ==> Pre-Iterations <==

   -------------------------------------------------------
    Irrep   Nso     Nmo     Nalpha   Nbeta   Ndocc  Nsocc
   -------------------------------------------------------
     A        782     782       0       0       0       0
   -------------------------------------------------------
    Total     782     782      33      33      33       0
   -------------------------------------------------------

  ==> Integral Setup <==

  ==> DFJK: Density-Fitted J/K Matrices <==

    J tasked:                  Yes
    K tasked:                  Yes
    wK tasked:                  No
    OpenMP threads:             12
    Integrals threads:          12
    Memory (MB):             21457
    Algorithm:                Core
    Integral Cache:           NONE
    Schwarz Cutoff:          1E-12
    Fitting Condition:       1E-12

   => Auxiliary Basis Set <=

  Basis Set: 
    Number of shells: 492
    Number of basis function: 1660
    Number of Cartesian functions: 2038
    Spherical Harmonics?: true
    Max angular momentum: 4

  Minimum eigenvalue in the overlap matrix is 1.9291933218E-06.
  Using Symmetric Orthogonalization.
  SCF Guess: Reading in previously saved MOs, projecting if necessary.

  Using orbitals from previous SCF, no projection.
  Recomputing DOCC and SOCC from number of alpha and beta electrons from previous calculation.
              A 
    DOCC [    33 ]

  ==> Iterations <==

                           Total Energy        Delta E     RMS |[F,P]|

   @DF-RHF iter   0:  -313.49173441804413   -3.13492e+02   6.36641e-05 
   @DF-RHF iter   1:  -313.54147438986575   -4.97400e-02   1.78919e-05 
   @DF-RHF iter   2:  -313.54158210040447   -1.07711e-04   9.22932e-06 DIIS
   @DF-RHF iter   3:  -313.54160878863792   -2.66882e-05   1.47624e-06 DIIS
   @DF-RHF iter   4:  -313.54161059339509   -1.80476e-06   3.26381e-07 DIIS
   @DF-RHF iter   5:  -313.54161066328840   -6.98933e-08   1.08555e-07 DIIS
   @DF-RHF iter   6:  -313.54161066943044   -6.14205e-09   2.13520e-08 DIIS
   @DF-RHF iter   7:  -313.54161066972830   -2.97860e-10   5.29626e-09 DIIS
   @DF-RHF iter   8:  -313.54161066974297   -1.46656e-11   1.39331e-09 DIIS
   @DF-RHF iter   9:  -313.54161066974467   -1.70530e-12   3.47752e-10 DIIS
   @DF-RHF iter  10:  -313.54161066974422    4.54747e-13   9.29267e-11 DIIS

  ==> Post-Iterations <==

    Orbital Energies (a.u.)
    -----------------------

    Doubly Occupied:                                                      

       1A    -11.212067     2A    -11.211991     3A    -11.210863  
       4A    -11.210759     5A    -11.210017     6A    -11.208844  
       7A    -11.207047     8A    -11.206883     9A     -1.094528  
      10A     -1.060371    11A     -1.006149    12A     -0.949090  
      13A     -0.881817    14A     -0.836609    15A     -0.787451  
      16A     -0.751557    17A     -0.640400    18A     -0.631528  
      19A     -0.624174    20A     -0.584112    21A     -0.572108  
      22A     -0.565238    23A     -0.548738    24A     -0.528370  
      25A     -0.518415    26A     -0.501620    27A     -0.485503  
      28A     -0.473180    29A     -0.468133    30A     -0.458519  
      31A     -0.450010    32A     -0.437873    33A     -0.433488  

    Virtual:                                                              

      34A      0.030808    35A      0.032803    36A      0.033933  
      37A      0.036010    38A      0.045536    39A      0.047353  
      40A      0.048918    41A      0.054033    42A      0.056197  
      43A      0.065624    44A      0.067100    45A      0.070513  
      46A      0.072018    47A      0.079558    48A      0.090133  
      49A      0.092202    50A      0.095894    51A      0.099980  
      52A      0.112747    53A      0.114767    54A      0.118420  
      55A      0.124347    56A      0.126639    57A      0.128584  
      58A      0.132567    59A      0.134411    60A      0.138376  
      61A      0.146555    62A      0.151287    63A      0.153584  
      64A      0.157880    65A      0.158473    66A      0.160129  
      67A      0.162846    68A      0.169037    69A      0.171462  
      70A      0.173514    71A      0.177451    72A      0.184171  
      73A      0.188215    74A      0.189991    75A      0.199675  
      76A      0.204068    77A      0.223075    78A      0.225351  
      79A      0.229693    80A      0.234386    81A      0.241185  
      82A      0.243574    83A      0.251582    84A      0.261645  
      85A      0.266920    86A      0.271139    87A      0.279791  
      88A      0.281947    89A      0.287434    90A      0.290498  
      91A      0.295345    92A      0.296140    93A      0.305586  
      94A      0.309878    95A      0.313532    96A      0.323412  
      97A      0.324124    98A      0.327996    99A      0.329407  
     100A      0.335860   101A      0.342224   102A      0.345139  
     103A      0.353539   104A      0.354434   105A      0.356110  
     106A      0.357685   107A      0.360892   108A      0.364375  
     109A      0.365216   110A      0.368372   111A      0.371358  
     112A      0.379799   113A      0.382803   114A      0.386323  
     115A      0.389121   116A      0.394595   117A      0.399806  
     118A      0.404158   119A      0.406113   120A      0.410577  
     121A      0.411929   122A      0.418677   123A      0.422306  
     124A      0.427070   125A      0.434085   126A      0.434958  
     127A      0.438732   128A      0.442869   129A      0.444457  
     130A      0.446017   131A      0.453595   132A      0.458457  
     133A      0.462132   134A      0.467347   135A      0.467860  
     136A      0.472783   137A      0.477052   138A      0.478346  
     139A      0.488236   140A      0.491715   141A      0.493941  
     142A      0.495813   143A      0.501292   144A      0.503914  
     145A      0.504404   146A      0.507344   147A      0.513813  
     148A      0.515527   149A      0.519472   150A      0.522685  
     151A      0.530238   152A      0.533648   153A      0.535504  
     154A      0.541429   155A      0.546291   156A      0.548725  
     157A      0.552014   158A      0.555474   159A      0.559708  
     160A      0.561503   161A      0.568025   162A      0.571305  
     163A      0.581998   164A      0.584649   165A      0.589679  
     166A      0.593641   167A      0.599280   168A      0.604392  
     169A      0.612857   170A      0.614818   171A      0.619120  
     172A      0.626162   173A      0.632680   174A      0.636119  
     175A      0.637738   176A      0.643776   177A      0.647285  
     178A      0.655048   179A      0.661597   180A      0.663498  
     181A      0.669302   182A      0.674574   183A      0.677356  
     184A      0.683762   185A      0.686397   186A      0.689804  
     187A      0.692897   188A      0.696990   189A      0.709094  
     190A      0.715648   191A      0.728088   192A      0.733127  
     193A      0.737371   194A      0.744269   195A      0.749818  
     196A      0.759534   197A      0.766227   198A      0.774637  
     199A      0.782519   200A      0.796380   201A      0.802746  
     202A      0.810430   203A      0.815386   204A      0.823920  
     205A      0.825470   206A      0.838929   207A      0.847361  
     208A      0.848051   209A      0.851634   210A      0.858114  
     211A      0.860526   212A      0.870774   213A      0.872213  
     214A      0.883615   215A      0.885525   216A      0.890739  
     217A      0.895775   218A      0.903922   219A      0.907654  
     220A      0.910860   221A      0.918628   222A      0.922959  
     223A      0.925519   224A      0.930950   225A      0.934735  
     226A      0.935239   227A      0.944604   228A      0.948059  
     229A      0.951030   230A      0.958919   231A      0.961137  
     232A      0.968601   233A      0.972272   234A      0.979204  
     235A      0.981118   236A      0.986093   237A      0.988926  
     238A      0.991038   239A      0.994251   240A      1.006253  
     241A      1.007568   242A      1.018168   243A      1.025339  
     244A      1.027847   245A      1.031733   246A      1.034526  
     247A      1.038882   248A      1.051793   249A      1.054022  
     250A      1.057032   251A      1.063696   252A      1.068341  
     253A      1.073222   254A      1.080132   255A      1.088517  
     256A      1.093033   257A      1.098010   258A      1.106423  
     259A      1.113691   260A      1.115699   261A      1.118943  
     262A      1.120973   263A      1.125523   264A      1.128604  
     265A      1.141625   266A      1.143831   267A      1.152151  
     268A      1.157738   269A      1.163634   270A      1.165029  
     271A      1.171929   272A      1.174248   273A      1.178066  
     274A      1.189870   275A      1.191183   276A      1.197309  
     277A      1.202085   278A      1.203791   279A      1.207678  
[...]
	 Skipping Hessian update for step 7.
	Denominators (dg)(dq) or (dq)(dq) are very small.
	 Skipping Hessian update for step 6.
	Steps to be used in Hessian update: 5 4
	Taking RFO optimization step.
	Going to follow RFO solution 1.
	Using RFO vector 1.
	Norm of target step-size    0.00002
	Projected energy change by RFO approximation:         0.0000000000

	Back-transformation to cartesian coordinates...
	Successfully converged to displaced geometry.

	--- Internal Coordinate Step in ANG or DEG, aJ/ANG or AJ/DEG ---
	 ---------------------------------------------------------------------------
	   Coordinate                Previous        Force       Change         New 
	   ----------                --------       ------       ------       ------
	    1 R(1,2)          =      1.089710     0.000001     0.000000     1.089710
	    2 R(1,3)          =      1.090797     0.000002     0.000000     1.090797
	    3 R(1,4)          =      1.090705     0.000002     0.000000     1.090705
	    4 R(1,9)          =      1.524045     0.000000     0.000000     1.524045
	    5 R(5,6)          =      1.090076     0.000001     0.000000     1.090076
	    6 R(5,7)          =      1.091453     0.000001     0.000000     1.091453
	    7 R(5,8)          =      1.089717     0.000001     0.000000     1.089717
	    8 R(5,12)         =      1.524473    -0.000000    -0.000000     1.524473
	    9 R(9,10)         =      1.091438     0.000002     0.000000     1.091439
	   10 R(9,11)         =      1.093840     0.000003     0.000001     1.093841
	   11 R(9,15)         =      1.524743     0.000002     0.000000     1.524743
	   12 R(12,13)        =      1.092233     0.000001     0.000000     1.092233
	   13 R(12,14)        =      1.091939     0.000001     0.000000     1.091939
	   14 R(12,24)        =      1.528577    -0.000000    -0.000000     1.528577
	   15 R(15,16)        =      1.094057     0.000003     0.000001     1.094057
	   16 R(15,17)        =      1.095253     0.000004     0.000001     1.095253
	   17 R(15,18)        =      1.527331     0.000002     0.000000     1.527331
	   18 R(18,19)        =      1.095592     0.000003     0.000001     1.095593
	   19 R(18,20)        =      1.092706     0.000003     0.000001     1.092706
	   20 R(18,21)        =      1.524761     0.000001     0.000000     1.524761
	   21 R(21,22)        =      1.091978     0.000002     0.000000     1.091978
	   22 R(21,23)        =      1.094042     0.000003     0.000001     1.094042
	   23 R(21,24)        =      1.528847    -0.000001    -0.000000     1.528847
	   24 R(24,25)        =      1.093858     0.000001     0.000000     1.093858
	   25 R(24,26)        =      1.094022     0.000001     0.000000     1.094022
	   26 B(1,9,10)       =    109.328000     0.000000    -0.000008   109.327992
	   27 B(1,9,11)       =    109.777470    -0.000000    -0.000015   109.777455
	   28 B(1,9,15)       =    111.999322    -0.000000     0.000003   111.999325
	   29 B(2,1,3)        =    107.895306    -0.000000    -0.000004   107.895302
	   30 B(2,1,4)        =    107.962759    -0.000000    -0.000004   107.962755
	   31 B(2,1,9)        =    111.684558    -0.000000    -0.000005   111.684553
	   32 B(3,1,4)        =    107.683696    -0.000000    -0.000011   107.683685
	   33 B(3,1,9)        =    110.682305     0.000000     0.000004   110.682309
	   34 B(4,1,9)        =    110.779193     0.000000     0.000019   110.779211
	   35 B(5,12,13)      =    109.326006    -0.000000    -0.000015   109.325991
	   36 B(5,12,14)      =    109.630498    -0.000000    -0.000005   109.630493
	   37 B(5,12,24)      =    113.095062     0.000000     0.000009   113.095071
	   38 B(6,5,7)        =    107.704689    -0.000000    -0.000007   107.704682
	   39 B(6,5,8)        =    107.608412     0.000000     0.000001   107.608413
	   40 B(6,5,12)       =    111.503544     0.000000    -0.000000   111.503544
	   41 B(7,5,8)        =    107.911871     0.000000     0.000003   107.911874
	   42 B(7,5,12)       =    110.750164     0.000000     0.000009   110.750174
	   43 B(8,5,12)       =    111.196190    -0.000000    -0.000005   111.196185
	   44 B(9,15,16)      =    108.474566    -0.000000    -0.000036   108.474530
	   45 B(9,15,17)      =    109.149168    -0.000000     0.000010   109.149178
	   46 B(9,15,18)      =    114.197266     0.000000     0.000042   114.197308
	   47 B(10,9,11)      =    106.589442    -0.000000    -0.000025   106.589416
	   48 B(10,9,15)      =    110.027774    -0.000000    -0.000005   110.027770
	   49 B(11,9,15)      =    108.970880     0.000000     0.000048   108.970928
	   50 B(12,24,21)     =    114.696517    -0.000000    -0.000039   114.696478
	   51 B(12,24,25)     =    109.042127     0.000000     0.000014   109.042141
	   52 B(12,24,26)     =    108.671688     0.000000     0.000018   108.671706
	   53 B(13,12,14)     =    106.108670     0.000000    -0.000006   106.108664
	   54 B(13,12,24)     =    108.515673     0.000000     0.000010   108.515682
	   55 B(14,12,24)     =    109.918266    -0.000000     0.000006   109.918272
	   56 B(15,18,19)     =    109.314406    -0.000000     0.000012   109.314418
	   57 B(15,18,20)     =    108.728169     0.000000     0.000012   108.728181
	   58 B(15,18,21)     =    113.577698     0.000000     0.000029   113.577727
	   59 B(16,15,17)     =    106.343537     0.000000    -0.000019   106.343518
	   60 B(16,15,18)     =    109.155155    -0.000000     0.000003   109.155158
	   61 B(17,15,18)     =    109.226596    -0.000000    -0.000005   109.226591
	   62 B(18,21,22)     =    109.639169    -0.000000    -0.000026   109.639143
	   63 B(18,21,23)     =    109.002791     0.000000     0.000046   109.002837
	   64 B(18,21,24)     =    113.499595    -0.000000    -0.000023   113.499572
	   65 B(19,18,20)     =    106.415977    -0.000000    -0.000040   106.415937
	   66 B(19,18,21)     =    109.214031     0.000000     0.000025   109.214055
	   67 B(20,18,21)     =    109.342034    -0.000000    -0.000042   109.341992
	   68 B(21,24,25)     =    108.795512     0.000000     0.000015   108.795526
	   69 B(21,24,26)     =    108.831754     0.000000    -0.000003   108.831751
	   70 B(22,21,23)     =    106.187724     0.000000     0.000008   106.187732
	   71 B(22,21,24)     =    108.263059     0.000000     0.000023   108.263083
	   72 B(23,21,24)     =    109.989921    -0.000000    -0.000027   109.989893
	   73 B(25,24,26)     =    106.490896    -0.000000    -0.000002   106.490893
	   74 D(1,9,15,16)    =     54.069222    -0.000000     0.000237    54.069458
	   75 D(1,9,15,17)    =    -61.403287     0.000000     0.000273   -61.403013
	   76 D(1,9,15,18)    =    176.034974     0.000000     0.000242   176.035217
	   77 D(2,1,9,10)     =     57.656196    -0.000000    -0.000055    57.656141
	   78 D(2,1,9,11)     =    -58.936818     0.000000    -0.000012   -58.936830
	   79 D(2,1,9,15)     =    179.873802    -0.000000    -0.000064   179.873738
	   80 D(3,1,9,10)     =    -62.580500    -0.000000    -0.000049   -62.580549
	   81 D(3,1,9,11)     =   -179.173514     0.000000    -0.000006  -179.173520
	   82 D(3,1,9,15)     =     59.637106    -0.000000    -0.000058    59.637048
	   83 D(4,1,9,10)     =    178.044499    -0.000000    -0.000050   178.044449
	   84 D(4,1,9,11)     =     61.451485     0.000000    -0.000007    61.451478
	   85 D(4,1,9,15)     =    -59.737895    -0.000000    -0.000060   -59.737954
	   86 D(5,12,24,21)   =    -56.770947    -0.000000     0.000194   -56.770752
	   87 D(5,12,24,25)   =   -179.039141    -0.000000     0.000192  -179.038948
	   88 D(5,12,24,26)   =     65.263640    -0.000000     0.000178    65.263818
	   89 D(6,5,12,13)    =   -173.771152     0.000000     0.000021  -173.771131
	   90 D(6,5,12,14)    =    -57.841784    -0.000000     0.000003   -57.841781
	   91 D(6,5,12,24)    =     65.204632    -0.000000     0.000013    65.204645
	   92 D(7,5,12,13)    =     66.308017     0.000000     0.000024    66.308041
	   93 D(7,5,12,14)    =   -177.762616    -0.000000     0.000006  -177.762610
	   94 D(7,5,12,24)    =    -54.716200     0.000000     0.000016   -54.716184
	   95 D(8,5,12,13)    =    -53.670583     0.000000     0.000018   -53.670565
	   96 D(8,5,12,14)    =     62.258784    -0.000000     0.000000    62.258785
	   97 D(8,5,12,24)    =   -174.694800    -0.000000     0.000010  -174.694789
	   98 D(9,15,18,19)   =    -56.613308    -0.000000    -0.000026   -56.613333
	   99 D(9,15,18,20)   =   -172.400371     0.000000     0.000009  -172.400362
	  100 D(9,15,18,21)   =     65.625276     0.000000     0.000035    65.625311
	  101 D(10,9,15,16)   =    175.886611    -0.000000     0.000226   175.886837
	  102 D(10,9,15,17)   =     60.414103     0.000000     0.000262    60.414365
	  103 D(10,9,15,18)   =    -62.147636     0.000000     0.000231   -62.147405
	  104 D(11,9,15,16)   =    -67.584442     0.000000     0.000220   -67.584222
	  105 D(11,9,15,17)   =    176.943050     0.000000     0.000257   176.943307
	  106 D(11,9,15,18)   =     54.381311     0.000000     0.000226    54.381537
	  107 D(12,24,21,18)  =    -58.042516    -0.000000    -0.000136   -58.042652
	  108 D(12,24,21,22)  =    179.991329    -0.000000    -0.000104   179.991225
	  109 D(12,24,21,23)  =     64.368832    -0.000000    -0.000113    64.368719
	  110 D(13,12,24,21)  =   -178.252861     0.000000     0.000200  -178.252661
	  111 D(13,12,24,25)  =     59.478945     0.000000     0.000198    59.479143
	  112 D(13,12,24,26)  =    -56.218275    -0.000000     0.000183   -56.218091
	  113 D(14,12,24,21)  =     66.115955     0.000000     0.000199    66.116154
	  114 D(14,12,24,25)  =    -56.152239     0.000000     0.000197   -56.152042
	  115 D(14,12,24,26)  =   -171.849458    -0.000000     0.000182  -171.849276
	  116 D(15,18,21,22)  =    -57.647373    -0.000000    -0.000091   -57.647464
	  117 D(15,18,21,23)  =     58.199029     0.000000    -0.000070    58.198959
	  118 D(15,18,21,24)  =   -178.844886    -0.000000    -0.000087  -178.844973
	  119 D(16,15,18,19)  =     64.978132    -0.000000    -0.000041    64.978091
	  120 D(16,15,18,20)  =    -50.808932    -0.000000    -0.000006   -50.808938
	  121 D(16,15,18,21)  =   -172.783284     0.000000     0.000019  -172.783265
	  122 D(17,15,18,19)  =   -179.132818    -0.000000    -0.000065  -179.132883
	  123 D(17,15,18,20)  =     65.080119    -0.000000    -0.000030    65.080089
	  124 D(17,15,18,21)  =    -56.894234     0.000000    -0.000004   -56.894238
	  125 D(18,21,24,25)  =     64.359204    -0.000000    -0.000134    64.359070
	  126 D(18,21,24,26)  =   -179.990110    -0.000000    -0.000131  -179.990240
	  127 D(19,18,21,22)  =     64.646775     0.000000    -0.000038    64.646738
	  128 D(19,18,21,23)  =   -179.506823     0.000000    -0.000017  -179.506840
	  129 D(19,18,21,24)  =    -56.550738     0.000000    -0.000033   -56.550771
	  130 D(20,18,21,22)  =   -179.280187    -0.000000    -0.000096  -179.280282
	  131 D(20,18,21,23)  =    -63.433785    -0.000000    -0.000074   -63.433859
	  132 D(20,18,21,24)  =     59.522300    -0.000000    -0.000091    59.522209
	  133 D(22,21,24,25)  =    -57.606950     0.000000    -0.000103   -57.607053
	  134 D(22,21,24,26)  =     58.043736     0.000000    -0.000099    58.043637
	  135 D(23,21,24,25)  =   -173.229448     0.000000    -0.000111  -173.229559
	  136 D(23,21,24,26)  =    -57.578762     0.000000    -0.000107   -57.578869
	  137 R(5,18)         =      3.643027    -0.000001    -0.000002     3.643025
	 ---------------------------------------------------------------------------

  ==> Convergence Check <==

  Measures of convergence in internal coordinates in au.
  Criteria marked as inactive (o), active & met (*), and active & unmet ( ).
  ---------------------------------------------------------------------------------------------
   Step     Total Energy     Delta E     MAX Force     RMS Force      MAX Disp      RMS Disp   
  ---------------------------------------------------------------------------------------------
    Convergence Criteria             o    2.00e-06 *    1.00e-06 *    6.00e-06 *    4.00e-06 *
  ---------------------------------------------------------------------------------------------
     28    -314.98338056    1.77e-09 o    4.75e-07 *    1.04e-07 *    4.77e-06 *    1.62e-06 *  ~
  ---------------------------------------------------------------------------------------------


  **** Optimization is complete! (in 28 steps) ****

  ==> Optimization Summary <==

  Measures of convergence in internal coordinates in au.
  --------------------------------------------------------------------------------------------------------------- ~
   Step         Total Energy             Delta E       MAX Force       RMS Force        MAX Disp        RMS Disp  ~
  --------------------------------------------------------------------------------------------------------------- ~
      1    -314.983101619197   -314.983101619197      0.00438621      0.00104754      0.05077036      0.00759028  ~
      2    -314.983357138031     -0.000255518834      0.00074552      0.00015795      0.03103242      0.00641138  ~
      3    -314.983373672805     -0.000016534774      0.00029075      0.00007980      0.02293164      0.00418377  ~
      4    -314.983379529244     -0.000005856440      0.00012203      0.00003265      0.01233035      0.00193696  ~
      5    -314.983380371409     -0.000000842165      0.00006417      0.00001532      0.00226102      0.00066519  ~
      6    -314.983380523076     -0.000000151667      0.00002791      0.00000817      0.00098841      0.00033968  ~
      7    -314.983380551058     -0.000000027981      0.00001412      0.00000307      0.00047246      0.00014700  ~
      8    -314.983380559800     -0.000000008743      0.00000556      0.00000148      0.00010240      0.00002855  ~
      9    -314.983380559983     -0.000000000183      0.00000271      0.00000066      0.00004508      0.00001513  ~
     10    -314.983380557272      0.000000002712      0.00000186      0.00000042      0.00003233      0.00000829  ~
     11    -314.983380563537     -0.000000006265      0.00000105      0.00000027      0.00002137      0.00000714  ~
     12    -314.983380560374      0.000000003163      0.00000074      0.00000017      0.00002228      0.00000667  ~
     13    -314.983380561254     -0.000000000881      0.00000085      0.00000019      0.00001868      0.00000582  ~
     14    -314.983380562050     -0.000000000795      0.00000161      0.00000039      0.00003746      0.00001191  ~
     15    -314.983380562878     -0.000000000828      0.00000030      0.00000010      0.00002062      0.00000594  ~
     16    -314.983380560280      0.000000002598      0.00000133      0.00000033      0.00005754      0.00001616  ~
     17    -314.983380561831     -0.000000001552      0.00000050      0.00000013      0.00002717      0.00000747  ~
     18    -314.983380565941     -0.000000004109      0.00000065      0.00000015      0.00001485      0.00000423  ~
     19    -314.983380558620      0.000000007321      0.00000119      0.00000026      0.00004843      0.00001424  ~
     20    -314.983380562147     -0.000000003527      0.00000099      0.00000024      0.00003530      0.00000990  ~
     21    -314.983380558066      0.000000004081      0.00000046      0.00000010      0.00001043      0.00000190  ~
     22    -314.983380558889     -0.000000000824      0.00000063      0.00000015      0.00000655      0.00000195  ~
     23    -314.983380560911     -0.000000002022      0.00000020      0.00000005      0.00000741      0.00000175  ~
     24    -314.983380563754     -0.000000002842      0.00000103      0.00000029      0.00002796      0.00000826  ~
     25    -314.983380558106      0.000000005648      0.00000044      0.00000012      0.00001749      0.00000495  ~
     26    -314.983380562094     -0.000000003988      0.00000074      0.00000016      0.00003309      0.00000905  ~
     27    -314.983380560122      0.000000001972      0.00000055      0.00000013      0.00000635      0.00000238  ~
     28    -314.983380558351      0.000000001771      0.00000048      0.00000010      0.00000477      0.00000162  ~
  --------------------------------------------------------------------------------------------------------------- ~

	Writing optimization data to binary file.
	Final energy is   -314.9833805583508
	Final (previous) structure:
	Cartesian Geometry (in Angstrom)
	    C     3.9767607015  -0.2305006729  -0.2626664209
	    H     4.7121898498   0.5357350000  -0.5065800853
	    H     3.9414502435  -0.9374754477  -1.0925925847
	    H     4.3314919250  -0.7693992724   0.6167598004
	    C    -3.1261819450  -1.0366393377  -0.5335042370
	    H    -2.2291860651  -1.6404330724  -0.6716937881
	    H    -3.4312334738  -0.6662166214  -1.5138098722
	    H    -3.9126170883  -1.6943550491  -0.1641633688
	    C     2.5996356446   0.3711156209  -0.0090969846
	    H     2.2831397552   0.9329086304  -0.8896968642
	    H     2.6549498038   1.0878505244   0.8153532461
	    C    -2.8784394429   0.1202341879   0.4278937281
	    H    -3.8219161982   0.6333390544   0.6267580927
	    H    -2.5364901887  -0.2685307263   1.3892794717
	    C     1.5640403231  -0.6953977260   0.3299183641
	    H     1.9399077377  -1.2895570381   1.1681657559
	    H     1.4667411498  -1.3836172079  -0.5165243092
	    C     0.1869821013  -0.1396887478   0.6871811368
	    H     0.2848317266   0.5608503982   1.5238366029
	    H    -0.4408679357  -0.9601042579   1.0431700482
	    C    -0.5083427673   0.5607372823  -0.4750677126
	    H     0.1209266969   1.3737769448  -0.8430382809
	    H    -0.6121366728  -0.1442763781  -1.3051940680
	    C    -1.8744601076   1.1407113824  -0.1080163168
	    H    -1.7340204760   1.9286765694   0.6375788102
	    H    -2.3026856733   1.6224027930  -0.9920299234
	Saving final (previous) structure.
			--------------------------
			 OPTKING Finished Execution 
			--------------------------

    Final optimized geometry and variables:
    Molecular point group: c1
    Full point group: C1

    Geometry (in Angstrom), charge = 0, multiplicity = 1:

    C            3.976760701458    -0.230500672874    -0.262666420920
    H            4.712189849822     0.535734999980    -0.506580085315
    H            3.941450243475    -0.937475447707    -1.092592584712
    H            4.331491924972    -0.769399272363     0.616759800383
    C           -3.126181945047    -1.036639337686    -0.533504236980
    H           -2.229186065066    -1.640433072381    -0.671693788128
    H           -3.431233473756    -0.666216621440    -1.513809872175
    H           -3.912617088268    -1.694355049101    -0.164163368805
    C            2.599635644630     0.371115620862    -0.009096984611
    H            2.283139755198     0.932908630395    -0.889696864197
    H            2.654949803837     1.087850524443     0.815353246105
    C           -2.878439442869     0.120234187868     0.427893728147
    H           -3.821916198157     0.633339054421     0.626758092661
    H           -2.536490188662    -0.268530726258     1.389279471712
    C            1.564040323149    -0.695397726020     0.329918364053
    H            1.939907737682    -1.289557038138     1.168165755921
    H            1.466741149843    -1.383617207858    -0.516524309247
    C            0.186982101282    -0.139688747808     0.687181136802
    H            0.284831726588     0.560850398181     1.523836602854
    H           -0.440867935698    -0.960104257866     1.043170048236
    C           -0.508342767261     0.560737282256    -0.475067712631
    H            0.120926696909     1.373776944766    -0.843038280950
    H           -0.612136672848    -0.144276378079    -1.305194068022
    C           -1.874460107608     1.140711382409    -0.108016316756
    H           -1.734020476026     1.928676569354     0.637578810219
    H           -2.302685673345     1.622402793014    -0.992029923356

	Cleaning optimization helper files.

*** Psi4 exiting successfully. Buy a developer a beer!
