    -----------------------------------------------------------------------
          Psi4: An Open-Source Ab Initio Electronic Structure Package
                              Psi4 1.0.0 Driver

                          Git: Rev {master} 6a9a71b dirty

    J. M. Turney, A. C. Simmonett, R. M. Parrish, E. G. Hohenstein,
    F. A. Evangelista, J. T. Fermann, B. J. Mintz, L. A. Burns, J. J. Wilke,
    M. L. Abrams, N. J. Russ, M. L. Leininger, C. L. Janssen, E. T. Seidl,
    W. D. Allen, H. F. Schaefer, R. A. King, E. F. Valeev, C. D. Sherrill,
    and T. D. Crawford, WIREs Comput. Mol. Sci. 2, 556-565 (2012)
    (doi: 10.1002/wcms.93)

                         Additional Contributions by
    A. E. DePrince, U. Bozkaya, A. Yu. Sokolov, D. G. A. Smith, R. Di Remigio,
    R. M. Richard, J. F. Gonthier, H. R. McAlexander, M. Saitow, and
    B. P. Pritchard
    -----------------------------------------------------------------------


    Psi4 started on: Tue Sep 20 23:47:27 2016

    Process ID:  31960
    PSI4DATADIR: /usr/local/hpc5/psi4conda/share/psi4
    Memory level set to 256.000 MB

  ==> Input File <==

--------------------------------------------------------------------------
memory 60 Gb

molecule molecule_63_psi {
0 1
C           -3.375364720043     0.047335827778     0.343821451894
H           -3.713124456410     0.758187499821    -0.412351828024
H           -3.075118004973     0.614221476299     1.224169991341
H           -4.226709288157    -0.572147559167     0.624706566336
C            1.720600743413    -1.754145831818     0.377226235664
H            2.177605438620    -1.814431803570     1.366102994634
H            1.880257657708    -2.710450849300    -0.121777048527
H            0.648777781386    -1.628042965929     0.517068988901
C           -2.228710634768    -0.803320746544    -0.192652686450
H           -2.597705340459    -1.435465903934    -1.003494277514
H           -1.877893579949    -1.479737120400     0.592490383091
C            2.341620349971    -0.608975373771    -0.418883297193
H            3.405996498055    -0.823532367202    -0.538371602979
H            1.926082576698    -0.578710496022    -1.429713297129
C           -1.049890321481     0.022616071302    -0.700934216737
H           -1.387439433011     0.671735341250    -1.515752020167
H           -0.303806445365    -0.645564365009    -1.134435032668
C           -0.403368126628     0.893739606817     0.375156911517
H           -0.231326038606     0.301526271585     1.279972880729
H           -1.111020088816     1.675781443342     0.657155411292
C            0.911008933753     1.546905394591    -0.071502483105
H            0.861792665203     1.740684103340    -1.148152574311
H            1.004221885191     2.524617548168     0.407330973336
C            2.193224497677     0.769274500378     0.236499435816
H            3.032780579833     1.395234504669    -0.076152802146
H            2.287345851607     0.655510228307     1.321649309460
}

set globals {
  reference rhf
  g_convergence gau_verytight
  basis aug-cc-pvtz
  freeze_core true
  scf_type df
  mp_type df
}
optimize('mp2')
--------------------------------------------------------------------------
/usr/local/hpc5/psi4conda/lib/python2.7/site-packages/v2rdm_casscf/v2rdm_casscf.so loaded.

  Memory set to  60.000 GiB by Python script.
gradient() will perform analytic gradient computation.

*** tstart() called on wr25
*** at Tue Sep 20 23:47:28 2016


         ---------------------------------------------------------
                                   SCF
            by Justin Turney, Rob Parrish, and Andy Simmonett
                              RHF Reference
                       12 Threads,  60000 MiB Core
         ---------------------------------------------------------

  ==> Geometry <==

    Molecular point group: c1
    Full point group: C1

    Geometry (in Angstrom), charge = 0, multiplicity = 1:

       Center              X                  Y                   Z               Mass       
    ------------   -----------------  -----------------  -----------------  -----------------
           C         -3.375364720043     0.047335827778     0.343821451894    12.000000000000
           H         -3.713124456410     0.758187499821    -0.412351828024     1.007825032070
           H         -3.075118004973     0.614221476299     1.224169991341     1.007825032070
           H         -4.226709288157    -0.572147559167     0.624706566336     1.007825032070
           C          1.720600743413    -1.754145831818     0.377226235664    12.000000000000
           H          2.177605438620    -1.814431803570     1.366102994634     1.007825032070
           H          1.880257657708    -2.710450849300    -0.121777048527     1.007825032070
           H          0.648777781386    -1.628042965929     0.517068988901     1.007825032070
           C         -2.228710634768    -0.803320746544    -0.192652686450    12.000000000000
           H         -2.597705340459    -1.435465903934    -1.003494277514     1.007825032070
           H         -1.877893579949    -1.479737120400     0.592490383091     1.007825032070
           C          2.341620349971    -0.608975373771    -0.418883297193    12.000000000000
           H          3.405996498055    -0.823532367202    -0.538371602979     1.007825032070
           H          1.926082576698    -0.578710496022    -1.429713297129     1.007825032070
           C         -1.049890321481     0.022616071302    -0.700934216737    12.000000000000
           H         -1.387439433011     0.671735341250    -1.515752020167     1.007825032070
           H         -0.303806445365    -0.645564365009    -1.134435032668     1.007825032070
           C         -0.403368126628     0.893739606817     0.375156911517    12.000000000000
           H         -0.231326038606     0.301526271585     1.279972880729     1.007825032070
           H         -1.111020088816     1.675781443342     0.657155411292     1.007825032070
           C          0.911008933753     1.546905394591    -0.071502483105    12.000000000000
           H          0.861792665203     1.740684103340    -1.148152574311     1.007825032070
           H          1.004221885191     2.524617548168     0.407330973336     1.007825032070
           C          2.193224497677     0.769274500378     0.236499435816    12.000000000000
           H          3.032780579833     1.395234504669    -0.076152802146     1.007825032070
           H          2.287345851607     0.655510228307     1.321649309460     1.007825032070

  Running in c1 symmetry.

  Rotational constants: A =      0.10466  B =      0.03325  C =      0.02780 [cm^-1]
  Rotational constants: A =   3137.54013  B =    996.68689  C =    833.44303 [MHz]
  Nuclear repulsion =  403.860065462020486

  Charge       = 0
  Multiplicity = 1
  Electrons    = 66
  Nalpha       = 33
  Nbeta        = 33

  ==> Algorithm <==

  SCF Algorithm Type is DF.
  DIIS enabled.
  MOM disabled.
  Fractional occupation disabled.
  Guess Type is SAD.
  Energy threshold   = 1.00e-10
  Density threshold  = 1.00e-10
  Integral threshold = 0.00e+00

  ==> Primary Basis <==

  Basis Set: AUG-CC-PVTZ
    Number of shells: 274
    Number of basis function: 782
    Number of Cartesian functions: 890
    Spherical Harmonics?: true
    Max angular momentum: 3

  ==> Pre-Iterations <==

   -------------------------------------------------------
    Irrep   Nso     Nmo     Nalpha   Nbeta   Ndocc  Nsocc
   -------------------------------------------------------
     A        782     782       0       0       0       0
   -------------------------------------------------------
    Total     782     782      33      33      33       0
   -------------------------------------------------------

  ==> Integral Setup <==

  ==> DFJK: Density-Fitted J/K Matrices <==

    J tasked:                  Yes
    K tasked:                  Yes
    wK tasked:                  No
    OpenMP threads:             12
    Integrals threads:          12
    Memory (MB):             42915
    Algorithm:                Core
    Integral Cache:           NONE
    Schwarz Cutoff:          1E-12
    Fitting Condition:       1E-12

   => Auxiliary Basis Set <=

  Basis Set: 
    Number of shells: 492
    Number of basis function: 1660
    Number of Cartesian functions: 2038
    Spherical Harmonics?: true
    Max angular momentum: 4

  Minimum eigenvalue in the overlap matrix is 1.5607943867E-06.
  Using Symmetric Orthogonalization.
  SCF Guess: Superposition of Atomic Densities via on-the-fly atomic UHF.

  ==> Iterations <==

                           Total Energy        Delta E     RMS |[F,P]|

   @DF-RHF iter   0:  -317.06553957942089   -3.17066e+02   7.04894e-03 
   @DF-RHF iter   1:  -313.29589636529562    3.76964e+00   7.04056e-04 
   @DF-RHF iter   2:  -313.50452468243378   -2.08628e-01   2.46348e-04 DIIS
   @DF-RHF iter   3:  -313.52842351804514   -2.38988e-02   9.53154e-05 DIIS
   @DF-RHF iter   4:  -313.53288614120078   -4.46262e-03   1.61402e-05 DIIS
   @DF-RHF iter   5:  -313.53305659937172   -1.70458e-04   4.05150e-06 DIIS
   @DF-RHF iter   6:  -313.53306694319207   -1.03438e-05   1.30249e-06 DIIS
   @DF-RHF iter   7:  -313.53306786588729   -9.22695e-07   2.77049e-07 DIIS
   @DF-RHF iter   8:  -313.53306791912911   -5.32418e-08   7.69255e-08 DIIS
   @DF-RHF iter   9:  -313.53306792295035   -3.82124e-09   2.32521e-08 DIIS
   @DF-RHF iter  10:  -313.53306792330358   -3.53225e-10   6.70294e-09 DIIS
   @DF-RHF iter  11:  -313.53306792333404   -3.04681e-11   1.51174e-09 DIIS
   @DF-RHF iter  12:  -313.53306792333746   -3.41061e-12   3.79618e-10 DIIS
   @DF-RHF iter  13:  -313.53306792333586    1.59162e-12   1.21241e-10 DIIS
   @DF-RHF iter  14:  -313.53306792333700   -1.13687e-12   3.07263e-11 DIIS

  ==> Post-Iterations <==

    Orbital Energies (a.u.)
    -----------------------

    Doubly Occupied:                                                      

       1A    -11.213201     2A    -11.213099     3A    -11.211399  
       4A    -11.210784     5A    -11.209764     6A    -11.209162  
       7A    -11.206662     8A    -11.206072     9A     -1.093164  
      10A     -1.057733    11A     -1.006587    12A     -0.950644  
      13A     -0.887840    14A     -0.830688    15A     -0.777263  
      16A     -0.765974    17A     -0.651121    18A     -0.619681  
      19A     -0.598218    20A     -0.594913    21A     -0.589637  
      22A     -0.562636    23A     -0.552309    24A     -0.520794  
      25A     -0.518664    26A     -0.504268    27A     -0.487267  
      28A     -0.474010    29A     -0.465969    30A     -0.460143  
      31A     -0.451728    32A     -0.432611    33A     -0.430080  

    Virtual:                                                              

      34A      0.029586    35A      0.032987    36A      0.033566  
      37A      0.035642    38A      0.046126    39A      0.048174  
      40A      0.051681    41A      0.053994    42A      0.054608  
      43A      0.068054    44A      0.068862    45A      0.072976  
      46A      0.074706    47A      0.075829    48A      0.080718  
      49A      0.093096    50A      0.099093    51A      0.103836  
      52A      0.114365    53A      0.114854    54A      0.120367  
      55A      0.123147    56A      0.128839    57A      0.130640  
      58A      0.133565    59A      0.136541    60A      0.140840  
      61A      0.145636    62A      0.150306    63A      0.153111  
      64A      0.153884    65A      0.156751    66A      0.163643  
      67A      0.164449    68A      0.168669    69A      0.172266  
      70A      0.175414    71A      0.177690    72A      0.181076  
      73A      0.182859    74A      0.186939    75A      0.195390  
      76A      0.202654    77A      0.211915    78A      0.217484  
      79A      0.227242    80A      0.233210    81A      0.239914  
      82A      0.250183    83A      0.252947    84A      0.259594  
      85A      0.266326    86A      0.276297    87A      0.280523  
      88A      0.287820    89A      0.290923    90A      0.299325  
      91A      0.301281    92A      0.306323    93A      0.314664  
      94A      0.318034    95A      0.318697    96A      0.323490  
      97A      0.329710    98A      0.330185    99A      0.335565  
     100A      0.337044   101A      0.344601   102A      0.346089  
     103A      0.349777   104A      0.355623   105A      0.356871  
     106A      0.359739   107A      0.361299   108A      0.366374  
     109A      0.366796   110A      0.374348   111A      0.376657  
     112A      0.379342   113A      0.385551   114A      0.386740  
     115A      0.387911   116A      0.390981   117A      0.399055  
     118A      0.400707   119A      0.405127   120A      0.411599  
     121A      0.418318   122A      0.422924   123A      0.429234  
     124A      0.431411   125A      0.435375   126A      0.442857  
     127A      0.444583   128A      0.451170   129A      0.451825  
     130A      0.456912   131A      0.462168   132A      0.468343  
     133A      0.470224   134A      0.474352   135A      0.476027  
     136A      0.481508   137A      0.483229   138A      0.488363  
     139A      0.490882   140A      0.496204   141A      0.497357  
     142A      0.501855   143A      0.503790   144A      0.506549  
     145A      0.508352   146A      0.514745   147A      0.517243  
     148A      0.525701   149A      0.528277   150A      0.529782  
     151A      0.532937   152A      0.540020   153A      0.549480  
     154A      0.556055   155A      0.559779   156A      0.561612  
     157A      0.564368   158A      0.569615   159A      0.573311  
     160A      0.577416   161A      0.580237   162A      0.584259  
     163A      0.588639   164A      0.594604   165A      0.600363  
     166A      0.602717   167A      0.608683   168A      0.617419  
     169A      0.618241   170A      0.626472   171A      0.630301  
     172A      0.634712   173A      0.640621   174A      0.646892  
     175A      0.651328   176A      0.655512   177A      0.659073  
     178A      0.662836   179A      0.667699   180A      0.671813  
     181A      0.677746   182A      0.679687   183A      0.681946  
     184A      0.695222   185A      0.701543   186A      0.705566  
     187A      0.711288   188A      0.716454   189A      0.721088  
     190A      0.728454   191A      0.732340   192A      0.734441  
     193A      0.742499   194A      0.745784   195A      0.750961  
     196A      0.756880   197A      0.769191   198A      0.772947  
     199A      0.788987   200A      0.798628   201A      0.803544  
     202A      0.811386   203A      0.822171   204A      0.830806  
     205A      0.835962   206A      0.843073   207A      0.851888  
     208A      0.856988   209A      0.860415   210A      0.865038  
     211A      0.869212   212A      0.876942   213A      0.888373  
     214A      0.892077   215A      0.900472   216A      0.903693  
     217A      0.904446   218A      0.910031   219A      0.913390  
     220A      0.918193   221A      0.927039   222A      0.930087  
     223A      0.932242   224A      0.934211   225A      0.940966  
     226A      0.947771   227A      0.955208   228A      0.956847  
     229A      0.965113   230A      0.971872   231A      0.975943  
     232A      0.980147   233A      0.982847   234A      0.989732  
     235A      0.994725   236A      0.996625   237A      1.003284  
     238A      1.007963   239A      1.012892   240A      1.019335  
     241A      1.023817   242A      1.026420   243A      1.031688  
     244A      1.038234   245A      1.045638   246A      1.049671  
     247A      1.051649   248A      1.058341   249A      1.068201  
     250A      1.070115   251A      1.080195   252A      1.087228  
     253A      1.090824   254A      1.096674   255A      1.101357  
     256A      1.106179   257A      1.110456   258A      1.118419  
     259A      1.121985   260A      1.126826   261A      1.134871  
     262A      1.137538   263A      1.138953   264A      1.143321  
     265A      1.151418   266A      1.157096   267A      1.163077  
     268A      1.165964   269A      1.171430   270A      1.175884  
     271A      1.184643   272A      1.195231   273A      1.197653  
     274A      1.205309   275A      1.209204   276A      1.211153  
     277A      1.216559   278A      1.224345   279A      1.226515  
     280A      1.233410   281A      1.239133   282A      1.242814  
     283A      1.247672   284A      1.253672   285A      1.261791  
     286A      1.264152   287A      1.272226   288A      1.274995  
     289A      1.283484   290A      1.291161   291A      1.299450  
     292A      1.305751   293A      1.309593   294A      1.315644  
     295A      1.321048   296A      1.329560   297A      1.334487  
     298A      1.339026   299A      1.346802   300A      1.358386  
     301A      1.361385   302A      1.364440   303A      1.368441  
     304A      1.374301   305A      1.383512   306A      1.388139  
     307A      1.400513   308A      1.408319   309A      1.413093  
     310A      1.417025   311A      1.418985   312A      1.426860  
     313A      1.436051   314A      1.439655   315A      1.449170  
     316A      1.455677   317A      1.464720   318A      1.467921  
     319A      1.474797   320A      1.483155   321A      1.491844  
     322A      1.507662   323A      1.511433   324A      1.513551  
     325A      1.523695   326A      1.535894   327A      1.541655  
     328A      1.545700   329A      1.552020   330A      1.556785  
     331A      1.570974   332A      1.576869   333A      1.584064  
     334A      1.590308   335A      1.597229   336A      1.604570  
     337A      1.620760   338A      1.623205   339A      1.631312  
     340A      1.635145   341A      1.639287   342A      1.647273  
     343A      1.659761   344A      1.662124   345A      1.665320  
     346A      1.680037   347A      1.688638   348A      1.691516  
     349A      1.700501   350A      1.705289   351A      1.706396  
     352A      1.711365   353A      1.716510   354A      1.726722  
     355A      1.728418   356A      1.739751   357A      1.745046  
     358A      1.747615   359A      1.752674   360A      1.758656  
     361A      1.760078   362A      1.775321   363A      1.778897  
     364A      1.786913   365A      1.792734   366A      1.796384  
     367A      1.803557   368A      1.808410   369A      1.817053  
     370A      1.824710   371A      1.827712   372A      1.829501  
     373A      1.841672   374A      1.845544   375A      1.855114  
     376A      1.859916   377A      1.864043   378A      1.869080  
     379A      1.876625   380A      1.879176   381A      1.891593  
     382A      1.894708   383A      1.897835   384A      1.906699  
     385A      1.912585   386A      1.918443   387A      1.919030  
     388A      1.928539   389A      1.940517   390A      1.947072  
     391A      1.950784   392A      1.962933   393A      1.967919  
     394A      1.977949   395A      1.980129   396A      1.984603  
     397A      1.991145   398A      1.997140   399A      2.003642  
     400A      2.014399   401A      2.019518   402A      2.025444  
     403A      2.031429   404A      2.036048   405A      2.044652  
     406A      2.050773   407A      2.060935   408A      2.064611  
     409A      2.069216   410A      2.078487   411A      2.080933  
     412A      2.083946   413A      2.096429   414A      2.101091  
     415A      2.114132   416A      2.127459   417A      2.142668  
     418A      2.148659   419A      2.159235   420A      2.165268  
     421A      2.171503   422A      2.173615   423A      2.178465  
     424A      2.184887   425A      2.210867   426A      2.212079  
     427A      2.224453   428A      2.239098   429A      2.247597  
     430A      2.251161   431A      2.257966   432A      2.259582  
     433A      2.278944   434A      2.281233   435A      2.291686  
     436A      2.299581   437A      2.304588   438A      2.320137  
     439A      2.333528   440A      2.337990   441A      2.340561  
     442A      2.349340   443A      2.355659   444A      2.360915  
     445A      2.368157   446A      2.374389   447A      2.379026  
     448A      2.391641   449A      2.400991   450A      2.416044  
     451A      2.422758   452A      2.438082   453A      2.448618  
     454A      2.451195   455A      2.460596   456A      2.473215  
     457A      2.489453   458A      2.492591   459A      2.499732  
     460A      2.508069   461A      2.515069   462A      2.534762  
     463A      2.548412   464A      2.550198   465A      2.563324  
     466A      2.572065   467A      2.581826   468A      2.599289  
     469A      2.609405   470A      2.622398   471A      2.634485  
     472A      2.645194   473A      2.675882   474A      2.686743  
     475A      2.689110   476A      2.708398   477A      2.712751  
     478A      2.732437   479A      2.749189   480A      2.754664  
     481A      2.783035   482A      2.796278   483A      2.813397  
     484A      2.826569   485A      2.949407   486A      3.011380  
     487A      3.033899   488A      3.064943   489A      3.139784  
     490A      3.162294   491A      3.225198   492A      3.239921  
     493A      3.299459   494A      3.346131   495A      3.393043  
     496A      3.400084   497A      3.432999   498A      3.458738  
     499A      3.467878   500A      3.477324   501A      3.489864  
     502A      3.507537   503A      3.538965   504A      3.546101  
     505A      3.558179   506A      3.564935   507A      3.580984  
     508A      3.591374   509A      3.601514   510A      3.608565  
     511A      3.619306   512A      3.627039   513A      3.643021  
     514A      3.657123   515A      3.678218   516A      3.681552  
     517A      3.693781   518A      3.698432   519A      3.705035  
     520A      3.717755   521A      3.721313   522A      3.738801  
     523A      3.743217   524A      3.759938   525A      3.762494  
     526A      3.765044   527A      3.784030   528A      3.789678  
     529A      3.792988   530A      3.797508   531A      3.805427  
     532A      3.811335   533A      3.831190   534A      3.842209  
     535A      3.849176   536A      3.854639   537A      3.867063  
     538A      3.870139   539A      3.871363   540A      3.885156  
     541A      3.906892   542A      3.909216   543A      3.918430  
     544A      3.920983   545A      3.926684   546A      3.932665  
     547A      3.938071   548A      3.946957   549A      3.950820  
     550A      3.968475   551A      3.973660   552A      3.978090  
     553A      3.990642   554A      3.996602   555A      4.004657  
     556A      4.005695   557A      4.013088   558A      4.023233  
     559A      4.024032   560A      4.031798   561A      4.042683  
     562A      4.052513   563A      4.056755   564A      4.068487  
     565A      4.077370   566A      4.087229   567A      4.088890  
     568A      4.096354   569A      4.103252   570A      4.111189  
     571A      4.117683   572A      4.135017   573A      4.136010  
     574A      4.151696   575A      4.164463   576A      4.170857  
     577A      4.178169   578A      4.183416   579A      4.197279  
     580A      4.200100   581A      4.216829   582A      4.217987  
     583A      4.235773   584A      4.247968   585A      4.255553  
     586A      4.270866   587A      4.276864   588A      4.281230  
     589A      4.289723   590A      4.297163   591A      4.310866  
     592A      4.313838   593A      4.322447   594A      4.331801  
     595A      4.341812   596A      4.351537   597A      4.357808  
     598A      4.361080   599A      4.378272   600A      4.380344  
     601A      4.391057   602A      4.398677   603A      4.414864  
     604A      4.423072   605A      4.434111   606A      4.440345  
     607A      4.457646   608A      4.465735   609A      4.489703  
     610A      4.499005   611A      4.530679   612A      4.534657  
     613A      4.546409   614A      4.550740   615A      4.559032  
     616A      4.572009   617A      4.585552   618A      4.607427  
     619A      4.611062   620A      4.621364   621A      4.633798  
     622A      4.647996   623A      4.662327   624A      4.678702  
     625A      4.692793   626A      4.700456   627A      4.703891  
     628A      4.734451   629A      4.736275   630A      4.746983  
     631A      4.762824   632A      4.769544   633A      4.785128  
     634A      4.790428   635A      4.801294   636A      4.805356  
     637A      4.820117   638A      4.839848   639A      4.843346  
     640A      4.849367   641A      4.872275   642A      4.895043  
     643A      4.901494   644A      4.905372   645A      4.912329  
     646A      4.918969   647A      4.922816   648A      4.934318  
     649A      4.956471   650A      4.958802   651A      4.968698  
     652A      4.982247   653A      4.985966   654A      4.989776  
     655A      4.999383   656A      5.026587   657A      5.037292  
     658A      5.047360   659A      5.062039   660A      5.076661  
     661A      5.083306   662A      5.094200   663A      5.105727  
     664A      5.122435   665A      5.132070   666A      5.152477  
     667A      5.160862   668A      5.168943   669A      5.179712  
     670A      5.192932   671A      5.205662   672A      5.214408  
     673A      5.217369   674A      5.235047   675A      5.250162  
     676A      5.257965   677A      5.262920   678A      5.279137  
     679A      5.288208   680A      5.298806   681A      5.313942  
     682A      5.332696   683A      5.339484   684A      5.340703  
     685A      5.345436   686A      5.374151   687A      5.383144  
     688A      5.395099   689A      5.406950   690A      5.418569  
     691A      5.419143   692A      5.436483   693A      5.439465  
     694A      5.448133   695A      5.477040   696A      5.481199  
     697A      5.491801   698A      5.499692   699A      5.520089  
     700A      5.526162   701A      5.534427   702A      5.540905  
     703A      5.562987   704A      5.576783   705A      5.581336  
     706A      5.587608   707A      5.602712   708A      5.611230  
     709A      5.625848   710A      5.644633   711A      5.667448  
     712A      5.680157   713A      5.695286   714A      5.706582  
     715A      5.707430   716A      5.721092   717A      5.734233  
     718A      5.736094   719A      5.747032   720A      5.748725  
     721A      5.769569   722A      5.779124   723A      5.790643  
     724A      5.819851   725A      5.830313   726A      5.844253  
     727A      5.858662   728A      5.893871   729A      5.905453  
     730A      5.917857   731A      5.927193   732A      5.978636  
     733A      5.999491   734A      6.014583   735A      6.030913  
     736A      6.057817   737A      6.073771   738A      6.091313  
     739A      6.094343   740A      6.138910   741A      6.155818  
     742A      6.173712   743A      6.190609   744A      6.219122  
     745A      6.233663   746A      6.259621   747A      6.269568  
     748A      6.301142   749A      6.307007   750A      6.330189  
     751A      6.348901   752A      6.354276   753A      6.360724  
     754A      6.384311   755A      6.394461   756A      6.440711  
     757A      6.462135   758A      6.491143   759A      6.592986  
     760A      6.640408   761A      6.684634   762A      6.725046  
     763A      6.764340   764A      6.784676   765A      6.813559  
     766A      6.905097   767A      6.923601   768A      6.946922  
     769A      6.967128   770A      7.014921   771A      7.042619  
     772A      7.091691   773A      7.142056   774A      7.189129  
     775A     18.068168   776A     18.322239   777A     18.496007  
     778A     18.621207   779A     18.928823   780A     19.403998  
     781A     19.649426   782A     19.975780  

    Final Occupation by Irrep:
              A 
    DOCC [    33 ]

  Energy converged.

  @DF-RHF Final Energy:  -313.53306792333700

   => Energetics <=

    Nuclear Repulsion Energy =            403.8600654620204864
    One-Electron Energy =               -1222.8580955376023667
    Two-Electron Energy =                 505.4649621522453344
    DFT Exchange-Correlation Energy =       0.0000000000000000
    Empirical Dispersion Energy =           0.0000000000000000
    PCM Polarization Energy =               0.0000000000000000
    EFP Energy =                            0.0000000000000000
    Total Energy =                       -313.5330679233366027


  Saving occupied orbitals to File 180.

*** tstop() called on wr25 at Tue Sep 20 23:48:48 2016
Module time:
	user time   =     858.00 seconds =      14.30 minutes
	system time =      10.62 seconds =       0.18 minutes
	total time  =         80 seconds =       1.33 minutes
Total time:
	user time   =     858.00 seconds =      14.30 minutes
	system time =      10.62 seconds =       0.18 minutes
	total time  =         80 seconds =       1.33 minutes


Properties will be evaluated at   0.000000,   0.000000,   0.000000 Bohr

Properties computed using the SCF density matrix

  Nuclear Dipole Moment: (a.u.)
     X:    -1.2180      Y:    -1.2661      Z:     0.5723

  Electronic Dipole Moment: (a.u.)
     X:     1.2442      Y:     1.2835      Z:    -0.5938

  Dipole Moment: (a.u.)
     X:     0.0261      Y:     0.0173      Z:    -0.0215     Total:     0.0380

  Dipole Moment: (Debye)
     X:     0.0664      Y:     0.0441      Z:    -0.0547     Total:     0.0967


  //>>>>>>>>>>>>>>>>>>>>>>>>>>>>>>>>>>>//
  //               DFMP2               //
  //<<<<<<<<<<<<<<<<<<<<<<<<<<<<<<<<<<<//


*** tstart() called on wr25
*** at Tue Sep 20 23:48:48 2016


*** tstop() called on wr25 at Tue Sep 20 23:48:49 2016
Module time:
	user time   =       3.92 seconds =       0.07 minutes
	system time =       0.07 seconds =       0.00 minutes
	total time  =          1 seconds =       0.02 minutes
Total time:
	user time   =     863.54 seconds =      14.39 minutes
	system time =      10.73 seconds =       0.18 minutes
	total time  =         81 seconds =       1.35 minutes
	 --------------------------------------------------------
	                          DF-MP2                         
	      2nd-Order Density-Fitted Moller-Plesset Theory     
	              RMP2 Wavefunction,  12 Threads             
	                                                         
	        Rob Parrish, Justin Turney, Andy Simmonett,      
	           Ed Hohenstein, and C. David Sherrill          
	 --------------------------------------------------------

   => Auxiliary Basis Set <=

  Basis Set: 
    Number of shells: 476
    Number of basis function: 1676
    Number of Cartesian functions: 2078
    Spherical Harmonics?: true
    Max angular momentum: 4

	 --------------------------------------------------------
	                 NBF =   782, NAUX =  1676
	 --------------------------------------------------------
	   CLASS    FOCC     OCC    AOCC    AVIR     VIR    FVIR
	   PAIRS       8      33      25     749     749       0
	 --------------------------------------------------------

DGAS Warning! /src/lib/libfock/apps.cc:80 is not currently checking restricted

         ------------------------------------------------------------
                                     CPHF                           
                                  Rob Parrish                       
         ------------------------------------------------------------

  ==> Geometry <==

    Molecular point group: c1
    Full point group: C1

    Geometry (in Angstrom), charge = 0, multiplicity = 1:

       Center              X                  Y                   Z               Mass       
    ------------   -----------------  -----------------  -----------------  -----------------
           C         -3.375364720043     0.047335827778     0.343821451894    12.000000000000
           H         -3.713124456410     0.758187499821    -0.412351828024     1.007825032070
           H         -3.075118004973     0.614221476299     1.224169991341     1.007825032070
           H         -4.226709288157    -0.572147559167     0.624706566336     1.007825032070
           C          1.720600743413    -1.754145831818     0.377226235664    12.000000000000
           H          2.177605438620    -1.814431803570     1.366102994634     1.007825032070
           H          1.880257657708    -2.710450849300    -0.121777048527     1.007825032070
           H          0.648777781386    -1.628042965929     0.517068988901     1.007825032070
           C         -2.228710634768    -0.803320746544    -0.192652686450    12.000000000000
           H         -2.597705340459    -1.435465903934    -1.003494277514     1.007825032070
           H         -1.877893579949    -1.479737120400     0.592490383091     1.007825032070
           C          2.341620349971    -0.608975373771    -0.418883297193    12.000000000000
           H          3.405996498055    -0.823532367202    -0.538371602979     1.007825032070
           H          1.926082576698    -0.578710496022    -1.429713297129     1.007825032070
           C         -1.049890321481     0.022616071302    -0.700934216737    12.000000000000
           H         -1.387439433011     0.671735341250    -1.515752020167     1.007825032070
           H         -0.303806445365    -0.645564365009    -1.134435032668     1.007825032070
           C         -0.403368126628     0.893739606817     0.375156911517    12.000000000000
           H         -0.231326038606     0.301526271585     1.279972880729     1.007825032070
           H         -1.111020088816     1.675781443342     0.657155411292     1.007825032070
           C          0.911008933753     1.546905394591    -0.071502483105    12.000000000000
           H          0.861792665203     1.740684103340    -1.148152574311     1.007825032070
           H          1.004221885191     2.524617548168     0.407330973336     1.007825032070
           C          2.193224497677     0.769274500378     0.236499435816    12.000000000000
           H          3.032780579833     1.395234504669    -0.076152802146     1.007825032070
           H          2.287345851607     0.655510228307     1.321649309460     1.007825032070

  Nuclear repulsion =  403.860065462020430
  Reference energy  = -313.533067923337001

  ==> Basis Set <==

  Basis Set: AUG-CC-PVTZ
    Number of shells: 274
    Number of basis function: 782
    Number of Cartesian functions: 890
    Spherical Harmonics?: true
    Max angular momentum: 3

  ==> CGRSolver (by Rob Parrish) <==

   Number of roots    =         1
   Preconditioning    =    JACOBI
   Convergence cutoff =     1E-06
   Maximum iterations =       100

  ==> CPHFRHamiltonian (by Rob Parrish) <== 

  ==> DFJK: Density-Fitted J/K Matrices <==

    J tasked:                  Yes
    K tasked:                  Yes
    wK tasked:                  No
    OpenMP threads:             12
    Integrals threads:          12
    Memory (MB):             42915
    Algorithm:                Core
    Integral Cache:           NONE
    Schwarz Cutoff:          1E-12
    Fitting Condition:       1E-12

   => Auxiliary Basis Set <=

  Basis Set: 
    Number of shells: 492
    Number of basis function: 1660
    Number of Cartesian functions: 2038
    Spherical Harmonics?: true
    Max angular momentum: 4

  ==> CPHF Iterations <==

  => Iterations <=

             Iter  Converged  Remaining    Residual
  CGR           1          0          1   9.279E-02
  CGR           2          0          1   1.346E-02
  CGR           3          0          1   3.991E-03
  CGR           4          0          1   9.090E-04
  CGR           5          0          1   2.215E-04
  CGR           6          0          1   4.560E-05
  CGR           7          0          1   1.349E-05
  CGR           8          0          1   3.102E-06
  CGR           9          1          0   8.879E-07

    CGRSolver converged.

  ==> DFCorrGrad: Density-Fitted Correlated Gradients <==

    OpenMP threads:             12
    Integrals threads:          12
    Memory (MB):             42915
    Schwarz Cutoff:          0E+00
    Fitting Condition:       1E-12

   => Auxiliary Basis Set <=

  Basis Set: 
    Number of shells: 492
    Number of basis function: 1660
    Number of Cartesian functions: 2038
    Spherical Harmonics?: true
    Max angular momentum: 4

	-----------------------------------------------------------
	 ==================> DF-MP2 Energies <==================== 
	-----------------------------------------------------------
	 Reference Energy          =    -313.5330679233370006 [Eh]
	 Singles Energy            =      -0.0000000000000000 [Eh]
	 Same-Spin Energy          =      -0.3174237685242841 [Eh]
	 Opposite-Spin Energy      =      -1.1273190300903251 [Eh]
	 Correlation Energy        =      -1.4447427986146093 [Eh]
	 Total Energy              =    -314.9778107219515846 [Eh]
	-----------------------------------------------------------
	 ================> DF-SCS-MP2 Energies <================== 
	-----------------------------------------------------------
	 SCS Same-Spin Scale       =       0.3333333333333333 [-]
	 SCS Opposite-Spin Scale   =       1.2000000000000000 [-]
	 SCS Same-Spin Energy      =      -0.1058079228414280 [Eh]
	 SCS Opposite-Spin Energy  =      -1.3527828361083900 [Eh]
	 SCS Correlation Energy    =      -1.4585907589498182 [Eh]
	 SCS Total Energy          =    -314.9916586822868112 [Eh]
	-----------------------------------------------------------


  -Total Gradient:
     Atom            X                  Y                   Z
    ------   -----------------  -----------------  -----------------
       1        0.000000644794    -0.000000555210    -0.000000363631
       2       -0.000000403732     0.000000676773    -0.000000510664
       3        0.000000078638     0.000000441284     0.000000645723
       4       -0.000000567380    -0.000000472550     0.000000158830
       5       -0.000000141060     0.000000211803    -0.000000291918
       6        0.000000060667    -0.000000007787     0.000000150379
       7        0.000000047827    -0.000000322960    -0.000000174320
       8       -0.000000318315    -0.000000041641     0.000000113232
       9       -0.000000569545     0.000001319730    -0.000000156732
      10       -0.000000513836    -0.000000710027    -0.000000844214
      11        0.000000374244    -0.000000867818     0.000000969028
      12        0.000000019192     0.000000300742     0.000000404735
      13       -0.000000062627     0.000000025808    -0.000000066731
      14        0.000000107050     0.000000101522    -0.000000016447
      15       -0.000001676420    -0.000000808363     0.000000733886
      16       -0.000000406794     0.000000685553    -0.000000593853
      17        0.000001226227    -0.000000829931    -0.000000564735
      18        0.000000738763     0.000000303110    -0.000000710393
      19        0.000000473949    -0.000000262604     0.000000715404
      20       -0.000000292765     0.000000491805     0.000000126411
      21        0.000001169899     0.000000395142     0.000000641540
      22       -0.000000197179    -0.000000023354     0.000000054531
      23       -0.000000217217    -0.000000063436    -0.000000088967
      24        0.000000838738     0.000000369188     0.000000078553
      25       -0.000000259137    -0.000000328871     0.000000196435
      26       -0.000000153983    -0.000000027908    -0.000000606079


			-----------------------------------------
			 OPTKING 2.0: for geometry optimizations 
			  - R.A. King,  Bethel University        
			-----------------------------------------

	Internal coordinates to be generated automatically.
	Detected frag 1 with atoms:  1 2 3 4 5 6 7 8 9 10 11 12 13 14 15 16 17 18 19 20
	 21 22 23 24 25 26
	---Fragment 1 Bond Connectivity---
	 1 : 2 3 4 9
	 2 : 1
	 3 : 1
	 4 : 1
	 5 : 6 7 8 12
	 6 : 5
	 7 : 5
	 8 : 5
	 9 : 1 10 11 15
	 10 : 9
	 11 : 9
	 12 : 5 13 14 24
	 13 : 12
	 14 : 12
	 15 : 9 16 17 18
	 16 : 15
	 17 : 15
	 18 : 15 19 20 21
	 19 : 18
	 20 : 18
	 21 : 18 22 23 24
	 22 : 21
	 23 : 21
	 24 : 12 21 25 26
	 25 : 24
	 26 : 24

	---Fragment 1 Geometry and Gradient---
	 C          -6.3785149195        0.0894517508        0.6497283827
	 H          -7.0167883199        1.4327667320       -0.7792320254
	 H          -5.8111308557        1.1607103751        2.3133460237
	 H          -7.9873229979       -1.0812021944        1.1805243238
	 C           3.2514641891       -3.3148552193        0.7128542755
	 H           4.1150779045       -3.4287791955        2.5815605292
	 H           3.5531720323       -5.1220098018       -0.2301252710
	 H           1.2260123279       -3.0765553382        0.9771187808
	 C          -4.2116527292       -1.5180562078       -0.3640608162
	 H          -4.9089516674       -2.7126374315       -1.8963293604
	 H          -3.5487045728       -2.7962979062        1.1196445604
	 C           4.4250211686       -1.1507966781       -0.7915747133
	 H           6.4364005909       -1.5562506356       -1.0173748874
	 H           3.6397685793       -1.0936043477       -2.7017665801
	 C          -1.9840051772        0.0427381810       -1.3245737068
	 H          -2.6218805544        1.2693958287       -2.8643562035
	 H          -0.5741109791       -1.2199398510       -2.1437715273
	 C          -0.7622552901        1.6889230910        0.7089438196
	 H          -0.4371428604        0.5698020752        2.4187982021
	 H          -2.0995236960        3.1667679865        1.2418437541
	 C           1.7215573894        2.9232275493       -0.1351201109
	 H           1.6285521206        3.2894162392       -2.1696939242
	 H           1.8977043397        4.7708357563        0.7697439850
	 C           4.1445936485        1.4537181267        0.4469191643
	 H           5.7311247170        2.6366111050       -0.1439079403
	 H           4.3224572307        1.2387348088        2.4975552386
	             0.0000006448       -0.0000005552       -0.0000003636
	            -0.0000004037        0.0000006768       -0.0000005107
	             0.0000000786        0.0000004413        0.0000006457
	            -0.0000005674       -0.0000004725        0.0000001588
	            -0.0000001411        0.0000002118       -0.0000002919
	             0.0000000607       -0.0000000078        0.0000001504
	             0.0000000478       -0.0000003230       -0.0000001743
	            -0.0000003183       -0.0000000416        0.0000001132
	            -0.0000005695        0.0000013197       -0.0000001567
	            -0.0000005138       -0.0000007100       -0.0000008442
	             0.0000003742       -0.0000008678        0.0000009690
	             0.0000000192        0.0000003007        0.0000004047
	            -0.0000000626        0.0000000258       -0.0000000667
	             0.0000001070        0.0000001015       -0.0000000164
	            -0.0000016764       -0.0000008084        0.0000007339
	            -0.0000004068        0.0000006856       -0.0000005939
	             0.0000012262       -0.0000008299       -0.0000005647
	             0.0000007388        0.0000003031       -0.0000007104
	             0.0000004739       -0.0000002626        0.0000007154
	            -0.0000002928        0.0000004918        0.0000001264
	             0.0000011699        0.0000003951        0.0000006415
	            -0.0000001972       -0.0000000234        0.0000000545
	            -0.0000002172       -0.0000000634       -0.0000000890
	             0.0000008387        0.0000003692        0.0000000786
	            -0.0000002591       -0.0000003289        0.0000001964
	            -0.0000001540       -0.0000000279       -0.0000006061

	Previous optimization step data not found.  Starting new optimization.

	---Fragment 1 Intrafragment Coordinates---
	 - Coordinate -           - BOHR/RAD -       - ANG/DEG -
	 R(1,2)           =         2.062478	       1.091416
	 R(1,3)           =         2.058432	       1.089275
	 R(1,4)           =         2.059232	       1.089699
	 R(1,9)           =         2.882211	       1.525201
	 R(5,6)           =         2.061764	       1.091038
	 R(5,7)           =         2.060594	       1.090419
	 R(5,8)           =         2.056472	       1.088238
	 R(5,12)          =         2.885081	       1.526719
	 R(9,10)          =         2.064242	       1.092350
	 R(9,11)          =         2.067555	       1.094103
	 R(9,15)          =         2.884628	       1.526479
	 R(12,13)         =         2.064225	       1.092341
	 R(12,14)         =         2.066089	       1.093327
	 R(12,24)         =         2.897586	       1.533336
	 R(15,16)         =         2.069421	       1.095091
	 R(15,17)         =         2.062339	       1.091343
	 R(15,18)         =         2.887523	       1.528012
	 R(18,19)         =         2.069235	       1.094992
	 R(18,20)         =         2.063079	       1.091734
	 R(18,21)         =         2.899186	       1.534183
	 R(21,22)         =         2.069356	       1.095056
	 R(21,23)         =         2.064815	       1.092653
	 R(21,24)         =         2.892980	       1.530899
	 R(24,25)         =         2.065283	       1.092901
	 R(24,26)         =         2.069532	       1.095149
	 B(1,9,10)        =         1.906990	     109.262481
	 B(1,9,11)        =         1.910768	     109.478968
	 B(1,9,15)        =         1.977873	     113.323756
	 B(2,1,3)         =         1.882091	     107.835885
	 B(2,1,4)         =         1.882914	     107.883030
	 B(2,1,9)         =         1.930739	     110.623206
	 B(3,1,4)         =         1.878509	     107.630648
	 B(3,1,9)         =         1.946908	     111.549616
	 B(4,1,9)         =         1.940093	     111.159121
	 B(5,12,13)       =         1.881851	     107.822104
	 B(5,12,14)       =         1.926521	     110.381505
	 B(5,12,24)       =         1.995415	     114.328831
	 B(6,5,7)         =         1.880719	     107.757244
	 B(6,5,8)         =         1.878095	     107.606905
	 B(6,5,12)        =         1.921637	     110.101682
	 B(7,5,8)         =         1.880359	     107.736609
	 B(7,5,12)        =         1.938682	     111.078284
	 B(8,5,12)        =         1.961373	     112.378392
	 B(9,15,16)       =         1.907569	     109.295635
	 B(9,15,17)       =         1.905964	     109.203696
	 B(9,15,18)       =         1.983098	     113.623161
	 B(10,9,11)       =         1.857941	     106.452200
	 B(10,9,15)       =         1.903732	     109.075827
	 B(11,9,15)       =         1.902701	     109.016725
	 B(12,24,21)      =         2.039406	     116.849333
	 B(12,24,25)      =         1.894627	     108.554147
	 B(12,24,26)      =         1.898457	     108.773577
	 B(13,12,14)      =         1.849012	     105.940605
	 B(13,12,24)      =         1.894004	     108.518429
	 B(14,12,24)      =         1.910817	     109.481768
	 B(15,18,19)      =         1.917795	     109.881537
	 B(15,18,20)      =         1.892340	     108.423101
	 B(15,18,21)      =         1.982507	     113.589276
	 B(16,15,17)      =         1.852596	     106.145937
	 B(16,15,18)      =         1.892825	     108.450857
	 B(17,15,18)      =         1.917213	     109.848218
	 B(18,21,22)      =         1.899777	     108.849188
	 B(18,21,23)      =         1.903349	     109.053869
	 B(18,21,24)      =         2.029433	     116.277929
	 B(19,18,20)      =         1.850238	     106.010811
	 B(19,18,21)      =         1.913702	     109.647030
	 B(20,18,21)      =         1.902393	     108.999101
	 B(21,24,25)      =         1.870163	     107.152449
	 B(21,24,26)      =         1.900860	     108.911231
	 B(22,21,23)      =         1.850796	     106.042806
	 B(22,21,24)      =         1.902166	     108.986099
	 B(23,21,24)      =         1.870152	     107.151788
	 B(25,24,26)      =         1.851404	     106.077650
	 D(1,9,15,16)     =        -1.049729	     -60.145020
	 D(1,9,15,17)     =        -3.069390	    -175.863078
	 D(1,9,15,18)     =         1.066896	      61.128611
	 D(2,1,9,10)      =        -1.153471	     -66.089031
	 D(2,1,9,11)      =         3.101279	     177.690226
	 D(2,1,9,15)      =         0.973194	      55.759929
	 D(3,1,9,10)      =         3.034766	     173.879306
	 D(3,1,9,11)      =         1.006332	      57.658563
	 D(3,1,9,15)      =        -1.121753	     -64.271734
	 D(4,1,9,10)      =         0.938019	      53.744550
	 D(4,1,9,11)      =        -1.090415	     -62.476193
	 D(4,1,9,15)      =         3.064685	     175.593510
	 D(5,12,24,21)    =        -1.520546	     -87.120871
	 D(5,12,24,25)    =         2.646651	     151.641933
	 D(5,12,24,26)    =         0.639510	      36.641251
	 D(6,5,12,13)     =         1.075340	      61.612436
	 D(6,5,12,14)     =         3.087524	     176.902102
	 D(6,5,12,24)     =        -1.032371	     -59.150494
	 D(7,5,12,13)     =        -1.006535	     -57.670180
	 D(7,5,12,14)     =         1.005650	      57.619486
	 D(7,5,12,24)     =        -3.114245	    -178.433110
	 D(8,5,12,13)     =        -3.114576	    -178.452057
	 D(8,5,12,14)     =        -1.102392	     -63.162391
	 D(8,5,12,24)     =         1.060899	      60.785013
	 D(9,15,18,19)    =         0.828029	      47.442556
	 D(9,15,18,20)    =        -1.186822	     -67.999910
	 D(9,15,18,21)    =         2.978853	     170.675694
	 D(10,9,15,16)    =         1.078756	      61.808181
	 D(10,9,15,17)    =        -0.940905	     -53.909876
	 D(10,9,15,18)    =        -3.087805	    -176.918187
	 D(11,9,15,16)    =         3.100874	     177.666975
	 D(11,9,15,17)    =         1.081213	      61.948918
	 D(11,9,15,18)    =        -1.065687	     -61.059393
	 D(12,24,21,18)   =         1.082517	      62.023653
	 D(12,24,21,22)   =        -1.071748	     -61.406652
	 D(12,24,21,23)   =        -3.067240	    -175.739908
	 D(13,12,24,21)   =         2.661681	     152.503112
	 D(13,12,24,25)   =         0.545693	      31.265916
	 D(13,12,24,26)   =        -1.461447	     -83.734766
	 D(14,12,24,21)   =         0.651127	      37.306844
	 D(14,12,24,25)   =        -1.464861	     -83.930351
	 D(14,12,24,26)   =         2.811184	     161.068967
	 D(15,18,21,22)   =         0.549029	      31.457062
	 D(15,18,21,23)   =         2.560832	     146.724858
	 D(15,18,21,24)   =        -1.606475	     -92.044228
	 D(16,15,18,19)   =         2.952875	     169.187289
	 D(16,15,18,20)   =         0.938024	      53.744823
	 D(16,15,18,21)   =        -1.179486	     -67.579573
	 D(17,15,18,19)   =        -1.312689	     -75.211512
	 D(17,15,18,20)   =         2.955646	     169.346023
	 D(17,15,18,21)   =         0.838135	      48.021627
	 D(18,21,24,25)   =        -3.071873	    -176.005380
	 D(18,21,24,26)   =        -1.076311	     -61.668105
	 D(19,18,21,22)   =         2.702092	     154.818491
	 D(19,18,21,23)   =        -1.569290	     -89.913713
	 D(19,18,21,24)   =         0.546588	      31.317201
	 D(20,18,21,22)   =        -1.562850	     -89.544733
	 D(20,18,21,23)   =         0.448952	      25.723063
	 D(20,18,21,24)   =         2.564831	     146.953977
	 D(22,21,24,25)   =         1.057047	      60.564314
	 D(22,21,24,26)   =         3.052609	     174.901589
	 D(23,21,24,25)   =        -0.938445	     -53.768942
	 D(23,21,24,26)   =         1.057117	      60.568333
	 R(5,15)          =         6.544821	       3.463370
	 R(5,18)          =         6.414652	       3.394487
	 R(12,15)         =         6.540966	       3.461330

	Current energy   :      -314.9778107220

	Generating empirical Hessian (Schlegel '84) for each fragment.
	Taking RFO optimization step.
	Going to follow RFO solution 1.
	Using RFO vector 1.
	Norm of target step-size    0.00020
	Projected energy change by RFO approximation:        -0.0000000000

	Back-transformation to cartesian coordinates...
	Successfully converged to displaced geometry.

	--- Internal Coordinate Step in ANG or DEG, aJ/ANG or AJ/DEG ---
	 ---------------------------------------------------------------------------
	   Coordinate                Previous        Force       Change         New 
	   ----------                --------       ------       ------       ------
	    1 R(1,2)          =      1.091416    -0.000008    -0.000001     1.091415
	    2 R(1,3)          =      1.089275    -0.000006    -0.000001     1.089274
	    3 R(1,4)          =      1.089699    -0.000006    -0.000001     1.089698
	    4 R(1,9)          =      1.525201    -0.000001    -0.000000     1.525200
	    5 R(5,6)          =      1.091038    -0.000002    -0.000000     1.091038
	    6 R(5,7)          =      1.090419    -0.000003    -0.000001     1.090419
	    7 R(5,8)          =      1.088238    -0.000003    -0.000000     1.088238
	    8 R(5,12)         =      1.526719    -0.000002    -0.000000     1.526719
	    9 R(9,10)         =      1.092350    -0.000010    -0.000002     1.092348
	   10 R(9,11)         =      1.094103    -0.000011    -0.000002     1.094101
	   11 R(9,15)         =      1.526479    -0.000007    -0.000001     1.526478
	   12 R(12,13)        =      1.092341     0.000000     0.000000     1.092341
	   13 R(12,14)        =      1.093327     0.000000     0.000000     1.093327
	   14 R(12,24)        =      1.533336     0.000002     0.000001     1.533337
	   15 R(15,16)        =      1.095091    -0.000008    -0.000001     1.095089
	   16 R(15,17)        =      1.091343    -0.000013    -0.000002     1.091340
	   17 R(15,18)        =      1.528012    -0.000014    -0.000003     1.528008
	   18 R(18,19)        =      1.094992    -0.000007    -0.000001     1.094991
	   19 R(18,20)        =      1.091734    -0.000005    -0.000001     1.091733
	   20 R(18,21)        =      1.534183    -0.000005    -0.000001     1.534181
	   21 R(21,22)        =      1.095056     0.000000     0.000000     1.095056
	   22 R(21,23)        =      1.092653     0.000001     0.000000     1.092653
	   23 R(21,24)        =      1.530899     0.000002     0.000000     1.530899
	   24 R(24,25)        =      1.092901     0.000004     0.000001     1.092901
	   25 R(24,26)        =      1.095149     0.000005     0.000001     1.095150
	   26 B(1,9,10)       =    109.262481     0.000000     0.000140   109.262622
	   27 B(1,9,11)       =    109.478968     0.000000    -0.000028   109.478940
	   28 B(1,9,15)       =    113.323756    -0.000000    -0.000122   113.323634
	   29 B(2,1,3)        =    107.835885     0.000000     0.000026   107.835911
	   30 B(2,1,4)        =    107.883030     0.000000     0.000037   107.883068
	   31 B(2,1,9)        =    110.623206    -0.000000    -0.000096   110.623110
	   32 B(3,1,4)        =    107.630648     0.000000     0.000029   107.630677
	   33 B(3,1,9)        =    111.549616    -0.000000    -0.000077   111.549540
	   34 B(4,1,9)        =    111.159121     0.000000     0.000086   111.159207
	   35 B(5,12,13)      =    107.822104     0.000000     0.000011   107.822115
	   36 B(5,12,14)      =    110.381505     0.000000    -0.000034   110.381471
	   37 B(5,12,24)      =    114.328831    -0.000000    -0.000127   114.328703
	   38 B(6,5,7)        =    107.757244    -0.000000     0.000010   107.757253
	   39 B(6,5,8)        =    107.606905     0.000000     0.000032   107.606937
	   40 B(6,5,12)       =    110.101682     0.000000     0.000031   110.101714
	   41 B(7,5,8)        =    107.736609     0.000000    -0.000003   107.736607
	   42 B(7,5,12)       =    111.078284     0.000000    -0.000004   111.078280
	   43 B(8,5,12)       =    112.378392    -0.000000    -0.000063   112.378329
	   44 B(9,15,16)      =    109.295635     0.000000     0.000182   109.295817
	   45 B(9,15,17)      =    109.203696     0.000000    -0.000113   109.203583
	   46 B(9,15,18)      =    113.623161    -0.000000    -0.000286   113.622875
	   47 B(10,9,11)      =    106.452200    -0.000000     0.000045   106.452245
	   48 B(10,9,15)      =    109.075827     0.000000     0.000021   109.075848
	   49 B(11,9,15)      =    109.016725     0.000000    -0.000047   109.016678
	   50 B(12,24,21)     =    116.849333     0.000000     0.000137   116.849470
	   51 B(12,24,25)     =    108.554147    -0.000000    -0.000054   108.554093
	   52 B(12,24,26)     =    108.773577    -0.000000     0.000031   108.773608
	   53 B(13,12,14)     =    105.940605    -0.000000     0.000069   105.940674
	   54 B(13,12,24)     =    108.518429     0.000000     0.000036   108.518465
	   55 B(14,12,24)     =    109.481768     0.000000     0.000060   109.481828
	   56 B(15,18,19)     =    109.881537     0.000000    -0.000106   109.881431
	   57 B(15,18,20)     =    108.423101     0.000000     0.000098   108.423200
	   58 B(15,18,21)     =    113.589276    -0.000000    -0.000384   113.588892
	   59 B(16,15,17)     =    106.145937    -0.000000    -0.000006   106.145931
	   60 B(16,15,18)     =    108.450857     0.000000     0.000122   108.450979
	   61 B(17,15,18)     =    109.848218     0.000000     0.000123   109.848340
	   62 B(18,21,22)     =    108.849188     0.000000     0.000113   108.849301
	   63 B(18,21,23)     =    109.053869     0.000000     0.000080   109.053949
	   64 B(18,21,24)     =    116.277929    -0.000000    -0.000060   116.277869
	   65 B(19,18,20)     =    106.010811    -0.000000     0.000032   106.010843
	   66 B(19,18,21)     =    109.647030     0.000000     0.000178   109.647208
	   67 B(20,18,21)     =    108.999101     0.000000     0.000212   108.999313
	   68 B(21,24,25)     =    107.152449    -0.000000    -0.000138   107.152311
	   69 B(21,24,26)     =    108.911231    -0.000000     0.000047   108.911278
	   70 B(22,21,23)     =    106.042806     0.000000     0.000026   106.042832
	   71 B(22,21,24)     =    108.986099    -0.000000    -0.000044   108.986055
	   72 B(23,21,24)     =    107.151788    -0.000000    -0.000111   107.151677
	   73 B(25,24,26)     =    106.077650     0.000000    -0.000043   106.077607
	   74 D(1,9,15,16)    =    -60.145020    -0.000000    -0.002061   -60.147081
	   75 D(1,9,15,17)    =   -175.863078    -0.000000    -0.002092  -175.865170
	   76 D(1,9,15,18)    =     61.128611    -0.000000    -0.001966    61.126645
	   77 D(2,1,9,10)     =    -66.089031     0.000000     0.000253   -66.088779
	   78 D(2,1,9,11)     =    177.690226    -0.000000     0.000135   177.690361
	   79 D(2,1,9,15)     =     55.759929    -0.000000     0.000299    55.760227
	   80 D(3,1,9,10)     =    173.879306     0.000000     0.000336   173.879642
	   81 D(3,1,9,11)     =     57.658563    -0.000000     0.000218    57.658781
	   82 D(3,1,9,15)     =    -64.271734     0.000000     0.000382   -64.271352
	   83 D(4,1,9,10)     =     53.744550     0.000000     0.000293    53.744843
	   84 D(4,1,9,11)     =    -62.476193    -0.000000     0.000175   -62.476018
	   85 D(4,1,9,15)     =    175.593510     0.000000     0.000338   175.593848
	   86 D(5,12,24,21)   =    -87.120871     0.000000    -0.000641   -87.121512
	   87 D(5,12,24,25)   =    151.641933     0.000000    -0.000511   151.641422
	   88 D(5,12,24,26)   =     36.641251     0.000000    -0.000449    36.640803
	   89 D(6,5,12,13)    =     61.612436    -0.000000    -0.000040    61.612396
	   90 D(6,5,12,14)    =    176.902102     0.000000     0.000030   176.902131
	   91 D(6,5,12,24)    =    -59.150494    -0.000000    -0.000013   -59.150507
	   92 D(7,5,12,13)    =    -57.670180    -0.000000    -0.000070   -57.670250
	   93 D(7,5,12,14)    =     57.619486     0.000000    -0.000000    57.619485
	   94 D(7,5,12,24)    =   -178.433110    -0.000000    -0.000043  -178.433153
	   95 D(8,5,12,13)    =   -178.452057    -0.000000    -0.000020  -178.452077
	   96 D(8,5,12,14)    =    -63.162391     0.000000     0.000050   -63.162341
	   97 D(8,5,12,24)    =     60.785013    -0.000000     0.000008    60.785021
	   98 D(9,15,18,19)   =     47.442556    -0.000000    -0.002918    47.439638
	   99 D(9,15,18,20)   =    -67.999910    -0.000000    -0.002954   -68.002864
	  100 D(9,15,18,21)   =    170.675694    -0.000000    -0.003042   170.672652
	  101 D(10,9,15,16)   =     61.808181    -0.000000    -0.001949    61.806233
	  102 D(10,9,15,17)   =    -53.909876    -0.000000    -0.001979   -53.911856
	  103 D(10,9,15,18)   =   -176.918187    -0.000000    -0.001853  -176.920041
	  104 D(11,9,15,16)   =    177.666975     0.000000    -0.001909   177.665066
	  105 D(11,9,15,17)   =     61.948918    -0.000000    -0.001940    61.946978
	  106 D(11,9,15,18)   =    -61.059393    -0.000000    -0.001814   -61.061207
	  107 D(12,24,21,18)  =     62.023653     0.000000    -0.001208    62.022445
	  108 D(12,24,21,22)  =    -61.406652    -0.000000    -0.001280   -61.407932
	  109 D(12,24,21,23)  =   -175.739908     0.000000    -0.001231  -175.741139
	  110 D(13,12,24,21)  =    152.503112     0.000000    -0.000598   152.502514
	  111 D(13,12,24,25)  =     31.265916     0.000000    -0.000468    31.265448
	  112 D(13,12,24,26)  =    -83.734766     0.000000    -0.000406   -83.735172
	  113 D(14,12,24,21)  =     37.306844    -0.000000    -0.000732    37.306113
	  114 D(14,12,24,25)  =    -83.930351    -0.000000    -0.000602   -83.930954
	  115 D(14,12,24,26)  =    161.068967    -0.000000    -0.000540   161.068427
	  116 D(15,18,21,22)  =     31.457062    -0.000000     0.000143    31.457205
	  117 D(15,18,21,23)  =    146.724858     0.000000     0.000279   146.725136
	  118 D(15,18,21,24)  =    -92.044228    -0.000000     0.000153   -92.044075
	  119 D(16,15,18,19)  =    169.187289    -0.000000    -0.002787   169.184501
	  120 D(16,15,18,20)  =     53.744823    -0.000000    -0.002824    53.741999
	  121 D(16,15,18,21)  =    -67.579573    -0.000000    -0.002912   -67.582485
	  122 D(17,15,18,19)  =    -75.211512     0.000000    -0.002659   -75.214171
	  123 D(17,15,18,20)  =    169.346023     0.000000    -0.002696   169.343327
	  124 D(17,15,18,21)  =     48.021627     0.000000    -0.002784    48.018843
	  125 D(18,21,24,25)  =   -176.005380     0.000000    -0.001295  -176.006675
	  126 D(18,21,24,26)  =    -61.668105    -0.000000    -0.001392   -61.669497
	  127 D(19,18,21,22)  =    154.818491    -0.000000    -0.000136   154.818355
	  128 D(19,18,21,23)  =    -89.913713    -0.000000    -0.000000   -89.913713
	  129 D(19,18,21,24)  =     31.317201    -0.000000    -0.000125    31.317076
	  130 D(20,18,21,22)  =    -89.544733     0.000000     0.000121   -89.544612
	  131 D(20,18,21,23)  =     25.723063     0.000000     0.000256    25.723319
	  132 D(20,18,21,24)  =    146.953977    -0.000000     0.000131   146.954108
	  133 D(22,21,24,25)  =     60.564314    -0.000000    -0.001366    60.562948
	  134 D(22,21,24,26)  =    174.901589    -0.000000    -0.001464   174.900126
	  135 D(23,21,24,25)  =    -53.768942     0.000000    -0.001318   -53.770259
	  136 D(23,21,24,26)  =     60.568333    -0.000000    -0.001415    60.566919
	  137 R(5,15)         =      3.463370     0.000003     0.000014     3.463384
	  138 R(5,18)         =      3.394487     0.000002     0.000001     3.394488
	  139 R(12,15)        =      3.461330    -0.000006    -0.000018     3.461312
	 ---------------------------------------------------------------------------

  ==> Convergence Check <==

  Measures of convergence in internal coordinates in au.
  Criteria marked as inactive (o), active & met (*), and active & unmet ( ).
  --------------------------------------------------------------------------------------------- ~
   Step     Total Energy     Delta E     MAX Force     RMS Force      MAX Disp      RMS Disp    ~
  --------------------------------------------------------------------------------------------- ~
    Convergence Criteria             o    2.00e-06 *    1.00e-06 *    6.00e-06 *    4.00e-06 *  ~
  --------------------------------------------------------------------------------------------- ~
      1    -314.97781072   -3.15e+02 o    1.68e-06 *    3.86e-07 *    5.31e-05      1.71e-05    ~
  ---------------------------------------------------------------------------------------------

	Writing optimization data to binary file.
	Structure for next step:
	Cartesian Geometry (in Angstrom)
	    C    -3.3753219887   0.0472929161   0.3438617001
	    H    -3.7131197964   0.7581731343  -0.4122657151
	    H    -3.0750481600   0.6141420853   1.2242230533
	    H    -4.2266461937  -0.5722141663   0.6247518031
	    C     1.7205620798  -1.7541433832   0.3772698870
	    H     2.1775747871  -1.8144182932   1.3661433108
	    H     1.8802017370  -2.7104585765  -0.1217182455
	    H     0.6487424775  -1.6280237176   0.5171194759
	    C    -2.2286763183  -0.8033216274  -0.1926961618
	    H    -2.5976889538  -1.4354313089  -1.0035547437
	    H    -1.8778215199  -1.4797694374   0.5924000312
	    C     2.3415885746  -0.6089950008  -0.4188652720
	    H     3.4059611434  -0.8235670341  -0.5383592650
	    H     1.9260409637  -0.5787427207  -1.4296916594
	    C    -1.0498876019   0.0226579672  -0.7009770298
	    H    -1.3874637254   0.6717876305  -1.5157733506
	    H    -0.3037954763  -0.6454925385  -1.1345037085
	    C    -0.4033762477   0.8937674959   0.3751273766
	    H    -0.2313542461   0.3015460854   1.2799403872
	    H    -1.1110239838   1.6758139470   0.6571202711
	    C     0.9110126941   1.5469175279  -0.0715151839
	    H     0.8618121832   1.7407021112  -1.1481649925
	    H     1.0042357670   2.5246258691   0.4073244985
	    C     2.1932142819   0.7692674439   0.2364974893
	    H     3.0327805527   1.3952095950  -0.0761654862
	    H     2.2873359506   0.6555184309   1.3216498968
			--------------------------
			 OPTKING Finished Execution 
			--------------------------

    Structure for next step:
    Molecular point group: c1
    Full point group: C1

    Geometry (in Angstrom), charge = 0, multiplicity = 1:

    C           -3.375321483248     0.047291578394     0.343864449199
    H           -3.713119291041     0.758171796591    -0.412262965997
    H           -3.075047654564     0.614140747535     1.224225802415
    H           -4.226645688310    -0.572215504020     0.624754552198
    C            1.720562585200    -1.754144720960     0.377272636065
    H            2.177575292495    -1.814419630967     1.366146059902
    H            1.880202242451    -2.710459914278    -0.121715496409
    H            0.648742982949    -1.628025055302     0.517122224924
    C           -2.228675812866    -0.803322965183    -0.192693412691
    H           -2.597688448422    -1.435432646675    -1.003551994651
    H           -1.877821014502    -1.479770775167     0.592402780287
    C            2.341589080031    -0.608996338532    -0.418862522959
    H            3.405961648814    -0.823568371843    -0.538356515955
    H            1.926041469122    -0.578744058462    -1.429688910296
    C           -1.049887096523     0.022656629460    -0.700974280709
    H           -1.387463220024     0.671786292784    -1.515770601491
    H           -0.303794970942    -0.645493876287    -1.134500959455
    C           -0.403375742328     0.893766158143     0.375130125695
    H           -0.231353740735     0.301544747667     1.279943136271
    H           -1.111023478362     1.675812609267     0.657123020174
    C            0.911013199537     1.546916190136    -0.071512434865
    H            0.861812688556     1.740700773466    -1.148162243394
    H            1.004236272383     2.524624531348     0.407327247534
    C            2.193214787292     0.769266106210     0.236500238357
    H            3.032781058071     1.395208257287    -0.076162737080
    H            2.287336455967     0.655517093189     1.321652645871

gradient() will perform analytic gradient computation.

*** tstart() called on wr25
*** at Tue Sep 20 23:53:52 2016


         ---------------------------------------------------------
                                   SCF
            by Justin Turney, Rob Parrish, and Andy Simmonett
                              RHF Reference
                       12 Threads,  60000 MiB Core
         ---------------------------------------------------------

  ==> Geometry <==

    Molecular point group: c1
    Full point group: C1

    Geometry (in Angstrom), charge = 0, multiplicity = 1:

       Center              X                  Y                   Z               Mass       
    ------------   -----------------  -----------------  -----------------  -----------------
           C         -3.375321483248     0.047291578394     0.343864449199    12.000000000000
           H         -3.713119291041     0.758171796591    -0.412262965997     1.007825032070
           H         -3.075047654564     0.614140747535     1.224225802415     1.007825032070
           H         -4.226645688310    -0.572215504020     0.624754552198     1.007825032070
           C          1.720562585200    -1.754144720960     0.377272636065    12.000000000000
           H          2.177575292495    -1.814419630967     1.366146059902     1.007825032070
           H          1.880202242451    -2.710459914278    -0.121715496409     1.007825032070
           H          0.648742982949    -1.628025055302     0.517122224924     1.007825032070
           C         -2.228675812866    -0.803322965183    -0.192693412691    12.000000000000
           H         -2.597688448422    -1.435432646675    -1.003551994651     1.007825032070
           H         -1.877821014502    -1.479770775167     0.592402780287     1.007825032070
           C          2.341589080031    -0.608996338532    -0.418862522959    12.000000000000
           H          3.405961648814    -0.823568371843    -0.538356515955     1.007825032070
           H          1.926041469122    -0.578744058462    -1.429688910296     1.007825032070
           C         -1.049887096523     0.022656629460    -0.700974280709    12.000000000000
           H         -1.387463220024     0.671786292784    -1.515770601491     1.007825032070
           H         -0.303794970942    -0.645493876287    -1.134500959455     1.007825032070
           C         -0.403375742328     0.893766158143     0.375130125695    12.000000000000
           H         -0.231353740735     0.301544747667     1.279943136271     1.007825032070
           H         -1.111023478362     1.675812609267     0.657123020174     1.007825032070
           C          0.911013199537     1.546916190136    -0.071512434865    12.000000000000
           H          0.861812688556     1.740700773466    -1.148162243394     1.007825032070
           H          1.004236272383     2.524624531348     0.407327247534     1.007825032070
           C          2.193214787292     0.769266106210     0.236500238357    12.000000000000
           H          3.032781058071     1.395208257286    -0.076162737080     1.007825032070
           H          2.287336455967     0.655517093189     1.321652645871     1.007825032070

  Running in c1 symmetry.

  Rotational constants: A =      0.10466  B =      0.03325  C =      0.02780 [cm^-1]
  Rotational constants: A =   3137.48562  B =    996.70580  C =    833.45683 [MHz]
  Nuclear repulsion =  403.861030592437714

  Charge       = 0
  Multiplicity = 1
  Electrons    = 66
  Nalpha       = 33
  Nbeta        = 33

  ==> Algorithm <==

  SCF Algorithm Type is DF.
  DIIS enabled.
  MOM disabled.
  Fractional occupation disabled.
  Guess Type is READ.
  Energy threshold   = 1.00e-10
  Density threshold  = 1.00e-10
  Integral threshold = 0.00e+00

  ==> Primary Basis <==

  Basis Set: AUG-CC-PVTZ
    Number of shells: 274
    Number of basis function: 782
    Number of Cartesian functions: 890
    Spherical Harmonics?: true
    Max angular momentum: 3

  ==> Pre-Iterations <==

   -------------------------------------------------------
    Irrep   Nso     Nmo     Nalpha   Nbeta   Ndocc  Nsocc
   -------------------------------------------------------
     A        782     782       0       0       0       0
   -------------------------------------------------------
    Total     782     782      33      33      33       0
   -------------------------------------------------------

  ==> Integral Setup <==

  ==> DFJK: Density-Fitted J/K Matrices <==

    J tasked:                  Yes
    K tasked:                  Yes
    wK tasked:                  No
    OpenMP threads:             12
    Integrals threads:          12
    Memory (MB):             42915
    Algorithm:                Core
    Integral Cache:           NONE
    Schwarz Cutoff:          1E-12
    Fitting Condition:       1E-12

   => Auxiliary Basis Set <=

  Basis Set: 
    Number of shells: 492
    Number of basis function: 1660
    Number of Cartesian functions: 2038
    Spherical Harmonics?: true
    Max angular momentum: 4

  Minimum eigenvalue in the overlap matrix is 1.5607512245E-06.
  Using Symmetric Orthogonalization.
  SCF Guess: Reading in previously saved MOs, projecting if necessary.

  Using orbitals from previous SCF, no projection.
  Recomputing DOCC and SOCC from number of alpha and beta electrons from previous calculation.
              A 
    DOCC [    33 ]

  ==> Iterations <==

                           Total Energy        Delta E     RMS |[F,P]|

   @DF-RHF iter   0:  -313.53309713559565   -3.13533e+02   1.56099e-07 
   @DF-RHF iter   1:  -313.53306781017329    2.93254e-05   2.95223e-08 
   @DF-RHF iter   2:  -313.53306781063611   -4.62819e-10   1.15680e-08 DIIS
   @DF-RHF iter   3:  -313.53306781069648   -6.03677e-11   4.79475e-09 DIIS
   @DF-RHF iter   4:  -313.53306781071012   -1.36424e-11   4.89179e-10 DIIS
   @DF-RHF iter   5:  -313.53306781071012    0.00000e+00   1.57675e-10 DIIS
   @DF-RHF iter   6:  -313.53306781070989    2.27374e-13   4.25772e-11 DIIS

  ==> Post-Iterations <==

    Orbital Energies (a.u.)
    -----------------------

    Doubly Occupied:                                                      

       1A    -11.213201     2A    -11.213099     3A    -11.211399  
       4A    -11.210784     5A    -11.209763     6A    -11.209161  
       7A    -11.206661     8A    -11.206072     9A     -1.093165  
      10A     -1.057733    11A     -1.006587    12A     -0.950644  
      13A     -0.887841    14A     -0.830688    15A     -0.777262  
      16A     -0.765974    17A     -0.651122    18A     -0.619681  
      19A     -0.598219    20A     -0.594913    21A     -0.589637  
      22A     -0.562637    23A     -0.552308    24A     -0.520795  
      25A     -0.518665    26A     -0.504267    27A     -0.487268  
      28A     -0.474011    29A     -0.465970    30A     -0.460143  
      31A     -0.451728    32A     -0.432610    33A     -0.430080  

    Virtual:                                                              

      34A      0.029586    35A      0.032987    36A      0.033566  
      37A      0.035642    38A      0.046126    39A      0.048174  
      40A      0.051681    41A      0.053994    42A      0.054608  
      43A      0.068054    44A      0.068862    45A      0.072976  
      46A      0.074706    47A      0.075828    48A      0.080719  
      49A      0.093096    50A      0.099093    51A      0.103838  
      52A      0.114365    53A      0.114853    54A      0.120367  
      55A      0.123146    56A      0.128839    57A      0.130640  
      58A      0.133565    59A      0.136541    60A      0.140840  
      61A      0.145637    62A      0.150305    63A      0.153110  
      64A      0.153884    65A      0.156752    66A      0.163643  
      67A      0.164448    68A      0.168668    69A      0.172266  
      70A      0.175414    71A      0.177690    72A      0.181076  
      73A      0.182859    74A      0.186939    75A      0.195389  
      76A      0.202656    77A      0.211914    78A      0.217485  
      79A      0.227242    80A      0.233211    81A      0.239913  
      82A      0.250184    83A      0.252947    84A      0.259595  
      85A      0.266329    86A      0.276296    87A      0.280521  
      88A      0.287822    89A      0.290923    90A      0.299325  
      91A      0.301281    92A      0.306324    93A      0.314664  
      94A      0.318034    95A      0.318697    96A      0.323490  
      97A      0.329708    98A      0.330187    99A      0.335564  
     100A      0.337044   101A      0.344602   102A      0.346089  
     103A      0.349777   104A      0.355622   105A      0.356871  
     106A      0.359738   107A      0.361300   108A      0.366374  
     109A      0.366796   110A      0.374347   111A      0.376657  
     112A      0.379343   113A      0.385551   114A      0.386741  
     115A      0.387912   116A      0.390981   117A      0.399056  
     118A      0.400709   119A      0.405129   120A      0.411600  
     121A      0.418318   122A      0.422923   123A      0.429234  
     124A      0.431412   125A      0.435376   126A      0.442857  
     127A      0.444582   128A      0.451168   129A      0.451826  
     130A      0.456913   131A      0.462168   132A      0.468345  
     133A      0.470226   134A      0.474354   135A      0.476027  
     136A      0.481509   137A      0.483228   138A      0.488365  
     139A      0.490883   140A      0.496205   141A      0.497359  
     142A      0.501854   143A      0.503790   144A      0.506549  
     145A      0.508351   146A      0.514747   147A      0.517243  
     148A      0.525702   149A      0.528276   150A      0.529784  
     151A      0.532936   152A      0.540022   153A      0.549483  
     154A      0.556057   155A      0.559780   156A      0.561613  
     157A      0.564370   158A      0.569615   159A      0.573310  
     160A      0.577415   161A      0.580238   162A      0.584260  
     163A      0.588638   164A      0.594605   165A      0.600364  
     166A      0.602719   167A      0.608685   168A      0.617420  
     169A      0.618240   170A      0.626473   171A      0.630301  
     172A      0.634711   173A      0.640622   174A      0.646893  
     175A      0.651328   176A      0.655517   177A      0.659074  
     178A      0.662835   179A      0.667701   180A      0.671812  
     181A      0.677748   182A      0.679691   183A      0.681946  
     184A      0.695223   185A      0.701545   186A      0.705564  
     187A      0.711289   188A      0.716456   189A      0.721092  
     190A      0.728454   191A      0.732341   192A      0.734440  
     193A      0.742500   194A      0.745784   195A      0.750961  
     196A      0.756875   197A      0.769194   198A      0.772945  
     199A      0.788984   200A      0.798629   201A      0.803540  
     202A      0.811389   203A      0.822174   204A      0.830802  
     205A      0.835961   206A      0.843078   207A      0.851893  
     208A      0.856989   209A      0.860414   210A      0.865040  
     211A      0.869216   212A      0.876943   213A      0.888372  
     214A      0.892077   215A      0.900472   216A      0.903694  
     217A      0.904447   218A      0.910034   219A      0.913390  
     220A      0.918194   221A      0.927041   222A      0.930088  
     223A      0.932244   224A      0.934210   225A      0.940966  
     226A      0.947772   227A      0.955206   228A      0.956849  
     229A      0.965113   230A      0.971871   231A      0.975949  
     232A      0.980144   233A      0.982848   234A      0.989734  
     235A      0.994723   236A      0.996627   237A      1.003287  
     238A      1.007966   239A      1.012897   240A      1.019337  
     241A      1.023813   242A      1.026419   243A      1.031689  
     244A      1.038234   245A      1.045637   246A      1.049674  
     247A      1.051651   248A      1.058343   249A      1.068201  
     250A      1.070115   251A      1.080196   252A      1.087222  
     253A      1.090824   254A      1.096673   255A      1.101361  
     256A      1.106185   257A      1.110461   258A      1.118423  
     259A      1.121987   260A      1.126827   261A      1.134872  
     262A      1.137537   263A      1.138951   264A      1.143323  
     265A      1.151421   266A      1.157099   267A      1.163076  
     268A      1.165968   269A      1.171428   270A      1.175883  
     271A      1.184646   272A      1.195230   273A      1.197657  
     274A      1.205311   275A      1.209203   276A      1.211153  
     277A      1.216563   278A      1.224345   279A      1.226517  
     280A      1.233411   281A      1.239134   282A      1.242814  
[...]
	 Skipping Hessian update for step 12.
	Denominators (dg)(dq) or (dq)(dq) are very small.
	 Skipping Hessian update for step 11.
	Denominators (dg)(dq) or (dq)(dq) are very small.
	 Skipping Hessian update for step 10.
	Denominators (dg)(dq) or (dq)(dq) are very small.
	 Skipping Hessian update for step 9.
	Denominators (dg)(dq) or (dq)(dq) are very small.
	 Skipping Hessian update for step 8.
	Denominators (dg)(dq) or (dq)(dq) are very small.
	 Skipping Hessian update for step 7.
	Denominators (dg)(dq) or (dq)(dq) are very small.
	 Skipping Hessian update for step 6.
	Denominators (dg)(dq) or (dq)(dq) are very small.
	 Skipping Hessian update for step 5.
	Denominators (dg)(dq) or (dq)(dq) are very small.
	 Skipping Hessian update for step 4.
	Denominators (dg)(dq) or (dq)(dq) are very small.
	 Skipping Hessian update for step 3.
	Denominators (dg)(dq) or (dq)(dq) are very small.
	 Skipping Hessian update for step 2.
	Steps to be used in Hessian update: 1
	Taking RFO optimization step.
	Going to follow RFO solution 1.
	Using RFO vector 1.
	Norm of target step-size    0.00002
	Projected energy change by RFO approximation:         0.0000000000

	Back-transformation to cartesian coordinates...
	Successfully converged to displaced geometry.

	--- Internal Coordinate Step in ANG or DEG, aJ/ANG or AJ/DEG ---
	 ---------------------------------------------------------------------------
	   Coordinate                Previous        Force       Change         New 
	   ----------                --------       ------       ------       ------
	    1 R(1,2)          =      1.091415    -0.000000    -0.000000     1.091415
	    2 R(1,3)          =      1.089275    -0.000000    -0.000000     1.089275
	    3 R(1,4)          =      1.089698    -0.000000    -0.000000     1.089698
	    4 R(1,9)          =      1.525201    -0.000001    -0.000000     1.525200
	    5 R(5,6)          =      1.091038     0.000000     0.000000     1.091038
	    6 R(5,7)          =      1.090418     0.000000     0.000000     1.090419
	    7 R(5,8)          =      1.088238     0.000000     0.000000     1.088238
	    8 R(5,12)         =      1.526719     0.000001     0.000000     1.526719
	    9 R(9,10)         =      1.092349    -0.000001    -0.000000     1.092349
	   10 R(9,11)         =      1.094102    -0.000001    -0.000000     1.094102
	   11 R(9,15)         =      1.526479    -0.000001    -0.000000     1.526479
	   12 R(12,13)        =      1.092341    -0.000001    -0.000000     1.092341
	   13 R(12,14)        =      1.093327    -0.000001    -0.000000     1.093327
	   14 R(12,24)        =      1.533337    -0.000001    -0.000000     1.533337
	   15 R(15,16)        =      1.095090    -0.000000    -0.000000     1.095090
	   16 R(15,17)        =      1.091341    -0.000000    -0.000000     1.091341
	   17 R(15,18)        =      1.528011    -0.000003    -0.000000     1.528010
	   18 R(18,19)        =      1.094991     0.000002     0.000000     1.094991
	   19 R(18,20)        =      1.091734     0.000002     0.000000     1.091734
	   20 R(18,21)        =      1.534182     0.000002     0.000000     1.534183
	   21 R(21,22)        =      1.095056     0.000001     0.000000     1.095056
	   22 R(21,23)        =      1.092653     0.000001     0.000000     1.092653
	   23 R(21,24)        =      1.530899    -0.000001    -0.000000     1.530899
	   24 R(24,25)        =      1.092901    -0.000001    -0.000000     1.092900
	   25 R(24,26)        =      1.095149    -0.000000    -0.000000     1.095149
	   26 B(1,9,10)       =    109.262551     0.000000    -0.000002   109.262549
	   27 B(1,9,11)       =    109.478959     0.000000     0.000006   109.478966
	   28 B(1,9,15)       =    113.323666     0.000000     0.000005   113.323671
	   29 B(2,1,3)        =    107.835918     0.000000     0.000013   107.835931
	   30 B(2,1,4)        =    107.883066     0.000000     0.000000   107.883067
	   31 B(2,1,9)        =    110.623135    -0.000000    -0.000005   110.623130
	   32 B(3,1,4)        =    107.630679     0.000000    -0.000003   107.630676
	   33 B(3,1,9)        =    111.549530    -0.000000    -0.000004   111.549527
	   34 B(4,1,9)        =    111.159184    -0.000000    -0.000001   111.159183
	   35 B(5,12,13)      =    107.822140     0.000000    -0.000016   107.822124
	   36 B(5,12,14)      =    110.381474     0.000000     0.000031   110.381505
	   37 B(5,12,24)      =    114.328721    -0.000000    -0.000014   114.328707
	   38 B(6,5,7)        =    107.757278     0.000000    -0.000005   107.757274
	   39 B(6,5,8)        =    107.606926     0.000000    -0.000004   107.606922
	   40 B(6,5,12)       =    110.101686    -0.000000    -0.000005   110.101682
	   41 B(7,5,8)        =    107.736631     0.000000     0.000006   107.736637
	   42 B(7,5,12)       =    111.078337    -0.000000    -0.000002   111.078335
	   43 B(8,5,12)       =    112.378263    -0.000000     0.000009   112.378272
	   44 B(9,15,16)      =    109.295724     0.000000     0.000025   109.295749
	   45 B(9,15,17)      =    109.203614    -0.000000    -0.000023   109.203591
	   46 B(9,15,18)      =    113.623038    -0.000000    -0.000012   113.623026
	   47 B(10,9,11)      =    106.452253    -0.000000    -0.000007   106.452247
	   48 B(10,9,15)      =    109.075876    -0.000000    -0.000005   109.075871
	   49 B(11,9,15)      =    109.016662    -0.000000     0.000001   109.016662
	   50 B(12,24,21)     =    116.849386    -0.000000    -0.000027   116.849358
	   51 B(12,24,25)     =    108.554107     0.000000     0.000028   108.554135
	   52 B(12,24,26)     =    108.773618     0.000000    -0.000001   108.773617
	   53 B(13,12,14)     =    105.940633    -0.000000    -0.000004   105.940629
	   54 B(13,12,24)     =    108.518474     0.000000    -0.000011   108.518463
	   55 B(14,12,24)     =    109.481811     0.000000     0.000013   109.481824
	   56 B(15,18,19)     =    109.881483    -0.000000    -0.000001   109.881482
	   57 B(15,18,20)     =    108.423183    -0.000000    -0.000025   108.423158
	   58 B(15,18,21)     =    113.589059    -0.000000    -0.000017   113.589042
	   59 B(16,15,17)     =    106.145961    -0.000000    -0.000008   106.145954
	   60 B(16,15,18)     =    108.450985     0.000000     0.000015   108.451000
	   61 B(17,15,18)     =    109.848193     0.000000     0.000004   109.848196
	   62 B(18,21,22)     =    108.849257    -0.000000    -0.000013   108.849244
	   63 B(18,21,23)     =    109.053947    -0.000000    -0.000029   109.053918
	   64 B(18,21,24)     =    116.277873     0.000000     0.000036   116.277910
	   65 B(19,18,20)     =    106.010832     0.000000     0.000025   106.010856
	   66 B(19,18,21)     =    109.647115     0.000000     0.000030   109.647146
	   67 B(20,18,21)     =    108.999201     0.000000    -0.000010   108.999192
	   68 B(21,24,25)     =    107.152388    -0.000000     0.000011   107.152399
	   69 B(21,24,26)     =    108.911237     0.000000    -0.000007   108.911231
	   70 B(22,21,23)     =    106.042810     0.000000    -0.000016   106.042794
	   71 B(22,21,24)     =    108.986065     0.000000     0.000038   108.986103
	   72 B(23,21,24)     =    107.151731    -0.000000    -0.000022   107.151709
	   73 B(25,24,26)     =    106.077642    -0.000000    -0.000001   106.077642
	   74 D(1,9,15,16)    =    -60.145466     0.000000     0.000081   -60.145384
	   75 D(1,9,15,17)    =   -175.863557     0.000000     0.000089  -175.863467
	   76 D(1,9,15,18)    =     61.128312     0.000000     0.000110    61.128422
	   77 D(2,1,9,10)     =    -66.088843     0.000000    -0.000163   -66.089007
	   78 D(2,1,9,11)     =    177.690316     0.000000    -0.000158   177.690157
	   79 D(2,1,9,15)     =     55.760168     0.000000    -0.000167    55.760001
	   80 D(3,1,9,10)     =    173.879556    -0.000000    -0.000174   173.879383
	   81 D(3,1,9,11)     =     57.658715    -0.000000    -0.000168    57.658547
	   82 D(3,1,9,15)     =    -64.271432    -0.000000    -0.000177   -64.271610
	   83 D(4,1,9,10)     =     53.744777    -0.000000    -0.000167    53.744610
	   84 D(4,1,9,11)     =    -62.476064    -0.000000    -0.000161   -62.476225
	   85 D(4,1,9,15)     =    175.593788    -0.000000    -0.000170   175.593618
	   86 D(5,12,24,21)   =    -87.121391    -0.000000     0.000079   -87.121311
	   87 D(5,12,24,25)   =    151.641488     0.000000     0.000062   151.641550
	   88 D(5,12,24,26)   =     36.640814    -0.000000     0.000049    36.640863
	   89 D(6,5,12,13)    =     61.612205    -0.000000     0.000230    61.612435
	   90 D(6,5,12,14)    =    176.901908     0.000000     0.000233   176.902141
	   91 D(6,5,12,24)    =    -59.150737     0.000000     0.000264   -59.150473
	   92 D(7,5,12,13)    =    -57.670491    -0.000000     0.000240   -57.670250
	   93 D(7,5,12,14)    =     57.619212     0.000000     0.000243    57.619456
	   94 D(7,5,12,24)    =   -178.433433     0.000000     0.000274  -178.433159
	   95 D(8,5,12,13)    =   -178.452344    -0.000000     0.000228  -178.452116
	   96 D(8,5,12,14)    =    -63.162640     0.000000     0.000231   -63.162410
	   97 D(8,5,12,24)    =     60.784714     0.000000     0.000262    60.784976
	   98 D(9,15,18,19)   =     47.442080    -0.000000    -0.000197    47.441883
	   99 D(9,15,18,20)   =    -68.000427    -0.000000    -0.000211   -68.000639
	  100 D(9,15,18,21)   =    170.675133    -0.000000    -0.000170   170.674963
	  101 D(10,9,15,16)   =     61.807799     0.000000     0.000080    61.807878
	  102 D(10,9,15,17)   =    -53.910292     0.000000     0.000087   -53.910205
	  103 D(10,9,15,18)   =   -176.918424     0.000000     0.000109  -176.918315
	  104 D(11,9,15,16)   =    177.666648    -0.000000     0.000069   177.666718
	  105 D(11,9,15,17)   =     61.948557    -0.000000     0.000077    61.948635
	  106 D(11,9,15,18)   =    -61.059574    -0.000000     0.000098   -61.059476
	  107 D(12,24,21,18)  =     62.023810     0.000000     0.000030    62.023840
	  108 D(12,24,21,22)  =    -61.406519    -0.000000    -0.000011   -61.406531
	  109 D(12,24,21,23)  =   -175.739733    -0.000000    -0.000000  -175.739733
	  110 D(13,12,24,21)  =    152.502586     0.000000     0.000116   152.502702
	  111 D(13,12,24,25)  =     31.265465     0.000000     0.000099    31.265564
	  112 D(13,12,24,26)  =    -83.735209    -0.000000     0.000086   -83.735123
	  113 D(14,12,24,21)  =     37.306238     0.000000     0.000120    37.306358
	  114 D(14,12,24,25)  =    -83.930883     0.000000     0.000103   -83.930781
	  115 D(14,12,24,26)  =    161.068443    -0.000000     0.000089   161.068532
	  116 D(15,18,21,22)  =     31.457242     0.000000    -0.000056    31.457186
	  117 D(15,18,21,23)  =    146.725122    -0.000000    -0.000098   146.725024
	  118 D(15,18,21,24)  =    -92.044017    -0.000000    -0.000124   -92.044142
	  119 D(16,15,18,19)  =    169.186937    -0.000000    -0.000162   169.186775
	  120 D(16,15,18,20)  =     53.744430    -0.000000    -0.000177    53.744253
	  121 D(16,15,18,21)  =    -67.580010    -0.000000    -0.000136   -67.580145
	  122 D(17,15,18,19)  =    -75.211775     0.000000    -0.000161   -75.211936
	  123 D(17,15,18,20)  =    169.345718     0.000000    -0.000176   169.345542
	  124 D(17,15,18,21)  =     48.021278     0.000000    -0.000134    48.021143
	  125 D(18,21,24,25)  =   -176.005287     0.000000     0.000057  -176.005231
	  126 D(18,21,24,26)  =    -61.668049     0.000000     0.000058   -61.667991
	  127 D(19,18,21,22)  =    154.818510     0.000000    -0.000047   154.818463
	  128 D(19,18,21,23)  =    -89.913610    -0.000000    -0.000088   -89.913698
	  129 D(19,18,21,24)  =     31.317251    -0.000000    -0.000115    31.317136
	  130 D(20,18,21,22)  =    -89.544584     0.000000    -0.000006   -89.544591
	  131 D(20,18,21,23)  =     25.723296     0.000000    -0.000048    25.723248
	  132 D(20,18,21,24)  =    146.954156     0.000000    -0.000074   146.954082
	  133 D(22,21,24,25)  =     60.564384     0.000000     0.000015    60.564399
	  134 D(22,21,24,26)  =    174.901622    -0.000000     0.000017   174.901639
	  135 D(23,21,24,25)  =    -53.768830     0.000000     0.000026   -53.768804
	  136 D(23,21,24,26)  =     60.568408    -0.000000     0.000028    60.568436
	  137 R(5,15)         =      3.463373     0.000001     0.000001     3.463374
	  138 R(5,18)         =      3.394495    -0.000001    -0.000001     3.394494
	  139 R(12,15)        =      3.461323     0.000001     0.000002     3.461325
	 ---------------------------------------------------------------------------

  ==> Convergence Check <==

  Measures of convergence in internal coordinates in au.
  Criteria marked as inactive (o), active & met (*), and active & unmet ( ).
  ---------------------------------------------------------------------------------------------
   Step     Total Energy     Delta E     MAX Force     RMS Force      MAX Disp      RMS Disp   
  ---------------------------------------------------------------------------------------------
    Convergence Criteria             o    2.00e-06 *    1.00e-06 *    6.00e-06 *    4.00e-06 *
  ---------------------------------------------------------------------------------------------
     20    -314.97781072    2.68e-09 o    3.65e-07 *    7.27e-08 *    4.79e-06 *    1.74e-06 *  ~
  ---------------------------------------------------------------------------------------------


  **** Optimization is complete! (in 20 steps) ****

  ==> Optimization Summary <==

  Measures of convergence in internal coordinates in au.
  --------------------------------------------------------------------------------------------------------------- ~
   Step         Total Energy             Delta E       MAX Force       RMS Force        MAX Disp        RMS Disp  ~
  --------------------------------------------------------------------------------------------------------------- ~
      1    -314.977810721952   -314.977810721952      0.00000168      0.00000039      0.00005310      0.00001713  ~
      2    -314.977810720270      0.000000001682      0.00000111      0.00000028      0.00004922      0.00001525  ~
      3    -314.977810725333     -0.000000005064      0.00000284      0.00000053      0.00004639      0.00001398  ~
      4    -314.977810728074     -0.000000002741      0.00000101      0.00000026      0.00002088      0.00000581  ~
      5    -314.977810723895      0.000000004179      0.00000197      0.00000048      0.00009785      0.00002877  ~
      6    -314.977810724772     -0.000000000877      0.00000535      0.00000109      0.00009648      0.00002883  ~
      7    -314.977810725690     -0.000000000918      0.00000156      0.00000029      0.00001336      0.00000414  ~
      8    -314.977810725792     -0.000000000102      0.00000073      0.00000020      0.00001343      0.00000295  ~
      9    -314.977810723916      0.000000001876      0.00000173      0.00000043      0.00001221      0.00000411  ~
     10    -314.977810728496     -0.000000004580      0.00000098      0.00000020      0.00001313      0.00000425  ~
     11    -314.977810728354      0.000000000142      0.00000212      0.00000048      0.00006349      0.00002482  ~
     12    -314.977810722112      0.000000006242      0.00000454      0.00000114      0.00006693      0.00002430  ~
     13    -314.977810724527     -0.000000002415      0.00000096      0.00000025      0.00000850      0.00000218  ~
     14    -314.977810724391      0.000000000136      0.00000044      0.00000013      0.00001154      0.00000316  ~
     15    -314.977810727294     -0.000000002902      0.00000053      0.00000011      0.00001336      0.00000369  ~
     16    -314.977810726541      0.000000000753      0.00000096      0.00000019      0.00001160      0.00000353  ~
     17    -314.977810723740      0.000000002801      0.00000163      0.00000031      0.00003070      0.00000756  ~
     18    -314.977810724794     -0.000000001054      0.00000184      0.00000043      0.00001445      0.00000498  ~
     19    -314.977810724498      0.000000000296      0.00000177      0.00000031      0.00001334      0.00000366  ~
     20    -314.977810721817      0.000000002680      0.00000036      0.00000007      0.00000479      0.00000174  ~
  --------------------------------------------------------------------------------------------------------------- ~

	Writing optimization data to binary file.
	Final energy is   -314.9778107218175
	Final (previous) structure:
	Cartesian Geometry (in Angstrom)
	    C    -3.3753565865   0.0473303743   0.3438254201
	    H    -3.7131224514   0.7581808228  -0.4123448567
	    H    -3.0751048768   0.6142155461   1.2241714803
	    H    -4.2266967582  -0.5721551528   0.6247156785
	    C     1.7205978677  -1.7541481347   0.3772309262
	    H     2.1776098687  -1.8144357902   1.3661035569
	    H     1.8802469832  -2.7104529096  -0.1217739122
	    H     0.6487770016  -1.6280404780   0.5170816675
	    C    -2.2287027494  -0.8033211386  -0.1926571705
	    H    -2.5976978453  -1.4354638489  -1.0034989221
	    H    -1.8778798776  -1.4797376211   0.5924813383
	    C     2.3416137210  -0.6089785793  -0.4188826513
	    H     3.4059891291  -0.8235351579  -0.5383761752
	    H     1.9260704905  -0.5787147112  -1.4297098579
	    C    -1.0498877380   0.0226224775  -0.7009388021
	    H    -1.3874387922   0.6717391186  -1.5157566282
	    H    -0.3038012032  -0.6455539656  -1.1344374519
	    C    -0.4033716644   0.8937464847   0.3751542523
	    H    -0.2313348851   0.3015337405   1.2799703195
	    H    -1.1110233853   1.6757890545   0.6571486130
	    C     0.9110075721   1.5469073811  -0.0715030911
	    H     0.8617950586   1.7406858559  -1.1481530377
	    H     1.0042247903   2.5246189487   0.4073301391
	    C     2.1932193947   0.7692711327   0.2365017326
	    H     3.0327780952   1.3952290244  -0.0761479065
	    H     2.2873376866   0.6555059746   1.3216517233
	Saving final (previous) structure.
			--------------------------
			 OPTKING Finished Execution 
			--------------------------

    Final optimized geometry and variables:
    Molecular point group: c1
    Full point group: C1

    Geometry (in Angstrom), charge = 0, multiplicity = 1:

    C           -3.375356586545     0.047330374292     0.343825420089
    H           -3.713122451377     0.758180822768    -0.412344856669
    H           -3.075104876772     0.614215546137     1.224171480329
    H           -4.226696758191    -0.572155152778     0.624715678545
    C            1.720597867747    -1.754148134653     0.377230926224
    H            2.177609868718    -1.814435790218     1.366103556896
    H            1.880246983209    -2.710452909580    -0.121773912240
    H            0.648777001594    -1.628040477973     0.517081667504
    C           -2.228702749391    -0.803321138646    -0.192657170515
    H           -2.597697845339    -1.435463848887    -1.003498922146
    H           -1.877879877560    -1.479737621069     0.592481338266
    C            2.341613721037    -0.608978579323    -0.418882651251
    H            3.405989129134    -0.823535157868    -0.538376175203
    H            1.926070490507    -0.578714711199    -1.429709857928
    C           -1.049887737958     0.022622477491    -0.700938802069
    H           -1.387438792233     0.671739118578    -1.515756628186
    H           -0.303801203225    -0.645553965562    -1.134437451930
    C           -0.403371664372     0.893746484686     0.375154252338
    H           -0.231334885073     0.301533740501     1.279970319461
    H           -1.111023385269     1.675789054534     0.657148612979
    C            0.911007572101     1.546907381101    -0.071503091101
    H            0.861795058581     1.740685855908    -1.148153037669
    H            1.004224790337     2.524618948667     0.407330139126
    C            2.193219394729     0.769271132651     0.236501732624
    H            3.032778095233     1.395229024414    -0.076147906471
    H            2.287337686564     0.655505974623     1.321651723294

	Cleaning optimization helper files.

*** Psi4 exiting successfully. Buy a developer a beer!
