    -----------------------------------------------------------------------
          Psi4: An Open-Source Ab Initio Electronic Structure Package
                              Psi4 1.0.0 Driver

                          Git: Rev {master} 6a9a71b dirty

    J. M. Turney, A. C. Simmonett, R. M. Parrish, E. G. Hohenstein,
    F. A. Evangelista, J. T. Fermann, B. J. Mintz, L. A. Burns, J. J. Wilke,
    M. L. Abrams, N. J. Russ, M. L. Leininger, C. L. Janssen, E. T. Seidl,
    W. D. Allen, H. F. Schaefer, R. A. King, E. F. Valeev, C. D. Sherrill,
    and T. D. Crawford, WIREs Comput. Mol. Sci. 2, 556-565 (2012)
    (doi: 10.1002/wcms.93)

                         Additional Contributions by
    A. E. DePrince, U. Bozkaya, A. Yu. Sokolov, D. G. A. Smith, R. Di Remigio,
    R. M. Richard, J. F. Gonthier, H. R. McAlexander, M. Saitow, and
    B. P. Pritchard
    -----------------------------------------------------------------------


    Psi4 started on: Tue Sep 20 23:27:51 2016

    Process ID:  19221
    PSI4DATADIR: /usr/local/hpc5/psi4conda/share/psi4
    Memory level set to 256.000 MB

  ==> Input File <==

--------------------------------------------------------------------------
memory 60 Gb

molecule molecule_60_psi {
0 1
C            3.094450501163     0.073846059852     0.562397877193
H            3.737595859423     0.640190442066     1.235507991744
H            3.702789760097    -0.263477521783    -0.278749294266
H            2.751231448808    -0.809382077170     1.100572896490
C           -2.026171095696     1.569763500245     0.355407095301
H           -2.375287296040     2.455545477845    -0.175202307555
H           -0.961357120080     1.698517356530     0.547444576526
H           -2.535189742192     1.534901623660     1.320256252015
C            1.924322318247     0.922978126947     0.078155771258
H            2.304134129509     1.859288355788    -0.337039814607
H            1.303372681390     1.203153625946     0.932149148373
C           -2.304980216326     0.301465164081    -0.442913234218
H           -3.371661773268     0.252673602222    -0.674427974336
H           -1.789542002704     0.343546523960    -1.404955640314
C            1.074334432055     0.233752264646    -0.989899605480
H            1.695973265835     0.084159904608    -1.878224464314
H            0.268065331605     0.905391152910    -1.289744268136
C            0.505280134179    -1.125569314983    -0.571544602288
H            1.342970414301    -1.797485653429    -0.374001321857
H           -0.029592872891    -1.561422401881    -1.421211215206
C           -0.429422908210    -1.110979358279     0.646257831736
H           -0.307912568806    -2.046948868050     1.196394565293
H           -0.133215944886    -0.321123207793     1.340189458067
C           -1.913501239207    -0.974857290096     0.298758633409
H           -2.203008880280    -1.838968689953    -0.306438322203
H           -2.498159761758    -1.033561129671     1.222137311614
}

set globals {
  reference rhf
  g_convergence gau_verytight
  basis aug-cc-pvtz
  freeze_core true
  scf_type df
  mp_type df
}
optimize('mp2')
--------------------------------------------------------------------------
/usr/local/hpc5/psi4conda/lib/python2.7/site-packages/v2rdm_casscf/v2rdm_casscf.so loaded.

  Memory set to  60.000 GiB by Python script.
gradient() will perform analytic gradient computation.

*** tstart() called on wr24
*** at Tue Sep 20 23:27:52 2016


         ---------------------------------------------------------
                                   SCF
            by Justin Turney, Rob Parrish, and Andy Simmonett
                              RHF Reference
                       12 Threads,  60000 MiB Core
         ---------------------------------------------------------

  ==> Geometry <==

    Molecular point group: c1
    Full point group: C1

    Geometry (in Angstrom), charge = 0, multiplicity = 1:

       Center              X                  Y                   Z               Mass       
    ------------   -----------------  -----------------  -----------------  -----------------
           C          3.094450501163     0.073846059852     0.562397877193    12.000000000000
           H          3.737595859423     0.640190442066     1.235507991744     1.007825032070
           H          3.702789760097    -0.263477521783    -0.278749294266     1.007825032070
           H          2.751231448808    -0.809382077170     1.100572896490     1.007825032070
           C         -2.026171095696     1.569763500245     0.355407095301    12.000000000000
           H         -2.375287296040     2.455545477845    -0.175202307555     1.007825032070
           H         -0.961357120080     1.698517356530     0.547444576526     1.007825032070
           H         -2.535189742192     1.534901623660     1.320256252015     1.007825032070
           C          1.924322318247     0.922978126947     0.078155771258    12.000000000000
           H          2.304134129509     1.859288355788    -0.337039814607     1.007825032070
           H          1.303372681390     1.203153625946     0.932149148373     1.007825032070
           C         -2.304980216326     0.301465164081    -0.442913234218    12.000000000000
           H         -3.371661773268     0.252673602222    -0.674427974336     1.007825032070
           H         -1.789542002704     0.343546523960    -1.404955640314     1.007825032070
           C          1.074334432055     0.233752264646    -0.989899605480    12.000000000000
           H          1.695973265835     0.084159904608    -1.878224464314     1.007825032070
           H          0.268065331605     0.905391152910    -1.289744268136     1.007825032070
           C          0.505280134179    -1.125569314983    -0.571544602288    12.000000000000
           H          1.342970414301    -1.797485653429    -0.374001321857     1.007825032070
           H         -0.029592872891    -1.561422401881    -1.421211215206     1.007825032070
           C         -0.429422908210    -1.110979358279     0.646257831736    12.000000000000
           H         -0.307912568806    -2.046948868050     1.196394565293     1.007825032070
           H         -0.133215944886    -0.321123207793     1.340189458067     1.007825032070
           C         -1.913501239207    -0.974857290096     0.298758633409    12.000000000000
           H         -2.203008880280    -1.838968689953    -0.306438322203     1.007825032070
           H         -2.498159761758    -1.033561129671     1.222137311614     1.007825032070

  Running in c1 symmetry.

  Rotational constants: A =      0.10147  B =      0.03571  C =      0.03134 [cm^-1]
  Rotational constants: A =   3042.08338  B =   1070.70595  C =    939.54781 [MHz]
  Nuclear repulsion =  409.296423829299954

  Charge       = 0
  Multiplicity = 1
  Electrons    = 66
  Nalpha       = 33
  Nbeta        = 33

  ==> Algorithm <==

  SCF Algorithm Type is DF.
  DIIS enabled.
  MOM disabled.
  Fractional occupation disabled.
  Guess Type is SAD.
  Energy threshold   = 1.00e-10
  Density threshold  = 1.00e-10
  Integral threshold = 0.00e+00

  ==> Primary Basis <==

  Basis Set: AUG-CC-PVTZ
    Number of shells: 274
    Number of basis function: 782
    Number of Cartesian functions: 890
    Spherical Harmonics?: true
    Max angular momentum: 3

  ==> Pre-Iterations <==

   -------------------------------------------------------
    Irrep   Nso     Nmo     Nalpha   Nbeta   Ndocc  Nsocc
   -------------------------------------------------------
     A        782     782       0       0       0       0
   -------------------------------------------------------
    Total     782     782      33      33      33       0
   -------------------------------------------------------

  ==> Integral Setup <==

  ==> DFJK: Density-Fitted J/K Matrices <==

    J tasked:                  Yes
    K tasked:                  Yes
    wK tasked:                  No
    OpenMP threads:             12
    Integrals threads:          12
    Memory (MB):             42915
    Algorithm:                Core
    Integral Cache:           NONE
    Schwarz Cutoff:          1E-12
    Fitting Condition:       1E-12

   => Auxiliary Basis Set <=

  Basis Set: 
    Number of shells: 492
    Number of basis function: 1660
    Number of Cartesian functions: 2038
    Spherical Harmonics?: true
    Max angular momentum: 4

  Minimum eigenvalue in the overlap matrix is 1.5564747252E-06.
  Using Symmetric Orthogonalization.
  SCF Guess: Superposition of Atomic Densities via on-the-fly atomic UHF.

  ==> Iterations <==

                           Total Energy        Delta E     RMS |[F,P]|

   @DF-RHF iter   0:  -317.08607384308294   -3.17086e+02   7.08135e-03 
   @DF-RHF iter   1:  -313.31143106523706    3.77464e+00   6.51354e-04 
   @DF-RHF iter   2:  -313.50659415011370   -1.95163e-01   2.22684e-04 DIIS
   @DF-RHF iter   3:  -313.52964864820177   -2.30545e-02   9.50738e-05 DIIS
   @DF-RHF iter   4:  -313.53384488927367   -4.19624e-03   1.42920e-05 DIIS
   @DF-RHF iter   5:  -313.53398495960272   -1.40070e-04   3.97275e-06 DIIS
   @DF-RHF iter   6:  -313.53399372876169   -8.76916e-06   1.21183e-06 DIIS
   @DF-RHF iter   7:  -313.53399444123301   -7.12471e-07   2.28790e-07 DIIS
   @DF-RHF iter   8:  -313.53399447874466   -3.75117e-08   6.53380e-08 DIIS
   @DF-RHF iter   9:  -313.53399448149179   -2.74713e-09   2.00465e-08 DIIS
   @DF-RHF iter  10:  -313.53399448177225   -2.80465e-10   5.70846e-09 DIIS
   @DF-RHF iter  11:  -313.53399448179374   -2.14868e-11   1.33645e-09 DIIS
   @DF-RHF iter  12:  -313.53399448179613   -2.38742e-12   3.59641e-10 DIIS
   @DF-RHF iter  13:  -313.53399448179511    1.02318e-12   1.13165e-10 DIIS
   @DF-RHF iter  14:  -313.53399448179579   -6.82121e-13   3.02649e-11 DIIS

  ==> Post-Iterations <==

    Orbital Energies (a.u.)
    -----------------------

    Doubly Occupied:                                                      

       1A    -11.212873     2A    -11.212134     3A    -11.210783  
       4A    -11.210526     5A    -11.209922     6A    -11.209178  
       7A    -11.207075     8A    -11.206550     9A     -1.094682  
      10A     -1.057994    11A     -1.003829    12A     -0.948983  
      13A     -0.888899    14A     -0.844157    15A     -0.779847  
      16A     -0.743034    17A     -0.650005    18A     -0.640257  
      19A     -0.607247    20A     -0.597788    21A     -0.569910  
      22A     -0.554306    23A     -0.548009    24A     -0.538682  
      25A     -0.513745    26A     -0.507911    27A     -0.487318  
      28A     -0.477354    29A     -0.462754    30A     -0.460511  
      31A     -0.441588    32A     -0.436150    33A     -0.433960  

    Virtual:                                                              

      34A      0.029791    35A      0.033583    36A      0.033856  
      37A      0.034850    38A      0.046626    39A      0.048335  
      40A      0.050931    41A      0.053333    42A      0.053906  
      43A      0.068471    44A      0.072091    45A      0.073847  
      46A      0.074781    47A      0.076475    48A      0.081699  
      49A      0.087503    50A      0.095696    51A      0.101128  
      52A      0.115186    53A      0.117889    54A      0.121626  
      55A      0.126948    56A      0.130768    57A      0.132077  
      58A      0.133963    59A      0.137041    60A      0.138148  
      61A      0.139203    62A      0.148185    63A      0.149004  
      64A      0.151156    65A      0.154358    66A      0.161604  
      67A      0.167571    68A      0.170944    69A      0.174373  
      70A      0.176705    71A      0.179421    72A      0.183768  
      73A      0.187114    74A      0.189081    75A      0.196700  
      76A      0.200897    77A      0.207897    78A      0.209300  
      79A      0.220430    80A      0.235893    81A      0.237825  
      82A      0.249293    83A      0.255330    84A      0.263770  
      85A      0.270604    86A      0.278484    87A      0.279275  
      88A      0.289967    89A      0.292928    90A      0.296654  
      91A      0.300885    92A      0.308875    93A      0.310391  
      94A      0.316753    95A      0.319469    96A      0.320835  
      97A      0.324136    98A      0.328736    99A      0.333329  
     100A      0.341615   101A      0.342498   102A      0.345362  
     103A      0.348188   104A      0.353323   105A      0.360072  
     106A      0.364395   107A      0.367735   108A      0.369964  
     109A      0.371687   110A      0.375530   111A      0.379789  
     112A      0.380957   113A      0.383236   114A      0.389649  
     115A      0.391034   116A      0.397518   117A      0.401317  
     118A      0.405132   119A      0.414119   120A      0.420437  
     121A      0.423238   122A      0.426093   123A      0.430005  
     124A      0.431904   125A      0.439313   126A      0.444363  
     127A      0.449326   128A      0.454190   129A      0.459402  
     130A      0.461085   131A      0.462911   132A      0.464728  
     133A      0.472218   134A      0.473219   135A      0.478347  
     136A      0.479840   137A      0.480291   138A      0.484323  
     139A      0.492077   140A      0.496463   141A      0.497353  
     142A      0.502578   143A      0.507027   144A      0.510797  
     145A      0.517295   146A      0.518450   147A      0.525793  
     148A      0.530239   149A      0.531317   150A      0.537655  
     151A      0.542969   152A      0.543848   153A      0.551681  
     154A      0.557290   155A      0.563333   156A      0.565289  
     157A      0.571790   158A      0.572420   159A      0.579069  
     160A      0.583539   161A      0.584191   162A      0.589423  
     163A      0.596733   164A      0.602352   165A      0.604702  
     166A      0.609860   167A      0.615394   168A      0.617454  
     169A      0.622203   170A      0.628278   171A      0.631606  
     172A      0.635585   173A      0.640600   174A      0.646301  
     175A      0.649843   176A      0.657337   177A      0.659490  
     178A      0.672516   179A      0.680229   180A      0.683534  
     181A      0.684243   182A      0.686279   183A      0.695738  
     184A      0.702250   185A      0.703279   186A      0.707966  
     187A      0.709359   188A      0.716602   189A      0.725624  
     190A      0.728220   191A      0.736912   192A      0.742238  
     193A      0.744485   194A      0.751110   195A      0.758401  
     196A      0.765517   197A      0.774853   198A      0.775194  
     199A      0.778137   200A      0.786678   201A      0.801643  
     202A      0.813313   203A      0.821688   204A      0.824081  
     205A      0.828531   206A      0.839627   207A      0.852514  
     208A      0.854556   209A      0.857184   210A      0.871211  
     211A      0.875233   212A      0.880246   213A      0.885054  
     214A      0.890875   215A      0.893528   216A      0.906610  
     217A      0.908708   218A      0.913041   219A      0.917898  
     220A      0.923326   221A      0.925768   222A      0.929906  
     223A      0.932323   224A      0.942699   225A      0.945130  
     226A      0.953055   227A      0.955974   228A      0.963901  
     229A      0.967433   230A      0.968386   231A      0.979080  
     232A      0.983301   233A      0.990258   234A      0.992154  
     235A      1.001988   236A      1.007026   237A      1.008431  
     238A      1.011788   239A      1.013744   240A      1.019369  
     241A      1.025382   242A      1.032556   243A      1.039777  
     244A      1.043362   245A      1.045092   246A      1.052756  
     247A      1.058708   248A      1.062516   249A      1.071244  
     250A      1.075827   251A      1.084651   252A      1.088627  
     253A      1.094109   254A      1.103241   255A      1.107356  
     256A      1.109648   257A      1.116072   258A      1.120487  
     259A      1.127563   260A      1.139189   261A      1.140705  
     262A      1.144688   263A      1.148685   264A      1.152836  
     265A      1.154436   266A      1.161303   267A      1.165718  
     268A      1.176719   269A      1.185376   270A      1.188782  
     271A      1.194764   272A      1.202119   273A      1.204625  
     274A      1.212392   275A      1.217046   276A      1.222414  
     277A      1.224873   278A      1.234855   279A      1.238058  
     280A      1.243540   281A      1.247622   282A      1.251669  
     283A      1.256581   284A      1.265107   285A      1.272485  
     286A      1.273406   287A      1.278990   288A      1.284484  
     289A      1.288409   290A      1.294417   291A      1.295789  
     292A      1.307192   293A      1.313481   294A      1.318176  
     295A      1.320954   296A      1.330922   297A      1.333706  
     298A      1.347555   299A      1.349869   300A      1.356374  
     301A      1.362854   302A      1.368875   303A      1.378366  
     304A      1.387944   305A      1.391440   306A      1.397946  
     307A      1.402002   308A      1.419098   309A      1.424876  
     310A      1.428758   311A      1.432575   312A      1.442580  
     313A      1.445671   314A      1.450180   315A      1.459427  
     316A      1.466093   317A      1.476164   318A      1.484747  
     319A      1.492018   320A      1.501548   321A      1.504727  
     322A      1.510915   323A      1.518017   324A      1.528925  
     325A      1.535117   326A      1.543638   327A      1.544725  
     328A      1.552952   329A      1.558811   330A      1.572884  
     331A      1.575071   332A      1.578257   333A      1.585598  
     334A      1.595727   335A      1.600791   336A      1.605414  
     337A      1.617753   338A      1.623930   339A      1.627920  
     340A      1.636077   341A      1.646272   342A      1.650427  
     343A      1.658201   344A      1.658986   345A      1.669205  
     346A      1.674479   347A      1.678704   348A      1.686963  
     349A      1.694280   350A      1.697804   351A      1.705880  
     352A      1.711567   353A      1.718728   354A      1.727016  
     355A      1.735263   356A      1.742523   357A      1.744526  
     358A      1.752036   359A      1.761255   360A      1.773936  
     361A      1.779605   362A      1.792200   363A      1.800386  
     364A      1.806629   365A      1.808884   366A      1.819577  
     367A      1.822671   368A      1.828246   369A      1.831303  
     370A      1.835324   371A      1.838168   372A      1.844577  
     373A      1.855989   374A      1.860355   375A      1.861131  
     376A      1.867418   377A      1.869611   378A      1.875067  
     379A      1.880901   380A      1.896338   381A      1.896771  
     382A      1.899940   383A      1.911312   384A      1.917124  
     385A      1.933603   386A      1.936761   387A      1.937779  
     388A      1.940642   389A      1.952895   390A      1.960286  
     391A      1.966458   392A      1.977809   393A      1.981047  
     394A      1.987871   395A      1.995003   396A      1.999938  
     397A      2.008867   398A      2.012067   399A      2.018644  
     400A      2.024252   401A      2.027900   402A      2.043401  
     403A      2.053289   404A      2.057818   405A      2.064850  
     406A      2.067298   407A      2.080164   408A      2.086221  
     409A      2.087373   410A      2.097260   411A      2.104215  
     412A      2.109555   413A      2.115552   414A      2.116818  
     415A      2.123037   416A      2.135019   417A      2.143598  
     418A      2.151261   419A      2.159420   420A      2.162811  
     421A      2.174985   422A      2.184426   423A      2.201754  
     424A      2.213677   425A      2.218738   426A      2.223791  
     427A      2.233258   428A      2.240789   429A      2.247895  
     430A      2.260595   431A      2.269911   432A      2.279810  
     433A      2.289423   434A      2.297492   435A      2.303688  
     436A      2.309181   437A      2.318679   438A      2.327648  
     439A      2.331454   440A      2.336365   441A      2.347740  
     442A      2.354098   443A      2.373114   444A      2.391614  
     445A      2.397468   446A      2.398536   447A      2.408734  
     448A      2.417969   449A      2.425829   450A      2.430994  
     451A      2.437313   452A      2.446562   453A      2.453973  
     454A      2.472472   455A      2.475818   456A      2.484109  
     457A      2.500468   458A      2.509292   459A      2.517148  
     460A      2.542831   461A      2.545275   462A      2.553183  
     463A      2.564795   464A      2.568624   465A      2.575163  
     466A      2.589160   467A      2.597416   468A      2.630806  
     469A      2.638960   470A      2.644150   471A      2.649176  
     472A      2.659775   473A      2.664337   474A      2.680215  
     475A      2.692537   476A      2.705230   477A      2.712418  
     478A      2.719946   479A      2.741076   480A      2.750544  
     481A      2.792255   482A      2.807402   483A      2.821976  
     484A      2.889566   485A      2.962704   486A      2.991084  
     487A      3.031473   488A      3.064653   489A      3.092728  
     490A      3.152913   491A      3.242875   492A      3.268007  
     493A      3.299321   494A      3.359154   495A      3.364382  
     496A      3.392625   497A      3.404270   498A      3.436187  
     499A      3.459724   500A      3.480906   501A      3.485696  
     502A      3.515040   503A      3.519658   504A      3.530215  
     505A      3.564897   506A      3.570214   507A      3.584137  
     508A      3.605253   509A      3.612698   510A      3.623030  
     511A      3.627097   512A      3.649262   513A      3.657700  
     514A      3.666640   515A      3.676494   516A      3.687755  
     517A      3.693285   518A      3.703732   519A      3.708212  
     520A      3.727260   521A      3.731879   522A      3.741927  
     523A      3.755992   524A      3.768147   525A      3.771586  
     526A      3.774137   527A      3.785362   528A      3.789683  
     529A      3.802596   530A      3.815077   531A      3.823488  
     532A      3.838213   533A      3.842417   534A      3.847009  
     535A      3.850776   536A      3.865332   537A      3.870495  
     538A      3.876969   539A      3.887645   540A      3.891523  
     541A      3.904217   542A      3.906818   543A      3.920082  
     544A      3.924511   545A      3.934831   546A      3.950925  
     547A      3.954807   548A      3.963228   549A      3.969956  
     550A      3.978239   551A      3.986518   552A      3.998623  
     553A      4.004042   554A      4.012646   555A      4.017843  
     556A      4.025195   557A      4.033022   558A      4.038167  
     559A      4.044127   560A      4.053060   561A      4.060738  
     562A      4.061953   563A      4.068492   564A      4.070906  
     565A      4.081298   566A      4.088524   567A      4.100023  
     568A      4.110237   569A      4.117880   570A      4.133284  
     571A      4.137034   572A      4.143358   573A      4.155826  
     574A      4.160198   575A      4.167756   576A      4.173501  
     577A      4.182569   578A      4.189191   579A      4.193971  
     580A      4.201792   581A      4.218516   582A      4.222646  
     583A      4.231925   584A      4.239232   585A      4.257192  
     586A      4.257729   587A      4.260560   588A      4.270013  
     589A      4.278901   590A      4.290352   591A      4.295609  
     592A      4.302668   593A      4.309486   594A      4.324623  
     595A      4.341010   596A      4.347143   597A      4.360839  
     598A      4.367194   599A      4.380385   600A      4.399268  
     601A      4.408424   602A      4.415456   603A      4.422348  
     604A      4.443532   605A      4.448356   606A      4.459408  
     607A      4.473582   608A      4.479626   609A      4.485336  
     610A      4.495942   611A      4.507284   612A      4.523612  
     613A      4.538629   614A      4.544714   615A      4.560420  
     616A      4.562817   617A      4.602829   618A      4.611535  
     619A      4.632360   620A      4.646697   621A      4.650461  
     622A      4.659096   623A      4.668689   624A      4.680098  
     625A      4.697220   626A      4.711403   627A      4.715386  
     628A      4.727493   629A      4.741121   630A      4.744764  
     631A      4.757163   632A      4.767627   633A      4.772333  
     634A      4.784338   635A      4.815035   636A      4.820032  
     637A      4.823664   638A      4.832558   639A      4.848371  
     640A      4.856445   641A      4.859865   642A      4.867098  
     643A      4.885672   644A      4.901682   645A      4.903800  
     646A      4.908422   647A      4.932749   648A      4.940759  
     649A      4.955388   650A      4.965941   651A      4.973135  
     652A      4.982505   653A      4.993370   654A      5.007519  
     655A      5.017959   656A      5.022677   657A      5.039843  
     658A      5.043231   659A      5.068362   660A      5.075064  
     661A      5.086939   662A      5.124579   663A      5.145666  
     664A      5.152464   665A      5.167778   666A      5.173014  
     667A      5.183171   668A      5.188912   669A      5.195964  
     670A      5.212596   671A      5.225639   672A      5.230415  
     673A      5.239551   674A      5.252080   675A      5.267051  
     676A      5.277633   677A      5.282476   678A      5.294333  
     679A      5.295621   680A      5.311338   681A      5.334328  
     682A      5.355688   683A      5.366127   684A      5.370024  
     685A      5.382154   686A      5.384811   687A      5.389862  
     688A      5.398312   689A      5.415063   690A      5.427531  
     691A      5.435435   692A      5.445734   693A      5.450730  
     694A      5.461947   695A      5.470619   696A      5.478412  
     697A      5.496409   698A      5.497611   699A      5.502993  
     700A      5.531195   701A      5.542547   702A      5.550835  
     703A      5.561361   704A      5.586482   705A      5.593185  
     706A      5.596290   707A      5.625277   708A      5.634848  
     709A      5.651684   710A      5.664717   711A      5.671035  
     712A      5.677997   713A      5.692480   714A      5.698064  
     715A      5.707625   716A      5.725059   717A      5.729612  
     718A      5.742962   719A      5.757990   720A      5.763101  
     721A      5.766725   722A      5.784158   723A      5.794702  
     724A      5.805689   725A      5.824070   726A      5.843771  
     727A      5.875491   728A      5.881208   729A      5.909073  
     730A      5.916168   731A      5.943532   732A      5.960038  
     733A      5.980874   734A      6.008399   735A      6.011539  
     736A      6.055883   737A      6.073281   738A      6.086868  
     739A      6.104386   740A      6.120327   741A      6.136509  
     742A      6.162017   743A      6.181085   744A      6.208139  
     745A      6.230320   746A      6.251600   747A      6.270660  
     748A      6.286904   749A      6.310736   750A      6.325306  
     751A      6.335374   752A      6.369079   753A      6.380973  
     754A      6.390336   755A      6.412212   756A      6.439493  
     757A      6.476760   758A      6.488783   759A      6.596932  
     760A      6.615767   761A      6.678799   762A      6.714241  
     763A      6.739140   764A      6.800034   765A      6.841093  
     766A      6.899637   767A      6.929594   768A      6.956290  
     769A      7.009426   770A      7.062867   771A      7.066073  
     772A      7.122506   773A      7.164424   774A      7.186802  
     775A     18.068176   776A     18.218577   777A     18.341278  
     778A     18.499721   779A     18.843513   780A     19.272837  
     781A     19.819693   782A     19.864359  

    Final Occupation by Irrep:
              A 
    DOCC [    33 ]

  Energy converged.

  @DF-RHF Final Energy:  -313.53399448179579

   => Energetics <=

    Nuclear Repulsion Energy =            409.2964238292999539
    One-Electron Energy =               -1233.7249207191566711
    Two-Electron Energy =                 510.8945024080609301
    DFT Exchange-Correlation Energy =       0.0000000000000000
    Empirical Dispersion Energy =           0.0000000000000000
    PCM Polarization Energy =               0.0000000000000000
    EFP Energy =                            0.0000000000000000
    Total Energy =                       -313.5339944817957303


  Saving occupied orbitals to File 180.

*** tstop() called on wr24 at Tue Sep 20 23:29:07 2016
Module time:
	user time   =     813.15 seconds =      13.55 minutes
	system time =      10.18 seconds =       0.17 minutes
	total time  =         75 seconds =       1.25 minutes
Total time:
	user time   =     813.15 seconds =      13.55 minutes
	system time =      10.18 seconds =       0.17 minutes
	total time  =         75 seconds =       1.25 minutes


Properties will be evaluated at   0.000000,   0.000000,   0.000000 Bohr

Properties computed using the SCF density matrix

  Nuclear Dipole Moment: (a.u.)
     X:     0.8449      Y:     1.2234      Z:     0.7075

  Electronic Dipole Moment: (a.u.)
     X:    -0.8540      Y:    -1.2287      Z:    -0.7256

  Dipole Moment: (a.u.)
     X:    -0.0091      Y:    -0.0053      Z:    -0.0182     Total:     0.0210

  Dipole Moment: (Debye)
     X:    -0.0232      Y:    -0.0135      Z:    -0.0462     Total:     0.0534


  //>>>>>>>>>>>>>>>>>>>>>>>>>>>>>>>>>>>//
  //               DFMP2               //
  //<<<<<<<<<<<<<<<<<<<<<<<<<<<<<<<<<<<//


*** tstart() called on wr24
*** at Tue Sep 20 23:29:08 2016


*** tstop() called on wr24 at Tue Sep 20 23:29:08 2016
Module time:
	user time   =       3.13 seconds =       0.05 minutes
	system time =       0.14 seconds =       0.00 minutes
	total time  =          0 seconds =       0.00 minutes
Total time:
	user time   =     817.75 seconds =      13.63 minutes
	system time =      10.37 seconds =       0.17 minutes
	total time  =         76 seconds =       1.27 minutes
	 --------------------------------------------------------
	                          DF-MP2                         
	      2nd-Order Density-Fitted Moller-Plesset Theory     
	              RMP2 Wavefunction,  12 Threads             
	                                                         
	        Rob Parrish, Justin Turney, Andy Simmonett,      
	           Ed Hohenstein, and C. David Sherrill          
	 --------------------------------------------------------

   => Auxiliary Basis Set <=

  Basis Set: 
    Number of shells: 476
    Number of basis function: 1676
    Number of Cartesian functions: 2078
    Spherical Harmonics?: true
    Max angular momentum: 4

	 --------------------------------------------------------
	                 NBF =   782, NAUX =  1676
	 --------------------------------------------------------
	   CLASS    FOCC     OCC    AOCC    AVIR     VIR    FVIR
	   PAIRS       8      33      25     749     749       0
	 --------------------------------------------------------

DGAS Warning! /src/lib/libfock/apps.cc:80 is not currently checking restricted

         ------------------------------------------------------------
                                     CPHF                           
                                  Rob Parrish                       
         ------------------------------------------------------------

  ==> Geometry <==

    Molecular point group: c1
    Full point group: C1

    Geometry (in Angstrom), charge = 0, multiplicity = 1:

       Center              X                  Y                   Z               Mass       
    ------------   -----------------  -----------------  -----------------  -----------------
           C          3.094450501163     0.073846059852     0.562397877193    12.000000000000
           H          3.737595859423     0.640190442066     1.235507991744     1.007825032070
           H          3.702789760097    -0.263477521783    -0.278749294266     1.007825032070
           H          2.751231448808    -0.809382077170     1.100572896490     1.007825032070
           C         -2.026171095696     1.569763500245     0.355407095301    12.000000000000
           H         -2.375287296040     2.455545477845    -0.175202307555     1.007825032070
           H         -0.961357120080     1.698517356530     0.547444576526     1.007825032070
           H         -2.535189742192     1.534901623660     1.320256252015     1.007825032070
           C          1.924322318247     0.922978126947     0.078155771258    12.000000000000
           H          2.304134129509     1.859288355788    -0.337039814607     1.007825032070
           H          1.303372681390     1.203153625946     0.932149148373     1.007825032070
           C         -2.304980216326     0.301465164081    -0.442913234218    12.000000000000
           H         -3.371661773268     0.252673602222    -0.674427974336     1.007825032070
           H         -1.789542002704     0.343546523960    -1.404955640314     1.007825032070
           C          1.074334432055     0.233752264646    -0.989899605480    12.000000000000
           H          1.695973265835     0.084159904608    -1.878224464314     1.007825032070
           H          0.268065331605     0.905391152910    -1.289744268136     1.007825032070
           C          0.505280134179    -1.125569314983    -0.571544602288    12.000000000000
           H          1.342970414301    -1.797485653429    -0.374001321857     1.007825032070
           H         -0.029592872891    -1.561422401881    -1.421211215206     1.007825032070
           C         -0.429422908210    -1.110979358279     0.646257831736    12.000000000000
           H         -0.307912568806    -2.046948868050     1.196394565293     1.007825032070
           H         -0.133215944886    -0.321123207793     1.340189458067     1.007825032070
           C         -1.913501239207    -0.974857290096     0.298758633409    12.000000000000
           H         -2.203008880280    -1.838968689953    -0.306438322203     1.007825032070
           H         -2.498159761758    -1.033561129671     1.222137311614     1.007825032070

  Nuclear repulsion =  409.296423829299954
  Reference energy  = -313.533994481795787

  ==> Basis Set <==

  Basis Set: AUG-CC-PVTZ
    Number of shells: 274
    Number of basis function: 782
    Number of Cartesian functions: 890
    Spherical Harmonics?: true
    Max angular momentum: 3

  ==> CGRSolver (by Rob Parrish) <==

   Number of roots    =         1
   Preconditioning    =    JACOBI
   Convergence cutoff =     1E-06
   Maximum iterations =       100

  ==> CPHFRHamiltonian (by Rob Parrish) <== 

  ==> DFJK: Density-Fitted J/K Matrices <==

    J tasked:                  Yes
    K tasked:                  Yes
    wK tasked:                  No
    OpenMP threads:             12
    Integrals threads:          12
    Memory (MB):             42915
    Algorithm:                Core
    Integral Cache:           NONE
    Schwarz Cutoff:          1E-12
    Fitting Condition:       1E-12

   => Auxiliary Basis Set <=

  Basis Set: 
    Number of shells: 492
    Number of basis function: 1660
    Number of Cartesian functions: 2038
    Spherical Harmonics?: true
    Max angular momentum: 4

  ==> CPHF Iterations <==

  => Iterations <=

             Iter  Converged  Remaining    Residual
  CGR           1          0          1   9.543E-02
  CGR           2          0          1   1.384E-02
  CGR           3          0          1   4.139E-03
  CGR           4          0          1   9.048E-04
  CGR           5          0          1   2.216E-04
  CGR           6          0          1   4.570E-05
  CGR           7          0          1   1.266E-05
  CGR           8          0          1   3.211E-06
  CGR           9          1          0   8.522E-07

    CGRSolver converged.

  ==> DFCorrGrad: Density-Fitted Correlated Gradients <==

    OpenMP threads:             12
    Integrals threads:          12
    Memory (MB):             42915
    Schwarz Cutoff:          0E+00
    Fitting Condition:       1E-12

   => Auxiliary Basis Set <=

  Basis Set: 
    Number of shells: 492
    Number of basis function: 1660
    Number of Cartesian functions: 2038
    Spherical Harmonics?: true
    Max angular momentum: 4

	-----------------------------------------------------------
	 ==================> DF-MP2 Energies <==================== 
	-----------------------------------------------------------
	 Reference Energy          =    -313.5339944817957871 [Eh]
	 Singles Energy            =      -0.0000000000000000 [Eh]
	 Same-Spin Energy          =      -0.3182464266812064 [Eh]
	 Opposite-Spin Energy      =      -1.1280347821195438 [Eh]
	 Correlation Energy        =      -1.4462812088007502 [Eh]
	 Total Energy              =    -314.9802756905965566 [Eh]
	-----------------------------------------------------------
	 ================> DF-SCS-MP2 Energies <================== 
	-----------------------------------------------------------
	 SCS Same-Spin Scale       =       0.3333333333333333 [-]
	 SCS Opposite-Spin Scale   =       1.2000000000000000 [-]
	 SCS Same-Spin Energy      =      -0.1060821422270688 [Eh]
	 SCS Opposite-Spin Energy  =      -1.3536417385434525 [Eh]
	 SCS Correlation Energy    =      -1.4597238807705213 [Eh]
	 SCS Total Energy          =    -314.9937183625663124 [Eh]
	-----------------------------------------------------------


  -Total Gradient:
     Atom            X                  Y                   Z
    ------   -----------------  -----------------  -----------------
       1        0.000000769080    -0.000000538166     0.000000474733
       2       -0.000000391761    -0.000000581339    -0.000000508963
       3       -0.000000660505     0.000000437413     0.000000836435
       4        0.000000206002     0.000000899225    -0.000000598426
       5       -0.000000088267     0.000001632631     0.000001160089
       6        0.000000508602    -0.000001060882     0.000000840421
       7       -0.000001823653    -0.000000309674    -0.000000591090
       8        0.000000752253    -0.000000056268    -0.000001414950
       9       -0.000000511396     0.000001477896     0.000000855844
      10       -0.000000519963    -0.000000909433     0.000000741845
      11        0.000001178811    -0.000000473212    -0.000001269103
      12        0.000000200943    -0.000000857345    -0.000002040486
      13        0.000000927142    -0.000000119987    -0.000000118045
      14       -0.000000942484    -0.000000045155     0.000002054274
      15       -0.000001325945     0.000000451962    -0.000002775441
      16       -0.000001380118     0.000000573101     0.000000991442
      17        0.000002438710    -0.000002216305     0.000000726424
      18       -0.000000180771    -0.000001163873    -0.000000584087
      19       -0.000001818027     0.000000834681    -0.000000055392
      20        0.000001204552     0.000000991710     0.000001421932
      21        0.000000920011     0.000001070677     0.000002004621
      22        0.000000090366     0.000000907309    -0.000000111739
      23       -0.000000659402    -0.000001766159    -0.000002040473
      24       -0.000000337433    -0.000000394919     0.000000377104
      25        0.000000328590     0.000001155235     0.000000981544
      26        0.000001114662     0.000000060875    -0.000001358511


			-----------------------------------------
			 OPTKING 2.0: for geometry optimizations 
			  - R.A. King,  Bethel University        
			-----------------------------------------

	Internal coordinates to be generated automatically.
	Detected frag 1 with atoms:  1 2 3 4 5 6 7 8 9 10 11 12 13 14 15 16 17 18 19 20
	 21 22 23 24 25 26
	---Fragment 1 Bond Connectivity---
	 1 : 2 3 4 9
	 2 : 1
	 3 : 1
	 4 : 1
	 5 : 6 7 8 12
	 6 : 5
	 7 : 5
	 8 : 5
	 9 : 1 10 11 15
	 10 : 9
	 11 : 9
	 12 : 5 13 14 24
	 13 : 12
	 14 : 12
	 15 : 9 16 17 18
	 16 : 15
	 17 : 15
	 18 : 15 19 20 21
	 19 : 18
	 20 : 18
	 21 : 18 22 23 24
	 22 : 21
	 23 : 21
	 24 : 12 21 25 26
	 25 : 24
	 26 : 24

	---Fragment 1 Geometry and Gradient---
	 C           5.8476639790        0.1395488291        1.0627779656
	 H           7.0630325697        1.2097846084        2.3347717394
	 H           6.9972585742       -0.4979003583       -0.5267598259
	 H           5.1990739664       -1.5295104627        2.0797813636
	 C          -3.8289084692        2.9664231089        0.6716220758
	 H          -4.4886424764        4.6403084600       -0.3310843791
	 H          -1.8167016729        3.2097326358        1.0345203226
	 H          -4.7908143076        2.9005437096        2.4949227415
	 C           3.6364421729        1.7441758866        0.1476930034
	 H           4.3541824782        3.5135457945       -0.6369129455
	 H           2.4630174169        2.2736308488        1.7615066054
	 C          -4.3557813506        0.5696865987       -0.8369847133
	 H          -6.3715173642        0.4774839092       -1.2744841679
	 H          -3.3817442884        0.6492088442       -2.6549813890
	 C           2.0301978517        0.4417277631       -1.8706391534
	 H           3.2049250011        0.1590391711       -3.5493298536
	 H           0.5065700625        1.7109413221       -2.4372634482
	 C           0.9548410740       -2.1270177489       -1.0800627711
	 H           2.5378462876       -3.3967556128       -0.7067600716
	 H          -0.0559224252       -2.9506607173       -2.6856999737
	 C          -0.8114916917       -2.0994467264        1.2212503132
	 H          -0.5818704279       -3.8681727686        2.2608580753
	 H          -0.2517416524       -0.6068349176        2.5325910419
	 C          -3.6159932970       -1.8422132969        0.5645719970
	 H          -4.1630834520       -3.4751471910       -0.5790845056
	 H          -4.7208377859       -1.9531474767        2.3095048157
	             0.0000007691       -0.0000005382        0.0000004747
	            -0.0000003918       -0.0000005813       -0.0000005090
	            -0.0000006605        0.0000004374        0.0000008364
	             0.0000002060        0.0000008992       -0.0000005984
	            -0.0000000883        0.0000016326        0.0000011601
	             0.0000005086       -0.0000010609        0.0000008404
	            -0.0000018237       -0.0000003097       -0.0000005911
	             0.0000007523       -0.0000000563       -0.0000014150
	            -0.0000005114        0.0000014779        0.0000008558
	            -0.0000005200       -0.0000009094        0.0000007418
	             0.0000011788       -0.0000004732       -0.0000012691
	             0.0000002009       -0.0000008573       -0.0000020405
	             0.0000009271       -0.0000001200       -0.0000001180
	            -0.0000009425       -0.0000000452        0.0000020543
	            -0.0000013259        0.0000004520       -0.0000027754
	            -0.0000013801        0.0000005731        0.0000009914
	             0.0000024387       -0.0000022163        0.0000007264
	            -0.0000001808       -0.0000011639       -0.0000005841
	            -0.0000018180        0.0000008347       -0.0000000554
	             0.0000012046        0.0000009917        0.0000014219
	             0.0000009200        0.0000010707        0.0000020046
	             0.0000000904        0.0000009073       -0.0000001117
	            -0.0000006594       -0.0000017662       -0.0000020405
	            -0.0000003374       -0.0000003949        0.0000003771
	             0.0000003286        0.0000011552        0.0000009815
	             0.0000011147        0.0000000609       -0.0000013585

	Previous optimization step data not found.  Starting new optimization.

	---Fragment 1 Intrafragment Coordinates---
	 - Coordinate -           - BOHR/RAD -       - ANG/DEG -
	 R(1,2)           =         2.059246	       1.089706
	 R(1,3)           =         2.062654	       1.091509
	 R(1,4)           =         2.059302	       1.089736
	 R(1,9)           =         2.881269	       1.524702
	 R(5,6)           =         2.059748	       1.089972
	 R(5,7)           =         2.059095	       1.089626
	 R(5,8)           =         2.062530	       1.091444
	 R(5,12)          =         2.880596	       1.524346
	 R(9,10)          =         2.064323	       1.092392
	 R(9,11)          =         2.064375	       1.092420
	 R(9,15)          =         2.889646	       1.529135
	 R(12,13)         =         2.064727	       1.092607
	 R(12,14)         =         2.064021	       1.092233
	 R(12,24)         =         2.885985	       1.527197
	 R(15,16)         =         2.068308	       1.094502
	 R(15,17)         =         2.062379	       1.091364
	 R(15,18)         =         2.894798	       1.531861
	 R(18,19)         =         2.063370	       1.091888
	 R(18,20)         =         2.068357	       1.094527
	 R(18,21)         =         2.901161	       1.535228
	 R(21,22)         =         2.064437	       1.092453
	 R(21,23)         =         2.064177	       1.092315
	 R(21,24)         =         2.891820	       1.530285
	 R(24,25)         =         2.067300	       1.093968
	 R(24,26)         =         2.068279	       1.094486
	 B(1,9,10)        =         1.908397	     109.343086
	 B(1,9,11)        =         1.907930	     109.316310
	 B(1,9,15)        =         1.979488	     113.416282
	 B(2,1,3)         =         1.883562	     107.920150
	 B(2,1,4)         =         1.877655	     107.581695
	 B(2,1,9)         =         1.938727	     111.080902
	 B(3,1,4)         =         1.881406	     107.796615
	 B(3,1,9)         =         1.933806	     110.798896
	 B(4,1,9)         =         1.946058	     111.500900
	 B(5,12,13)       =         1.903596	     109.067999
	 B(5,12,14)       =         1.920817	     110.054725
	 B(5,12,24)       =         1.975914	     113.211521
	 B(6,5,7)         =         1.878398	     107.624286
	 B(6,5,8)         =         1.882757	     107.874031
	 B(6,5,12)        =         1.941882	     111.261625
	 B(7,5,8)         =         1.879398	     107.681572
	 B(7,5,12)        =         1.949111	     111.675812
	 B(8,5,12)        =         1.929533	     110.554099
	 B(9,15,16)       =         1.888925	     108.227431
	 B(9,15,17)       =         1.901989	     108.975915
	 B(9,15,18)       =         1.999507	     114.563337
	 B(10,9,11)       =         1.849312	     105.957794
	 B(10,9,15)       =         1.890327	     108.307764
	 B(11,9,15)       =         1.923742	     110.222322
	 B(12,24,21)      =         2.018857	     115.671964
	 B(12,24,25)      =         1.900360	     108.882618
	 B(12,24,26)      =         1.894006	     108.518577
	 B(13,12,14)      =         1.850218	     106.009703
	 B(13,12,24)      =         1.892137	     108.411487
	 B(14,12,24)      =         1.916634	     109.815053
	 B(15,18,19)      =         1.886486	     108.087688
	 B(15,18,20)      =         1.899575	     108.837642
	 B(15,18,21)      =         2.020138	     115.745365
	 B(16,15,17)      =         1.855341	     106.303222
	 B(16,15,18)      =         1.887422	     108.141333
	 B(17,15,18)      =         1.924837	     110.285037
	 B(18,21,22)      =         1.900325	     108.880613
	 B(18,21,23)      =         1.923786	     110.224802
	 B(18,21,24)      =         1.994532	     114.278252
	 B(19,18,20)      =         1.844511	     105.682670
	 B(19,18,21)      =         1.906498	     109.234309
	 B(20,18,21)      =         1.898679	     108.786269
	 B(21,24,25)      =         1.888106	     108.180476
	 B(21,24,26)      =         1.898325	     108.766023
	 B(22,21,23)      =         1.843615	     105.631353
	 B(22,21,24)      =         1.873846	     107.363478
	 B(23,21,24)      =         1.920826	     110.055201
	 B(25,24,26)      =         1.857709	     106.438884
	 D(1,9,15,16)     =        -1.121534	     -64.259158
	 D(1,9,15,17)     =        -3.132146	    -179.458719
	 D(1,9,15,18)     =         0.985547	      56.467680
	 D(2,1,9,10)      =         0.917620	      52.575761
	 D(2,1,9,11)      =        -1.099666	     -63.006225
	 D(2,1,9,15)      =         3.029213	     173.561124
	 D(3,1,9,10)      =        -1.175819	     -67.369492
	 D(3,1,9,11)      =         3.090080	     177.048522
	 D(3,1,9,15)      =         0.935773	      53.615871
	 D(4,1,9,10)      =         3.011782	     172.562394
	 D(4,1,9,11)      =         0.994496	      56.980408
	 D(4,1,9,15)      =        -1.159810	     -66.452243
	 D(5,12,24,21)    =        -1.076409	     -61.673675
	 D(5,12,24,25)    =         3.077051	     176.302034
	 D(5,12,24,26)    =         1.061775	      60.835232
	 D(6,5,12,13)     =        -0.969849	     -55.568243
	 D(6,5,12,14)     =         1.053019	      60.333535
	 D(6,5,12,24)     =        -3.077967	    -176.354522
	 D(7,5,12,13)     =        -3.069176	    -175.850835
	 D(7,5,12,14)     =        -1.046308	     -59.949057
	 D(7,5,12,24)     =         1.105891	      63.362886
	 D(8,5,12,13)     =         1.121818	      64.275425
	 D(8,5,12,14)     =        -3.138500	    -179.822797
	 D(8,5,12,24)     =        -0.986300	     -56.510854
	 D(9,15,18,19)    =        -1.083894	     -62.102566
	 D(9,15,18,20)    =        -3.079209	    -176.425702
	 D(9,15,18,21)    =         1.060024	      60.734897
	 D(10,9,15,16)    =         1.000201	      57.307292
	 D(10,9,15,17)    =        -1.010411	     -57.892269
	 D(10,9,15,18)    =         3.107282	     178.034131
	 D(11,9,15,16)    =         3.016036	     172.806133
	 D(11,9,15,17)    =         1.005424	      57.606572
	 D(11,9,15,18)    =        -1.160069	     -66.467029
	 D(12,24,21,18)   =        -1.063208	     -60.917325
	 D(12,24,21,22)   =         3.110528	     178.220125
	 D(12,24,21,23)   =         1.112137	      63.720763
	 D(13,12,24,21)   =         3.092182	     177.168953
	 D(13,12,24,25)   =         0.962456	      55.144662
	 D(13,12,24,26)   =        -1.052820	     -60.322140
	 D(14,12,24,21)   =         1.078093	      61.770207
	 D(14,12,24,25)   =        -1.051632	     -60.254084
	 D(14,12,24,26)   =        -3.066908	    -175.720886
	 D(15,18,21,22)   =        -2.568082	    -147.140282
	 D(15,18,21,23)   =        -0.553370	     -31.705751
	 D(15,18,21,24)   =         1.620401	      92.842151
	 D(16,15,18,19)   =         1.024016	      58.671808
	 D(16,15,18,20)   =        -0.971299	     -55.651327
	 D(16,15,18,21)   =        -3.115251	    -178.490729
	 D(17,15,18,19)   =         3.046008	     174.523375
	 D(17,15,18,20)   =         1.050692	      60.200239
	 D(17,15,18,21)   =        -1.093260	     -62.639163
	 D(18,21,24,25)   =         1.073038	      61.480559
	 D(18,21,24,26)   =         3.084086	     176.705089
	 D(19,18,21,22)   =        -0.434760	     -24.909886
	 D(19,18,21,23)   =         1.579953	      90.524645
	 D(19,18,21,24)   =        -2.529461	    -144.927453
	 D(20,18,21,22)   =         1.570678	      89.993215
	 D(20,18,21,23)   =        -2.697795	    -154.572254
	 D(20,18,21,24)   =        -0.524024	     -30.024352
	 D(22,21,24,25)   =        -1.036411	     -59.381990
	 D(22,21,24,26)   =         0.974636	      55.842540
	 D(23,21,24,25)   =        -3.034802	    -173.881352
	 D(23,21,24,26)   =        -1.023755	     -58.656822
	 R(1,21)          =         7.027273	       3.718673
	 R(5,15)          =         6.867773	       3.634269
	 R(12,15)         =         6.470359	       3.423967

	Current energy   :      -314.9802756906

	Generating empirical Hessian (Schlegel '84) for each fragment.
	Taking RFO optimization step.
	Going to follow RFO solution 1.
	Using RFO vector 1.
	Norm of target step-size    0.00060
	Projected energy change by RFO approximation:         0.0000000004

	Back-transformation to cartesian coordinates...
	Successfully converged to displaced geometry.

	--- Internal Coordinate Step in ANG or DEG, aJ/ANG or AJ/DEG ---
	 ---------------------------------------------------------------------------
	   Coordinate                Previous        Force       Change         New 
	   ----------                --------       ------       ------       ------
	    1 R(1,2)          =      1.089706     0.000007     0.000001     1.089707
	    2 R(1,3)          =      1.091509     0.000009     0.000002     1.091511
	    3 R(1,4)          =      1.089736     0.000009     0.000002     1.089737
	    4 R(1,9)          =      1.524702    -0.000003     0.000000     1.524702
	    5 R(5,6)          =      1.089972     0.000012     0.000002     1.089974
	    6 R(5,7)          =      1.089626     0.000016     0.000003     1.089629
	    7 R(5,8)          =      1.091444     0.000013     0.000002     1.091446
	    8 R(5,12)         =      1.524346    -0.000000    -0.000000     1.524346
	    9 R(9,10)         =      1.092392     0.000010     0.000002     1.092394
	   10 R(9,11)         =      1.092420     0.000015     0.000003     1.092423
	   11 R(9,15)         =      1.529135    -0.000008    -0.000001     1.529134
	   12 R(12,13)        =      1.092607     0.000007     0.000001     1.092608
	   13 R(12,14)        =      1.092233     0.000019     0.000003     1.092236
	   14 R(12,24)        =      1.527197     0.000005     0.000001     1.527199
	   15 R(15,16)        =      1.094502     0.000014     0.000003     1.094504
	   16 R(15,17)        =      1.091364     0.000028     0.000005     1.091369
	   17 R(15,18)        =      1.531861     0.000004     0.000002     1.531864
	   18 R(18,19)        =      1.091888     0.000016     0.000003     1.091891
	   19 R(18,20)        =      1.094527     0.000017     0.000003     1.094531
	   20 R(18,21)        =      1.535228     0.000006     0.000003     1.535232
	   21 R(21,22)        =      1.092453     0.000007     0.000001     1.092455
	   22 R(21,23)        =      1.092315     0.000023     0.000004     1.092319
	   23 R(21,24)        =      1.530285     0.000006     0.000003     1.530288
	   24 R(24,25)        =      1.093968     0.000013     0.000002     1.093971
	   25 R(24,26)        =      1.094486     0.000015     0.000003     1.094489
	   26 B(1,9,10)       =    109.343086     0.000000    -0.000194   109.342892
	   27 B(1,9,11)       =    109.316310     0.000000     0.000244   109.316554
	   28 B(1,9,15)       =    113.416282    -0.000000     0.000153   113.416435
	   29 B(2,1,3)        =    107.920150     0.000000     0.000001   107.920151
	   30 B(2,1,4)        =    107.581695     0.000000    -0.000009   107.581686
	   31 B(2,1,9)        =    111.080902    -0.000000    -0.000186   111.080716
	   32 B(3,1,4)        =    107.796615    -0.000000     0.000021   107.796636
	   33 B(3,1,9)        =    110.798896     0.000000     0.000063   110.798959
	   34 B(4,1,9)        =    111.500900     0.000000     0.000110   111.501010
	   35 B(5,12,13)      =    109.067999    -0.000000    -0.000065   109.067934
	   36 B(5,12,14)      =    110.054725    -0.000000    -0.000013   110.054712
	   37 B(5,12,24)      =    113.211521     0.000000     0.000119   113.211640
	   38 B(6,5,7)        =    107.624286     0.000000     0.000028   107.624313
	   39 B(6,5,8)        =    107.874031     0.000000    -0.000020   107.874011
	   40 B(6,5,12)       =    111.261625    -0.000000    -0.000192   111.261434
	   41 B(7,5,8)        =    107.681572    -0.000000    -0.000016   107.681556
	   42 B(7,5,12)       =    111.675812     0.000000     0.000145   111.675957
	   43 B(8,5,12)       =    110.554099     0.000000     0.000055   110.554155
	   44 B(9,15,16)      =    108.227431    -0.000000    -0.000332   108.227099
	   45 B(9,15,17)      =    108.975915    -0.000000    -0.000077   108.975837
	   46 B(9,15,18)      =    114.563337     0.000000     0.000519   114.563857
	   47 B(10,9,11)      =    105.957794     0.000000     0.000056   105.957849
	   48 B(10,9,15)      =    108.307764    -0.000000    -0.000329   108.307435
	   49 B(11,9,15)      =    110.222322    -0.000000     0.000056   110.222377
	   50 B(12,24,21)     =    115.671964    -0.000000     0.000274   115.672238
	   51 B(12,24,25)     =    108.882618     0.000000     0.000098   108.882716
	   52 B(12,24,26)     =    108.518577     0.000000    -0.000287   108.518290
	   53 B(13,12,14)     =    106.009703     0.000000     0.000027   106.009730
	   54 B(13,12,24)     =    108.411487    -0.000000    -0.000014   108.411472
	   55 B(14,12,24)     =    109.815053    -0.000000    -0.000060   109.814993
	   56 B(15,18,19)     =    108.087688    -0.000000    -0.000405   108.087283
	   57 B(15,18,20)     =    108.837642     0.000000     0.000062   108.837704
	   58 B(15,18,21)     =    115.745365     0.000000     0.000590   115.745955
	   59 B(16,15,17)     =    106.303222     0.000000     0.000143   106.303364
	   60 B(16,15,18)     =    108.141333    -0.000000    -0.000339   108.140995
	   61 B(17,15,18)     =    110.285037     0.000000     0.000052   110.285089
	   62 B(18,21,22)     =    108.880613    -0.000000    -0.000476   108.880137
	   63 B(18,21,23)     =    110.224802     0.000000     0.000226   110.225028
	   64 B(18,21,24)     =    114.278252     0.000000     0.000736   114.278988
	   65 B(19,18,20)     =    105.682670     0.000000    -0.000088   105.682582
	   66 B(19,18,21)     =    109.234309     0.000000    -0.000008   109.234301
	   67 B(20,18,21)     =    108.786269    -0.000000    -0.000207   108.786062
	   68 B(21,24,25)     =    108.180476     0.000000     0.000092   108.180568
	   69 B(21,24,26)     =    108.766023     0.000000    -0.000163   108.765860
	   70 B(22,21,23)     =    105.631353     0.000000    -0.000159   105.631194
	   71 B(22,21,24)     =    107.363478    -0.000000    -0.000451   107.363027
	   72 B(23,21,24)     =    110.055201    -0.000000     0.000025   110.055226
	   73 B(25,24,26)     =    106.438884    -0.000000    -0.000036   106.438848
	   74 D(1,9,15,16)    =    -64.259158     0.000000     0.000964   -64.258194
	   75 D(1,9,15,17)    =   -179.458719    -0.000000     0.001013  -179.457706
	   76 D(1,9,15,18)    =     56.467680    -0.000000     0.000629    56.468309
	   77 D(2,1,9,10)     =     52.575761     0.000000    -0.001109    52.574652
	   78 D(2,1,9,11)     =    -63.006225    -0.000000    -0.001203   -63.007428
	   79 D(2,1,9,15)     =    173.561124    -0.000000    -0.001566   173.559558
	   80 D(3,1,9,10)     =    -67.369492     0.000000    -0.001028   -67.370521
	   81 D(3,1,9,11)     =    177.048522    -0.000000    -0.001123   177.047399
	   82 D(3,1,9,15)     =     53.615871    -0.000000    -0.001486    53.614385
	   83 D(4,1,9,10)     =    172.562394     0.000000    -0.001171   172.561223
	   84 D(4,1,9,11)     =     56.980408    -0.000000    -0.001265    56.979143
	   85 D(4,1,9,15)     =    -66.452243    -0.000000    -0.001629   -66.453871
	   86 D(5,12,24,21)   =    -61.673675     0.000000     0.005318   -61.668357
	   87 D(5,12,24,25)   =    176.302034     0.000000     0.004928   176.306962
	   88 D(5,12,24,26)   =     60.835232     0.000000     0.005072    60.840304
	   89 D(6,5,12,13)    =    -55.568243     0.000000    -0.001600   -55.569843
	   90 D(6,5,12,14)    =     60.333535    -0.000000    -0.001612    60.331923
	   91 D(6,5,12,24)    =   -176.354522    -0.000000    -0.001615  -176.356137
	   92 D(7,5,12,13)    =   -175.850835     0.000000    -0.001602  -175.852438
	   93 D(7,5,12,14)    =    -59.949057    -0.000000    -0.001614   -59.950671
	   94 D(7,5,12,24)    =     63.362886    -0.000000    -0.001617    63.361268
	   95 D(8,5,12,13)    =     64.275425    -0.000000    -0.001715    64.273710
	   96 D(8,5,12,14)    =   -179.822797    -0.000000    -0.001727  -179.824523
	   97 D(8,5,12,24)    =    -56.510854    -0.000000    -0.001729   -56.512584
	   98 D(9,15,18,19)   =    -62.102566    -0.000000    -0.002693   -62.105258
	   99 D(9,15,18,20)   =   -176.425702    -0.000000    -0.002410  -176.428111
	  100 D(9,15,18,21)   =     60.734897    -0.000000    -0.002609    60.732288
	  101 D(10,9,15,16)   =     57.307292     0.000000     0.000583    57.307875
	  102 D(10,9,15,17)   =    -57.892269    -0.000000     0.000632   -57.891636
	  103 D(10,9,15,18)   =    178.034131    -0.000000     0.000248   178.034379
	  104 D(11,9,15,16)   =    172.806133    -0.000000     0.000493   172.806626
	  105 D(11,9,15,17)   =     57.606572    -0.000000     0.000543    57.607115
	  106 D(11,9,15,18)   =    -66.467029    -0.000000     0.000158   -66.466871
	  107 D(12,24,21,18)  =    -60.917325    -0.000000    -0.005771   -60.923097
	  108 D(12,24,21,22)  =    178.220125    -0.000000    -0.005314   178.214811
	  109 D(12,24,21,23)  =     63.720763     0.000000    -0.004894    63.715870
	  110 D(13,12,24,21)  =    177.168953     0.000000     0.005333   177.174286
	  111 D(13,12,24,25)  =     55.144662     0.000000     0.004943    55.149605
	  112 D(13,12,24,26)  =    -60.322140     0.000000     0.005087   -60.317053
	  113 D(14,12,24,21)  =     61.770207     0.000000     0.005341    61.775548
	  114 D(14,12,24,25)  =    -60.254084     0.000000     0.004951   -60.249133
	  115 D(14,12,24,26)  =   -175.720886     0.000000     0.005095  -175.715791
	  116 D(15,18,21,22)  =   -147.140282    -0.000000    -0.007889  -147.148171
	  117 D(15,18,21,23)  =    -31.705751    -0.000000    -0.008226   -31.713977
	  118 D(15,18,21,24)  =     92.842151    -0.000000    -0.007453    92.834697
	  119 D(16,15,18,19)  =     58.671808    -0.000000    -0.003024    58.668785
	  120 D(16,15,18,20)  =    -55.651327    -0.000000    -0.002741   -55.654068
	  121 D(16,15,18,21)  =   -178.490729    -0.000000    -0.002940  -178.493669
	  122 D(17,15,18,19)  =    174.523375    -0.000000    -0.003018   174.520357
	  123 D(17,15,18,20)  =     60.200239    -0.000000    -0.002735    60.197504
	  124 D(17,15,18,21)  =    -62.639163    -0.000000    -0.002934   -62.642096
	  125 D(18,21,24,25)  =     61.480559    -0.000000    -0.005381    61.475178
	  126 D(18,21,24,26)  =    176.705089     0.000000    -0.005460   176.699630
	  127 D(19,18,21,22)  =    -24.909886    -0.000000    -0.008008   -24.917893
	  128 D(19,18,21,23)  =     90.524645    -0.000000    -0.008345    90.516300
	  129 D(19,18,21,24)  =   -144.927453    -0.000000    -0.007572  -144.935025
	  130 D(20,18,21,22)  =     89.993215    -0.000000    -0.008229    89.984987
	  131 D(20,18,21,23)  =   -154.572254    -0.000000    -0.008566  -154.580820
	  132 D(20,18,21,24)  =    -30.024352    -0.000000    -0.007793   -30.032145
	  133 D(22,21,24,25)  =    -59.381990    -0.000000    -0.004924   -59.386914
	  134 D(22,21,24,26)  =     55.842540     0.000000    -0.005003    55.837537
	  135 D(23,21,24,25)  =   -173.881352     0.000000    -0.004504  -173.885856
	  136 D(23,21,24,26)  =    -58.656822     0.000000    -0.004582   -58.661404
	  137 R(1,21)         =      3.718673     0.000005    -0.000008     3.718665
	  138 R(5,15)         =      3.634269    -0.000004    -0.000028     3.634241
	  139 R(12,15)        =      3.423967     0.000002    -0.000037     3.423929
	 ---------------------------------------------------------------------------

  ==> Convergence Check <==

  Measures of convergence in internal coordinates in au.
  Criteria marked as inactive (o), active & met (*), and active & unmet ( ).
  --------------------------------------------------------------------------------------------- ~
   Step     Total Energy     Delta E     MAX Force     RMS Force      MAX Disp      RMS Disp    ~
  --------------------------------------------------------------------------------------------- ~
    Convergence Criteria             o    2.00e-06 *    1.00e-06 *    6.00e-06 *    4.00e-06 *  ~
  --------------------------------------------------------------------------------------------- ~
      1    -314.98027569   -3.15e+02 o    3.36e-06      6.96e-07 *    1.50e-04      5.12e-05    ~
  ---------------------------------------------------------------------------------------------

	Writing optimization data to binary file.
	Structure for next step:
	Cartesian Geometry (in Angstrom)
	    C     3.0943427092   0.0739934313   0.5624633846
	    H     3.7374170217   0.6404496423   1.2355494062
	    H     3.7027498540  -0.2633825680  -0.2786159311
	    H     2.7511478605  -0.8091997203   1.1007144529
	    C    -2.0259942123   1.5697666844   0.3555642145
	    H    -2.3750467564   2.4556263155  -0.1749619639
	    H    -0.9611629564   1.6984141246   0.5475935700
	    H    -2.5349986176   1.5348633451   1.3204220899
	    C     1.9241908357   0.9230060851   0.0780688118
	    H     2.3039730386   1.8593041709  -0.3371863646
	    H     1.3031622390   1.2032197884   0.9319956896
	    C    -2.3049288298   0.3015644621  -0.4428648866
	    H    -3.3716254539   0.2528722842  -0.6743374988
	    H    -1.7895279679   0.3437011381  -1.4049287973
	    C     1.0743215800   0.2336370321  -0.9899873116
	    H     1.6960422769   0.0839990130  -1.8782503739
	    H     0.2680363974   0.9052096151  -1.2899558720
	    C     0.5053081647  -1.1256838559  -0.5715655558
	    H     1.3430266558  -1.7975488556  -0.3739508776
	    H    -0.0295138196  -1.5616177620  -1.4212269167
	    C    -0.4294445521  -1.1110708164   0.6462028508
	    H    -0.3080067502  -2.0470668498   1.1963130055
	    H    -0.1332155427  -0.3212538601   1.3401764194
	    C    -1.9135091332  -0.9748596232   0.2986662971
	    H    -2.2030260859  -1.8388929665  -0.3066418760
	    H    -2.4982011011  -1.0336525863   1.2220213779
			--------------------------
			 OPTKING Finished Execution 
			--------------------------

    Structure for next step:
    Molecular point group: c1
    Full point group: C1

    Geometry (in Angstrom), charge = 0, multiplicity = 1:

    C            3.094345151828     0.073997837500     0.562470314844
    H            3.737419464354     0.640454048472     1.235556336406
    H            3.702752296678    -0.263378161869    -0.278609000913
    H            2.751150303131    -0.809195314148     1.100721383099
    C           -2.025991769653     1.569771090563     0.355571144724
    H           -2.375044313741     2.455630721669    -0.174955033648
    H           -0.961160513767     1.698418530788     0.547600500216
    H           -2.534996174994     1.534867751269     1.320429020161
    C            1.924193278370     0.923010491292     0.078075741985
    H            2.303975481272     1.859308577059    -0.337179434420
    H            1.303164681683     1.203224194571     0.932002619800
    C           -2.304926387111     0.301568868306    -0.442857956365
    H           -3.371623011238     0.252876690346    -0.674330568632
    H           -1.789525525276     0.343705544298    -1.404921867104
    C            1.074324022606     0.233641438251    -0.989980381347
    H            1.696044719561     0.084003419182    -1.878243443652
    H            0.268038840025     0.905214021286    -1.289948941813
    C            0.505310607321    -1.125679449708    -0.571558625634
    H            1.343029098422    -1.797544449386    -0.373943947429
    H           -0.029511376986    -1.561613355790    -1.421219986462
    C           -0.429442109449    -1.111066410283     0.646209780999
    H           -0.308004307598    -2.047062443673     1.196319935753
    H           -0.133213100039    -0.321249453910     1.340183349656
    C           -1.913506690558    -0.974855217049     0.298673227268
    H           -2.203023643212    -1.838888560334    -0.306634945784
    H           -2.498198658499    -1.033648180148     1.222028308105

gradient() will perform analytic gradient computation.

*** tstart() called on wr24
*** at Tue Sep 20 23:34:10 2016


         ---------------------------------------------------------
                                   SCF
            by Justin Turney, Rob Parrish, and Andy Simmonett
                              RHF Reference
                       12 Threads,  60000 MiB Core
         ---------------------------------------------------------

  ==> Geometry <==

    Molecular point group: c1
    Full point group: C1

    Geometry (in Angstrom), charge = 0, multiplicity = 1:

       Center              X                  Y                   Z               Mass       
    ------------   -----------------  -----------------  -----------------  -----------------
           C          3.094345151828     0.073997837500     0.562470314844    12.000000000000
           H          3.737419464354     0.640454048472     1.235556336406     1.007825032070
           H          3.702752296678    -0.263378161869    -0.278609000913     1.007825032070
           H          2.751150303131    -0.809195314148     1.100721383099     1.007825032070
           C         -2.025991769653     1.569771090563     0.355571144724    12.000000000000
           H         -2.375044313741     2.455630721669    -0.174955033648     1.007825032070
           H         -0.961160513767     1.698418530788     0.547600500216     1.007825032070
           H         -2.534996174994     1.534867751269     1.320429020161     1.007825032070
           C          1.924193278370     0.923010491292     0.078075741985    12.000000000000
           H          2.303975481272     1.859308577059    -0.337179434420     1.007825032070
           H          1.303164681683     1.203224194571     0.932002619800     1.007825032070
           C         -2.304926387111     0.301568868306    -0.442857956365    12.000000000000
           H         -3.371623011238     0.252876690346    -0.674330568632     1.007825032070
           H         -1.789525525276     0.343705544298    -1.404921867104     1.007825032070
           C          1.074324022606     0.233641438251    -0.989980381347    12.000000000000
           H          1.696044719561     0.084003419182    -1.878243443652     1.007825032070
           H          0.268038840025     0.905214021286    -1.289948941813     1.007825032070
           C          0.505310607321    -1.125679449708    -0.571558625634    12.000000000000
           H          1.343029098422    -1.797544449386    -0.373943947429     1.007825032070
           H         -0.029511376986    -1.561613355790    -1.421219986462     1.007825032070
           C         -0.429442109449    -1.111066410283     0.646209780999    12.000000000000
           H         -0.308004307598    -2.047062443673     1.196319935753     1.007825032070
           H         -0.133213100039    -0.321249453910     1.340183349656     1.007825032070
           C         -1.913506690558    -0.974855217049     0.298673227268    12.000000000000
           H         -2.203023643212    -1.838888560334    -0.306634945784     1.007825032070
           H         -2.498198658499    -1.033648180148     1.222028308105     1.007825032070

  Running in c1 symmetry.

  Rotational constants: A =      0.10147  B =      0.03572  C =      0.03134 [cm^-1]
  Rotational constants: A =   3041.87886  B =   1070.76770  C =    939.58725 [MHz]
  Nuclear repulsion =  409.297795766183242

  Charge       = 0
  Multiplicity = 1
  Electrons    = 66
  Nalpha       = 33
  Nbeta        = 33

  ==> Algorithm <==

  SCF Algorithm Type is DF.
  DIIS enabled.
  MOM disabled.
  Fractional occupation disabled.
  Guess Type is READ.
  Energy threshold   = 1.00e-10
  Density threshold  = 1.00e-10
  Integral threshold = 0.00e+00

  ==> Primary Basis <==

  Basis Set: AUG-CC-PVTZ
    Number of shells: 274
    Number of basis function: 782
    Number of Cartesian functions: 890
    Spherical Harmonics?: true
    Max angular momentum: 3

  ==> Pre-Iterations <==

   -------------------------------------------------------
    Irrep   Nso     Nmo     Nalpha   Nbeta   Ndocc  Nsocc
   -------------------------------------------------------
     A        782     782       0       0       0       0
   -------------------------------------------------------
    Total     782     782      33      33      33       0
   -------------------------------------------------------

  ==> Integral Setup <==

  ==> DFJK: Density-Fitted J/K Matrices <==

    J tasked:                  Yes
    K tasked:                  Yes
    wK tasked:                  No
    OpenMP threads:             12
    Integrals threads:          12
    Memory (MB):             42915
    Algorithm:                Core
    Integral Cache:           NONE
    Schwarz Cutoff:          1E-12
    Fitting Condition:       1E-12

   => Auxiliary Basis Set <=

  Basis Set: 
    Number of shells: 492
    Number of basis function: 1660
    Number of Cartesian functions: 2038
    Spherical Harmonics?: true
    Max angular momentum: 4

  Minimum eigenvalue in the overlap matrix is 1.5567206308E-06.
  Using Symmetric Orthogonalization.
  SCF Guess: Reading in previously saved MOs, projecting if necessary.

  Using orbitals from previous SCF, no projection.
  Recomputing DOCC and SOCC from number of alpha and beta electrons from previous calculation.
              A 
    DOCC [    33 ]

  ==> Iterations <==

                           Total Energy        Delta E     RMS |[F,P]|

   @DF-RHF iter   0:  -313.53394980855859   -3.13534e+02   4.90932e-07 
   @DF-RHF iter   1:  -313.53399351896752   -4.37104e-05   9.63941e-08 
   @DF-RHF iter   2:  -313.53399352347827   -4.51075e-09   4.09804e-08 DIIS
   @DF-RHF iter   3:  -313.53399352414857   -6.70298e-10   1.56227e-08 DIIS
   @DF-RHF iter   4:  -313.53399352428875   -1.40176e-10   1.77217e-09 DIIS
   @DF-RHF iter   5:  -313.53399352429193   -3.18323e-12   5.57565e-10 DIIS
   @DF-RHF iter   6:  -313.53399352429102    9.09495e-13   1.66578e-10 DIIS
   @DF-RHF iter   7:  -313.53399352429102    0.00000e+00   3.95069e-11 DIIS

  ==> Post-Iterations <==

    Orbital Energies (a.u.)
    -----------------------

    Doubly Occupied:                                                      

       1A    -11.212874     2A    -11.212135     3A    -11.210784  
       4A    -11.210527     5A    -11.209924     6A    -11.209179  
       7A    -11.207076     8A    -11.206550     9A     -1.094680  
      10A     -1.057993    11A     -1.003828    12A     -0.948982  
      13A     -0.888899    14A     -0.844156    15A     -0.779844  
      16A     -0.743033    17A     -0.650005    18A     -0.640257  
      19A     -0.607245    20A     -0.597787    21A     -0.569910  
      22A     -0.554303    23A     -0.548008    24A     -0.538684  
      25A     -0.513745    26A     -0.507910    27A     -0.487316  
      28A     -0.477358    29A     -0.462752    30A     -0.460511  
      31A     -0.441589    32A     -0.436149    33A     -0.433957  

    Virtual:                                                              

      34A      0.029791    35A      0.033583    36A      0.033856  
      37A      0.034850    38A      0.046626    39A      0.048335  
      40A      0.050931    41A      0.053334    42A      0.053906  
      43A      0.068471    44A      0.072091    45A      0.073847  
      46A      0.074780    47A      0.076476    48A      0.081697  
      49A      0.087506    50A      0.095697    51A      0.101130  
      52A      0.115186    53A      0.117890    54A      0.121627  
      55A      0.126950    56A      0.130767    57A      0.132076  
      58A      0.133963    59A      0.137040    60A      0.138149  
      61A      0.139200    62A      0.148187    63A      0.149002  
      64A      0.151158    65A      0.154359    66A      0.161602  
      67A      0.167573    68A      0.170946    69A      0.174373  
      70A      0.176705    71A      0.179421    72A      0.183770  
      73A      0.187115    74A      0.189080    75A      0.196703  
      76A      0.200896    77A      0.207900    78A      0.209297  
      79A      0.220428    80A      0.235895    81A      0.237822  
      82A      0.249293    83A      0.255330    84A      0.263769  
      85A      0.270607    86A      0.278483    87A      0.279272  
      88A      0.289970    89A      0.292934    90A      0.296658  
      91A      0.300884    92A      0.308871    93A      0.310390  
      94A      0.316752    95A      0.319470    96A      0.320836  
      97A      0.324141    98A      0.328738    99A      0.333329  
     100A      0.341615   101A      0.342498   102A      0.345363  
     103A      0.348188   104A      0.353320   105A      0.360072  
     106A      0.364396   107A      0.367736   108A      0.369965  
     109A      0.371688   110A      0.375530   111A      0.379792  
     112A      0.380960   113A      0.383236   114A      0.389649  
     115A      0.391036   116A      0.397512   117A      0.401317  
     118A      0.405132   119A      0.414116   120A      0.420438  
     121A      0.423239   122A      0.426095   123A      0.430004  
     124A      0.431904   125A      0.439310   126A      0.444365  
     127A      0.449324   128A      0.454190   129A      0.459405  
     130A      0.461091   131A      0.462915   132A      0.464727  
     133A      0.472225   134A      0.473221   135A      0.478344  
     136A      0.479841   137A      0.480292   138A      0.484324  
     139A      0.492076   140A      0.496468   141A      0.497353  
     142A      0.502579   143A      0.507037   144A      0.510793  
     145A      0.517294   146A      0.518451   147A      0.525795  
     148A      0.530238   149A      0.531317   150A      0.537652  
     151A      0.542975   152A      0.543846   153A      0.551676  
     154A      0.557288   155A      0.563332   156A      0.565288  
     157A      0.571784   158A      0.572421   159A      0.579079  
     160A      0.583536   161A      0.584198   162A      0.589424  
     163A      0.596728   164A      0.602354   165A      0.604701  
     166A      0.609860   167A      0.615391   168A      0.617461  
     169A      0.622201   170A      0.628288   171A      0.631606  
     172A      0.635585   173A      0.640601   174A      0.646304  
     175A      0.649841   176A      0.657339   177A      0.659488  
     178A      0.672525   179A      0.680227   180A      0.683541  
     181A      0.684247   182A      0.686280   183A      0.695748  
     184A      0.702258   185A      0.703277   186A      0.707969  
     187A      0.709365   188A      0.716596   189A      0.725623  
     190A      0.728223   191A      0.736915   192A      0.742240  
     193A      0.744489   194A      0.751115   195A      0.758402  
     196A      0.765523   197A      0.774847   198A      0.775191  
     199A      0.778132   200A      0.786678   201A      0.801654  
     202A      0.813317   203A      0.821680   204A      0.824093  
     205A      0.828554   206A      0.839627   207A      0.852531  
     208A      0.854557   209A      0.857188   210A      0.871215  
     211A      0.875239   212A      0.880243   213A      0.885060  
     214A      0.890874   215A      0.893529   216A      0.906612  
     217A      0.908695   218A      0.913044   219A      0.917899  
     220A      0.923319   221A      0.925772   222A      0.929908  
     223A      0.932323   224A      0.942692   225A      0.945138  
     226A      0.953060   227A      0.955982   228A      0.963897  
     229A      0.967425   230A      0.968391   231A      0.979079  
     232A      0.983297   233A      0.990243   234A      0.992156  
     235A      1.001984   236A      1.007035   237A      1.008433  
     238A      1.011786   239A      1.013745   240A      1.019371  
     241A      1.025384   242A      1.032558   243A      1.039775  
     244A      1.043367   245A      1.045088   246A      1.052765  
     247A      1.058706   248A      1.062524   249A      1.071251  
     250A      1.075835   251A      1.084659   252A      1.088631  
     253A      1.094107   254A      1.103222   255A      1.107356  
     256A      1.109650   257A      1.116080   258A      1.120490  
     259A      1.127572   260A      1.139185   261A      1.140700  
     262A      1.144688   263A      1.148688   264A      1.152841  
     265A      1.154429   266A      1.161314   267A      1.165728  
     268A      1.176712   269A      1.185378   270A      1.188783  
     271A      1.194759   272A      1.202122   273A      1.204639  
     274A      1.212385   275A      1.217051   276A      1.222427  
     277A      1.224884   278A      1.234850   279A      1.238080  
[...]
	 ---------------------------------------------------------------------------
	   Coordinate                Previous        Force       Change         New 
	   ----------                --------       ------       ------       ------
	    1 R(1,2)          =      1.089706     0.000002     0.000000     1.089707
	    2 R(1,3)          =      1.091510     0.000003     0.000000     1.091510
	    3 R(1,4)          =      1.089736     0.000003     0.000000     1.089736
	    4 R(1,9)          =      1.524702    -0.000001    -0.000000     1.524702
	    5 R(5,6)          =      1.089972    -0.000002    -0.000000     1.089972
	    6 R(5,7)          =      1.089626    -0.000002    -0.000000     1.089626
	    7 R(5,8)          =      1.091444    -0.000002    -0.000000     1.091444
	    8 R(5,12)         =      1.524346    -0.000000    -0.000000     1.524346
	    9 R(9,10)         =      1.092393     0.000004     0.000000     1.092393
	   10 R(9,11)         =      1.092421     0.000004     0.000000     1.092421
	   11 R(9,15)         =      1.529135     0.000001     0.000000     1.529135
	   12 R(12,13)        =      1.092607    -0.000001    -0.000000     1.092607
	   13 R(12,14)        =      1.092234    -0.000003    -0.000000     1.092233
	   14 R(12,24)        =      1.527198    -0.000002    -0.000000     1.527198
	   15 R(15,16)        =      1.094502     0.000004     0.000001     1.094502
	   16 R(15,17)        =      1.091365     0.000006     0.000001     1.091365
	   17 R(15,18)        =      1.531861     0.000004     0.000000     1.531861
	   18 R(18,19)        =      1.091889     0.000001     0.000000     1.091889
	   19 R(18,20)        =      1.094528    -0.000000     0.000000     1.094528
	   20 R(18,21)        =      1.535229    -0.000004    -0.000000     1.535229
	   21 R(21,22)        =      1.092454    -0.000002    -0.000000     1.092454
	   22 R(21,23)        =      1.092317    -0.000005    -0.000000     1.092316
	   23 R(21,24)        =      1.530286    -0.000002    -0.000000     1.530286
	   24 R(24,25)        =      1.093969    -0.000002     0.000000     1.093969
	   25 R(24,26)        =      1.094487    -0.000004    -0.000000     1.094487
	   26 B(1,9,10)       =    109.343004     0.000000    -0.000009   109.342995
	   27 B(1,9,11)       =    109.316402    -0.000000    -0.000008   109.316393
	   28 B(1,9,15)       =    113.416254    -0.000000     0.000052   113.416306
	   29 B(2,1,3)        =    107.920151     0.000000     0.000002   107.920153
	   30 B(2,1,4)        =    107.581717     0.000000    -0.000005   107.581713
	   31 B(2,1,9)        =    111.080838    -0.000000    -0.000024   111.080814
	   32 B(3,1,4)        =    107.796627    -0.000000     0.000007   107.796634
	   33 B(3,1,9)        =    110.798893     0.000000     0.000005   110.798898
	   34 B(4,1,9)        =    111.500933     0.000000     0.000014   111.500947
	   35 B(5,12,13)      =    109.067906     0.000000     0.000043   109.067949
	   36 B(5,12,14)      =    110.054767     0.000000    -0.000008   110.054759
	   37 B(5,12,24)      =    113.211561    -0.000000    -0.000037   113.211524
	   38 B(6,5,7)        =    107.624292    -0.000000    -0.000000   107.624292
	   39 B(6,5,8)        =    107.874047    -0.000000    -0.000009   107.874038
	   40 B(6,5,12)       =    111.261558     0.000000     0.000011   111.261569
	   41 B(7,5,8)        =    107.681582     0.000000    -0.000010   107.681572
	   42 B(7,5,12)       =    111.675853    -0.000000     0.000015   111.675868
	   43 B(8,5,12)       =    110.554095    -0.000000    -0.000008   110.554087
	   44 B(9,15,16)      =    108.227328    -0.000000    -0.000049   108.227279
	   45 B(9,15,17)      =    108.975936     0.000000     0.000001   108.975937
	   46 B(9,15,18)      =    114.563386     0.000000     0.000116   114.563502
	   47 B(10,9,11)      =    105.957823     0.000000     0.000015   105.957838
	   48 B(10,9,15)      =    108.307677     0.000000    -0.000007   108.307670
	   49 B(11,9,15)      =    110.222398    -0.000000    -0.000045   110.222353
	   50 B(12,24,21)     =    115.671936     0.000000    -0.000003   115.671933
	   51 B(12,24,25)     =    108.882692    -0.000000    -0.000027   108.882666
	   52 B(12,24,26)     =    108.518513     0.000000     0.000030   108.518542
	   53 B(13,12,14)     =    106.009691    -0.000000    -0.000014   106.009676
	   54 B(13,12,24)     =    108.411471     0.000000     0.000018   108.411489
	   55 B(14,12,24)     =    109.815085     0.000000     0.000002   109.815087
	   56 B(15,18,19)     =    108.087673    -0.000000    -0.000011   108.087662
	   57 B(15,18,20)     =    108.837704    -0.000000    -0.000029   108.837675
	   58 B(15,18,21)     =    115.745300     0.000000     0.000074   115.745374
	   59 B(16,15,17)     =    106.303242     0.000000     0.000019   106.303261
	   60 B(16,15,18)     =    108.141269    -0.000000    -0.000047   108.141221
	   61 B(17,15,18)     =    110.285108    -0.000000    -0.000046   110.285061
	   62 B(18,21,22)     =    108.880520     0.000000     0.000009   108.880529
	   63 B(18,21,23)     =    110.224886     0.000000     0.000008   110.224894
	   64 B(18,21,24)     =    114.278414    -0.000000    -0.000081   114.278333
	   65 B(19,18,20)     =    105.682712     0.000000    -0.000028   105.682684
	   66 B(19,18,21)     =    109.234380    -0.000000    -0.000021   109.234359
	   67 B(20,18,21)     =    108.786183    -0.000000     0.000006   108.786189
	   68 B(21,24,25)     =    108.180472    -0.000000    -0.000001   108.180471
	   69 B(21,24,26)     =    108.766026    -0.000000     0.000003   108.766029
	   70 B(22,21,23)     =    105.631376    -0.000000    -0.000010   105.631366
	   71 B(22,21,24)     =    107.363350     0.000000     0.000053   107.363403
	   72 B(23,21,24)     =    110.055136     0.000000     0.000027   110.055164
	   73 B(25,24,26)     =    106.438907     0.000000    -0.000003   106.438905
	   74 D(1,9,15,16)    =    -64.259055    -0.000000    -0.000093   -64.259147
	   75 D(1,9,15,17)    =   -179.458596    -0.000000    -0.000089  -179.458685
	   76 D(1,9,15,18)    =     56.467658    -0.000000    -0.000113    56.467545
	   77 D(2,1,9,10)     =     52.575839    -0.000000    -0.000273    52.575566
	   78 D(2,1,9,11)     =    -63.006188    -0.000000    -0.000281   -63.006469
	   79 D(2,1,9,15)     =    173.561014     0.000000    -0.000253   173.560761
	   80 D(3,1,9,10)     =    -67.369371     0.000000    -0.000263   -67.369634
	   81 D(3,1,9,11)     =    177.048603    -0.000000    -0.000271   177.048331
	   82 D(3,1,9,15)     =     53.615804     0.000000    -0.000243    53.615561
	   83 D(4,1,9,10)     =    172.562480    -0.000000    -0.000285   172.562195
	   84 D(4,1,9,11)     =     56.980454    -0.000000    -0.000294    56.980160
	   85 D(4,1,9,15)     =    -66.452345     0.000000    -0.000265   -66.452611
	   86 D(5,12,24,21)   =    -61.672667     0.000000    -0.000176   -61.672843
	   87 D(5,12,24,25)   =    176.303009     0.000000    -0.000152   176.302858
	   88 D(5,12,24,26)   =     60.836175     0.000000    -0.000150    60.836024
	   89 D(6,5,12,13)    =    -55.568376     0.000000    -0.000185   -55.568561
	   90 D(6,5,12,14)    =     60.333358     0.000000    -0.000182    60.333176
	   91 D(6,5,12,24)    =   -176.354597    -0.000000    -0.000213  -176.354810
	   92 D(7,5,12,13)    =   -175.850958    -0.000000    -0.000203  -175.851161
	   93 D(7,5,12,14)    =    -59.949224    -0.000000    -0.000200   -59.949424
	   94 D(7,5,12,24)    =     63.362821    -0.000000    -0.000230    63.362591
	   95 D(8,5,12,13)    =     64.275265     0.000000    -0.000195    64.275070
	   96 D(8,5,12,14)    =   -179.823001     0.000000    -0.000192  -179.823193
	   97 D(8,5,12,24)    =    -56.510956    -0.000000    -0.000223   -56.511178
	   98 D(9,15,18,19)   =    -62.102253     0.000000     0.000004   -62.102250
	   99 D(9,15,18,20)   =   -176.425463     0.000000     0.000057  -176.425406
	  100 D(9,15,18,21)   =     60.735246    -0.000000     0.000019    60.735265
	  101 D(10,9,15,16)   =     57.307211     0.000000    -0.000075    57.307136
	  102 D(10,9,15,17)   =    -57.892330    -0.000000    -0.000072   -57.892401
	  103 D(10,9,15,18)   =    178.033924    -0.000000    -0.000095   178.033828
	  104 D(11,9,15,16)   =    172.806078     0.000000    -0.000085   172.805994
	  105 D(11,9,15,17)   =     57.606538    -0.000000    -0.000082    57.606456
	  106 D(11,9,15,18)   =    -66.467209    -0.000000    -0.000105   -66.467314
	  107 D(12,24,21,18)  =    -60.917821     0.000000     0.000188   -60.917634
	  108 D(12,24,21,22)  =    178.219736     0.000000     0.000190   178.219926
	  109 D(12,24,21,23)  =     63.720450     0.000000     0.000159    63.720609
	  110 D(13,12,24,21)  =    177.170063    -0.000000    -0.000218   177.169846
	  111 D(13,12,24,25)  =     55.145740    -0.000000    -0.000194    55.145546
	  112 D(13,12,24,26)  =    -60.321095    -0.000000    -0.000192   -60.321287
	  113 D(14,12,24,21)  =     61.771323    -0.000000    -0.000211    61.771111
	  114 D(14,12,24,25)  =    -60.253001     0.000000    -0.000187   -60.253188
	  115 D(14,12,24,26)  =   -175.719835     0.000000    -0.000186  -175.720021
	  116 D(15,18,21,22)  =   -147.140752     0.000000     0.000192  -147.140561
	  117 D(15,18,21,23)  =    -31.706201     0.000000     0.000189   -31.706012
	  118 D(15,18,21,24)  =     92.841805     0.000000     0.000171    92.841976
	  119 D(16,15,18,19)  =     58.671974    -0.000000    -0.000018    58.671956
	  120 D(16,15,18,20)  =    -55.651236     0.000000     0.000036   -55.651200
	  121 D(16,15,18,21)  =   -178.490527    -0.000000    -0.000002  -178.490529
	  122 D(17,15,18,19)  =    174.523566    -0.000000    -0.000047   174.523519
	  123 D(17,15,18,20)  =     60.200356     0.000000     0.000007    60.200363
	  124 D(17,15,18,21)  =    -62.638934    -0.000000    -0.000032   -62.638966
	  125 D(18,21,24,25)  =     61.480137    -0.000000     0.000150    61.480287
	  126 D(18,21,24,26)  =    176.704694    -0.000000     0.000148   176.704843
	  127 D(19,18,21,22)  =    -24.910365     0.000000     0.000214   -24.910151
	  128 D(19,18,21,23)  =     90.524186     0.000000     0.000211    90.524397
	  129 D(19,18,21,24)  =   -144.927808     0.000000     0.000193  -144.927615
	  130 D(20,18,21,22)  =     89.992778     0.000000     0.000172    89.992950
	  131 D(20,18,21,23)  =   -154.572670     0.000000     0.000169  -154.572501
	  132 D(20,18,21,24)  =    -30.024664     0.000000     0.000151   -30.024514
	  133 D(22,21,24,25)  =    -59.382305     0.000000     0.000152   -59.382153
	  134 D(22,21,24,26)  =     55.842252     0.000000     0.000150    55.842402
	  135 D(23,21,24,25)  =   -173.881591     0.000000     0.000121  -173.881470
	  136 D(23,21,24,26)  =    -58.657035    -0.000000     0.000120   -58.656915
	  137 R(1,21)         =      3.718679     0.000003     0.000003     3.718682
	  138 R(5,15)         =      3.634257     0.000000     0.000001     3.634258
	  139 R(12,15)        =      3.423969    -0.000001     0.000000     3.423969
	 ---------------------------------------------------------------------------

  ==> Convergence Check <==

  Measures of convergence in internal coordinates in au.
  Criteria marked as inactive (o), active & met (*), and active & unmet ( ).
  ---------------------------------------------------------------------------------------------
   Step     Total Energy     Delta E     MAX Force     RMS Force      MAX Disp      RMS Disp   
  ---------------------------------------------------------------------------------------------
    Convergence Criteria             o    2.00e-06 *    1.00e-06 *    6.00e-06 *    4.00e-06 *
  ---------------------------------------------------------------------------------------------
     31    -314.98027569   -5.60e-10 o    7.80e-07 *    1.80e-07 *    5.33e-06 *    2.16e-06 *  ~
  ---------------------------------------------------------------------------------------------


  **** Optimization is complete! (in 31 steps) ****

  ==> Optimization Summary <==

  Measures of convergence in internal coordinates in au.
  --------------------------------------------------------------------------------------------------------------- ~
   Step         Total Energy             Delta E       MAX Force       RMS Force        MAX Disp        RMS Disp  ~
  --------------------------------------------------------------------------------------------------------------- ~
      1    -314.980275690597   -314.980275690597      0.00000336      0.00000070      0.00014950      0.00005115  ~
      2    -314.980275689305      0.000000001292      0.00000309      0.00000079      0.00012280      0.00004538  ~
      3    -314.980275689583     -0.000000000278      0.00000485      0.00000105      0.00008907      0.00003067  ~
      4    -314.980275686758      0.000000002825      0.00000182      0.00000044      0.00008794      0.00003088  ~
      5    -314.980275684958      0.000000001800      0.00000362      0.00000085      0.00006058      0.00002363  ~
      6    -314.980275692118     -0.000000007160      0.00000062      0.00000017      0.00003230      0.00001156  ~
      7    -314.980275690893      0.000000001225      0.00000192      0.00000031      0.00001268      0.00000544  ~
      8    -314.980275689431      0.000000001462      0.00000197      0.00000044      0.00002975      0.00000832  ~
      9    -314.980275688059      0.000000001372      0.00000046      0.00000013      0.00001014      0.00000346  ~
     10    -314.980275686982      0.000000001077      0.00000099      0.00000021      0.00001393      0.00000475  ~
     11    -314.980275688888     -0.000000001906      0.00000064      0.00000013      0.00001230      0.00000387  ~
     12    -314.980275690940     -0.000000002051      0.00000048      0.00000011      0.00001753      0.00000520  ~
     13    -314.980275686777      0.000000004163      0.00000050      0.00000015      0.00002341      0.00000787  ~
     14    -314.980275687874     -0.000000001097      0.00000086      0.00000022      0.00002095      0.00000675  ~
     15    -314.980275693667     -0.000000005793      0.00000081      0.00000020      0.00003209      0.00000870  ~
     16    -314.980275687614      0.000000006053      0.00000188      0.00000041      0.00001758      0.00000511  ~
     17    -314.980275690705     -0.000000003092      0.00000151      0.00000032      0.00002041      0.00000517  ~
     18    -314.980275694136     -0.000000003431      0.00000188      0.00000040      0.00001703      0.00000442  ~
     19    -314.980275687508      0.000000006628      0.00000067      0.00000016      0.00000889      0.00000367  ~
     20    -314.980275690139     -0.000000002631      0.00000175      0.00000033      0.00001302      0.00000536  ~
     21    -314.980275684139      0.000000005999      0.00000341      0.00000073      0.00001238      0.00000335  ~
     22    -314.980275690887     -0.000000006748      0.00000038      0.00000009      0.00000818      0.00000269  ~
     23    -314.980275690917     -0.000000000030      0.00000039      0.00000008      0.00000872      0.00000233  ~
     24    -314.980275686085      0.000000004832      0.00000131      0.00000032      0.00001047      0.00000492  ~
     25    -314.980275687726     -0.000000001641      0.00000191      0.00000037      0.00001502      0.00000546  ~
     26    -314.980275691882     -0.000000004156      0.00000057      0.00000011      0.00000818      0.00000313  ~
     27    -314.980275692489     -0.000000000607      0.00000031      0.00000008      0.00000690      0.00000239  ~
     28    -314.980275690073      0.000000002416      0.00000128      0.00000023      0.00000756      0.00000350  ~
     29    -314.980275692974     -0.000000002901      0.00000082      0.00000016      0.00000865      0.00000283  ~
     30    -314.980275689660      0.000000003314      0.00000147      0.00000028      0.00000779      0.00000254  ~
     31    -314.980275690220     -0.000000000560      0.00000078      0.00000018      0.00000533      0.00000216  ~
  --------------------------------------------------------------------------------------------------------------- ~

	Writing optimization data to binary file.
	Final energy is   -314.9802756902201
	Final (previous) structure:
	Cartesian Geometry (in Angstrom)
	    C     3.0944489478   0.0738575813   0.5624008468
	    H     3.7375924766   0.6402114868   1.2355055142
	    H     3.7027894857  -0.2634717103  -0.2787435748
	    H     2.7512331568  -0.8093669340   1.1005845506
	    C    -2.0261577151   1.5697637927   0.3553984421
	    H    -2.3752728193   2.4555460091  -0.1752121726
	    H    -0.9613407488   1.6985114388   0.5474262137
	    H    -2.5351685056   1.5349091840   1.3202523525
	    C     1.9243179020   0.9229817871   0.0781509724
	    H     2.3041285585   1.8592885047  -0.3370548106
	    H     1.3033667505   1.2031652028   0.9321413396
	    C    -2.3049831694   0.3014646897  -0.4429147879
	    H    -3.3716680148   0.2526803328  -0.6744169251
	    H    -1.7895558390   0.3435395483  -1.4049640170
	    C     1.0743336631   0.2337437579  -0.9898993921
	    H     1.6959760382   0.0841455425  -1.8782210094
	    H     0.2680629594   0.9053779731  -1.2897523949
	    C     0.5052842369  -1.1255765822  -0.5715350405
	    H     1.3429775935  -1.7974868068  -0.3739803690
	    H    -0.0295831753  -1.5614412019  -1.4212002876
	    C    -0.4294274584  -1.1109782344   0.6462623728
	    H    -0.3079209800  -2.0469459394   1.1964042204
	    H    -0.1332246030  -0.3211177103   1.3401933503
	    C    -1.9135053561  -0.9748586562   0.2987567140
	    H    -2.2030088816  -1.8389707518  -0.3064421679
	    H    -2.4981680988  -1.0335635493   1.2221334715
	Saving final (previous) structure.
			--------------------------
			 OPTKING Finished Execution 
			--------------------------

    Final optimized geometry and variables:
    Molecular point group: c1
    Full point group: C1

    Geometry (in Angstrom), charge = 0, multiplicity = 1:

    C            3.094448947783     0.073857581347     0.562400846793
    H            3.737592476573     0.640211486818     1.235505514155
    H            3.702789485665    -0.263471710251    -0.278743574758
    H            2.751233156835    -0.809366934010     1.100584550581
    C           -2.026157715147     1.569763792673     0.355398442097
    H           -2.375272819330     2.455546009067    -0.175212172599
    H           -0.961340748809     1.698511438785     0.547426213718
    H           -2.535168505584     1.534909184008     1.320252352474
    C            1.924317901998     0.922981787115     0.078150972353
    H            2.304128558484     1.859288504723    -0.337054810584
    H            1.303366750529     1.203165202788     0.932141339593
    C           -2.304983169391     0.301464689662    -0.442914787923
    H           -3.371668014793     0.252680332794    -0.674416925064
    H           -1.789555839018     0.343539548278    -1.404964016971
    C            1.074333663056     0.233743757858    -0.989899392050
    H            1.695976038207     0.084145542477    -1.878221009425
    H            0.268062959422     0.905377973062    -1.289752394926
    C            0.505284236893    -1.125576582154    -0.571535040543
    H            1.342977593524    -1.797486806807    -0.373980368987
    H           -0.029583175313    -1.561441201938    -1.421200287648
    C           -0.429427458412    -1.110978234407     0.646262372815
    H           -0.307920980004    -2.046945939444     1.196404220415
    H           -0.133224603029    -0.321117710251     1.340193350284
    C           -1.913505356112    -0.974858656174     0.298756713963
    H           -2.203008881633    -1.838970751752    -0.306442167944
    H           -2.498168098763    -1.033563549334     1.222133471474

	Cleaning optimization helper files.

*** Psi4 exiting successfully. Buy a developer a beer!
