    -----------------------------------------------------------------------
          Psi4: An Open-Source Ab Initio Electronic Structure Package
                              Psi4 1.0.0 Driver

                          Git: Rev {master} 6a9a71b dirty

    J. M. Turney, A. C. Simmonett, R. M. Parrish, E. G. Hohenstein,
    F. A. Evangelista, J. T. Fermann, B. J. Mintz, L. A. Burns, J. J. Wilke,
    M. L. Abrams, N. J. Russ, M. L. Leininger, C. L. Janssen, E. T. Seidl,
    W. D. Allen, H. F. Schaefer, R. A. King, E. F. Valeev, C. D. Sherrill,
    and T. D. Crawford, WIREs Comput. Mol. Sci. 2, 556-565 (2012)
    (doi: 10.1002/wcms.93)

                         Additional Contributions by
    A. E. DePrince, U. Bozkaya, A. Yu. Sokolov, D. G. A. Smith, R. Di Remigio,
    R. M. Richard, J. F. Gonthier, H. R. McAlexander, M. Saitow, and
    B. P. Pritchard
    -----------------------------------------------------------------------


    Psi4 started on: Wed Sep 21 04:57:33 2016

    Process ID:  37517
    PSI4DATADIR: /usr/local/hpc5/psi4conda/share/psi4
    Memory level set to 256.000 MB

  ==> Input File <==

--------------------------------------------------------------------------
memory 60 Gb

molecule molecule_85_psi {
0 1
C            2.640243251955    -0.974445208196    -0.636628057091
H            3.560390422352    -0.488241661629    -0.307610983025
H            2.297763139555    -0.462938095711    -1.535994160318
H            2.883332437000    -2.000163424014    -0.912960633615
C           -2.300458585945    -1.477372788674    -0.395254858047
H           -1.461079702604    -1.660947065317    -1.066093954984
H           -2.544353545475    -2.421794542383     0.091011684699
H           -3.154766097765    -1.184286821750    -1.007746822048
C            1.585182635610    -0.936900491932     0.463839823941
H            1.914827503335    -1.555554942591     1.301820099727
H            0.662075341410    -1.390067640869     0.095940931254
C           -1.979926969991    -0.396035192057     0.630999938752
H           -2.833362590896    -0.286307984709     1.304547837210
H           -1.141267082210    -0.715096595699     1.250443977523
C            1.306201908087     0.474555432038     0.978542660863
H            2.222925002544     0.867541903358     1.428996982669
H            0.568561504471     0.431967567663     1.783270289075
C            0.839167835071     1.456772968376    -0.095720599611
H            1.649960923631     1.614894583517    -0.811342896912
H            0.658610620421     2.427944501361     0.374531991280
C           -0.420875162390     1.052841906053    -0.863694928540
H           -0.579084995292     1.800428096157    -1.644493132006
H           -0.253726727608     0.109303116865    -1.389232983438
C           -1.691208777491     0.965167066481    -0.006829356843
H           -1.637341807238     1.729628657416     0.774540514112
H           -2.555397347054     1.224020522502    -0.625672649957
}

set globals {
  reference rhf
  g_convergence gau_verytight
  basis aug-cc-pvtz
  freeze_core true
  scf_type df
  mp_type df
}
optimize('mp2')
--------------------------------------------------------------------------
/usr/local/hpc5/psi4conda/lib/python2.7/site-packages/v2rdm_casscf/v2rdm_casscf.so loaded.

  Memory set to  60.000 GiB by Python script.
gradient() will perform analytic gradient computation.

*** tstart() called on wr34
*** at Wed Sep 21 04:57:34 2016


         ---------------------------------------------------------
                                   SCF
            by Justin Turney, Rob Parrish, and Andy Simmonett
                              RHF Reference
                       12 Threads,  60000 MiB Core
         ---------------------------------------------------------

  ==> Geometry <==

    Molecular point group: c1
    Full point group: C1

    Geometry (in Angstrom), charge = 0, multiplicity = 1:

       Center              X                  Y                   Z               Mass       
    ------------   -----------------  -----------------  -----------------  -----------------
           C          2.640243251955    -0.974445208196    -0.636628057091    12.000000000000
           H          3.560390422352    -0.488241661629    -0.307610983025     1.007825032070
           H          2.297763139555    -0.462938095711    -1.535994160318     1.007825032070
           H          2.883332437000    -2.000163424014    -0.912960633615     1.007825032070
           C         -2.300458585945    -1.477372788674    -0.395254858047    12.000000000000
           H         -1.461079702604    -1.660947065317    -1.066093954984     1.007825032070
           H         -2.544353545475    -2.421794542383     0.091011684699     1.007825032070
           H         -3.154766097765    -1.184286821750    -1.007746822048     1.007825032070
           C          1.585182635610    -0.936900491932     0.463839823941    12.000000000000
           H          1.914827503335    -1.555554942591     1.301820099727     1.007825032070
           H          0.662075341410    -1.390067640869     0.095940931254     1.007825032070
           C         -1.979926969991    -0.396035192057     0.630999938752    12.000000000000
           H         -2.833362590896    -0.286307984709     1.304547837210     1.007825032070
           H         -1.141267082210    -0.715096595699     1.250443977523     1.007825032070
           C          1.306201908087     0.474555432038     0.978542660863    12.000000000000
           H          2.222925002544     0.867541903358     1.428996982669     1.007825032070
           H          0.568561504471     0.431967567663     1.783270289075     1.007825032070
           C          0.839167835071     1.456772968376    -0.095720599611    12.000000000000
           H          1.649960923631     1.614894583517    -0.811342896912     1.007825032070
           H          0.658610620421     2.427944501361     0.374531991280     1.007825032070
           C         -0.420875162390     1.052841906053    -0.863694928540    12.000000000000
           H         -0.579084995292     1.800428096157    -1.644493132006     1.007825032070
           H         -0.253726727608     0.109303116865    -1.389232983438     1.007825032070
           C         -1.691208777491     0.965167066481    -0.006829356843    12.000000000000
           H         -1.637341807238     1.729628657416     0.774540514112     1.007825032070
           H         -2.555397347054     1.224020522502    -0.625672649957     1.007825032070

  Running in c1 symmetry.

  Rotational constants: A =      0.08583  B =      0.03981  C =      0.03330 [cm^-1]
  Rotational constants: A =   2573.11786  B =   1193.32587  C =    998.39339 [MHz]
  Nuclear repulsion =  410.955457623821189

  Charge       = 0
  Multiplicity = 1
  Electrons    = 66
  Nalpha       = 33
  Nbeta        = 33

  ==> Algorithm <==

  SCF Algorithm Type is DF.
  DIIS enabled.
  MOM disabled.
  Fractional occupation disabled.
  Guess Type is SAD.
  Energy threshold   = 1.00e-10
  Density threshold  = 1.00e-10
  Integral threshold = 0.00e+00

  ==> Primary Basis <==

  Basis Set: AUG-CC-PVTZ
    Number of shells: 274
    Number of basis function: 782
    Number of Cartesian functions: 890
    Spherical Harmonics?: true
    Max angular momentum: 3

  ==> Pre-Iterations <==

   -------------------------------------------------------
    Irrep   Nso     Nmo     Nalpha   Nbeta   Ndocc  Nsocc
   -------------------------------------------------------
     A        782     782       0       0       0       0
   -------------------------------------------------------
    Total     782     782      33      33      33       0
   -------------------------------------------------------

  ==> Integral Setup <==

  ==> DFJK: Density-Fitted J/K Matrices <==

    J tasked:                  Yes
    K tasked:                  Yes
    wK tasked:                  No
    OpenMP threads:             12
    Integrals threads:          12
    Memory (MB):             42915
    Algorithm:                Core
    Integral Cache:           NONE
    Schwarz Cutoff:          1E-12
    Fitting Condition:       1E-12

   => Auxiliary Basis Set <=

  Basis Set: 
    Number of shells: 492
    Number of basis function: 1660
    Number of Cartesian functions: 2038
    Spherical Harmonics?: true
    Max angular momentum: 4

  Minimum eigenvalue in the overlap matrix is 1.4352916870E-06.
  Using Symmetric Orthogonalization.
  SCF Guess: Superposition of Atomic Densities via on-the-fly atomic UHF.

  ==> Iterations <==

                           Total Energy        Delta E     RMS |[F,P]|

   @DF-RHF iter   0:  -317.26709477061479   -3.17267e+02   7.14861e-03 
   @DF-RHF iter   1:  -313.30522269697030    3.96187e+00   6.81061e-04 
   @DF-RHF iter   2:  -313.50722482170522   -2.02002e-01   2.36585e-04 DIIS
   @DF-RHF iter   3:  -313.52955266641038   -2.23278e-02   9.73871e-05 DIIS
   @DF-RHF iter   4:  -313.53394079237137   -4.38813e-03   1.68319e-05 DIIS
   @DF-RHF iter   5:  -313.53412491547772   -1.84123e-04   4.35563e-06 DIIS
   @DF-RHF iter   6:  -313.53413698797067   -1.20725e-05   1.38442e-06 DIIS
   @DF-RHF iter   7:  -313.53413802510875   -1.03714e-06   3.21043e-07 DIIS
   @DF-RHF iter   8:  -313.53413809612573   -7.10170e-08   8.50483e-08 DIIS
   @DF-RHF iter   9:  -313.53413810104746   -4.92173e-09   2.30252e-08 DIIS
   @DF-RHF iter  10:  -313.53413810140819   -3.60728e-10   6.31578e-09 DIIS
   @DF-RHF iter  11:  -313.53413810143377   -2.55795e-11   1.57951e-09 DIIS
   @DF-RHF iter  12:  -313.53413810143491   -1.13687e-12   3.53576e-10 DIIS
   @DF-RHF iter  13:  -313.53413810143502   -1.13687e-13   9.41618e-11 DIIS

  ==> Post-Iterations <==

    Orbital Energies (a.u.)
    -----------------------

    Doubly Occupied:                                                      

       1A    -11.212185     2A    -11.212101     3A    -11.211194  
       4A    -11.210393     5A    -11.209927     6A    -11.209430  
       7A    -11.207213     8A    -11.207127     9A     -1.095126  
      10A     -1.056698    11A     -1.006706    12A     -0.945484  
      13A     -0.893738    14A     -0.838081    15A     -0.785040  
      16A     -0.741859    17A     -0.648552    18A     -0.640998  
      19A     -0.605281    20A     -0.597897    21A     -0.577005  
      22A     -0.550912    23A     -0.548810    24A     -0.535884  
      25A     -0.512060    26A     -0.506520    27A     -0.494007  
      28A     -0.473282    29A     -0.465292    30A     -0.460572  
      31A     -0.440611    32A     -0.437469    33A     -0.433117  

    Virtual:                                                              

      34A      0.028710    35A      0.033098    36A      0.033924  
      37A      0.035055    38A      0.047463    39A      0.048849  
      40A      0.050010    41A      0.052638    42A      0.054642  
      43A      0.069464    44A      0.071230    45A      0.072512  
      46A      0.074268    47A      0.077760    48A      0.080207  
      49A      0.090759    50A      0.098598    51A      0.099837  
      52A      0.113998    53A      0.119481    54A      0.121472  
      55A      0.125700    56A      0.132198    57A      0.133622  
      58A      0.134846    59A      0.135949    60A      0.139595  
      61A      0.142491    62A      0.144940    63A      0.147722  
      64A      0.150821    65A      0.157872    66A      0.163031  
      67A      0.167298    68A      0.170436    69A      0.173626  
      70A      0.176774    71A      0.182266    72A      0.184996  
      73A      0.187439    74A      0.188110    75A      0.193077  
      76A      0.195029    77A      0.205197    78A      0.213438  
      79A      0.222693    80A      0.232505    81A      0.235743  
      82A      0.249431    83A      0.254418    84A      0.265271  
      85A      0.270863    86A      0.281100    87A      0.285833  
      88A      0.289859    89A      0.294572    90A      0.298731  
      91A      0.301195    92A      0.306804    93A      0.314682  
      94A      0.316410    95A      0.319437    96A      0.323536  
      97A      0.326035    98A      0.329520    99A      0.334558  
     100A      0.339112   101A      0.342898   102A      0.346344  
     103A      0.350134   104A      0.354003   105A      0.358221  
     106A      0.361903   107A      0.367388   108A      0.369717  
     109A      0.372191   110A      0.375835   111A      0.376797  
     112A      0.380608   113A      0.384120   114A      0.392452  
     115A      0.396889   116A      0.397523   117A      0.402409  
     118A      0.410726   119A      0.413085   120A      0.413903  
     121A      0.419993   122A      0.425081   123A      0.433990  
     124A      0.438503   125A      0.439545   126A      0.445626  
     127A      0.446737   128A      0.451790   129A      0.455809  
     130A      0.461413   131A      0.462915   132A      0.465572  
     133A      0.469111   134A      0.471077   135A      0.477184  
     136A      0.481119   137A      0.484402   138A      0.489445  
     139A      0.495177   140A      0.496251   141A      0.499091  
     142A      0.502655   143A      0.507665   144A      0.509172  
     145A      0.515905   146A      0.519916   147A      0.526076  
     148A      0.527848   149A      0.528958   150A      0.541768  
     151A      0.543201   152A      0.547197   153A      0.552657  
     154A      0.557104   155A      0.558373   156A      0.566378  
     157A      0.573226   158A      0.576263   159A      0.579297  
     160A      0.583961   161A      0.586870   162A      0.592535  
     163A      0.596103   164A      0.601596   165A      0.607628  
     166A      0.611226   167A      0.617945   168A      0.620970  
     169A      0.624795   170A      0.629436   171A      0.629662  
     172A      0.633687   173A      0.639027   174A      0.645364  
     175A      0.650217   176A      0.655347   177A      0.660022  
     178A      0.672086   179A      0.680591   180A      0.684084  
     181A      0.689322   182A      0.690754   183A      0.696191  
     184A      0.704192   185A      0.710489   186A      0.713032  
     187A      0.717280   188A      0.722704   189A      0.723850  
     190A      0.730814   191A      0.739488   192A      0.741868  
     193A      0.746394   194A      0.753506   195A      0.759004  
     196A      0.760900   197A      0.767463   198A      0.768806  
     199A      0.777663   200A      0.786926   201A      0.798962  
     202A      0.802981   203A      0.813407   204A      0.828885  
     205A      0.835054   206A      0.842359   207A      0.849115  
     208A      0.855376   209A      0.862435   210A      0.865339  
     211A      0.874522   212A      0.879411   213A      0.884494  
     214A      0.889141   215A      0.891029   216A      0.903909  
     217A      0.908430   218A      0.911973   219A      0.915920  
     220A      0.921104   221A      0.927060   222A      0.930282  
     223A      0.935298   224A      0.939038   225A      0.946731  
     226A      0.949597   227A      0.957046   228A      0.960546  
     229A      0.967678   230A      0.975853   231A      0.977677  
     232A      0.984034   233A      0.987262   234A      0.991816  
     235A      0.995425   236A      0.997856   237A      1.006401  
     238A      1.012300   239A      1.017398   240A      1.024539  
     241A      1.026897   242A      1.036415   243A      1.042924  
     244A      1.044828   245A      1.050304   246A      1.057700  
     247A      1.064104   248A      1.067136   249A      1.081959  
     250A      1.082972   251A      1.088630   252A      1.089935  
     253A      1.096423   254A      1.101823   255A      1.107405  
     256A      1.109845   257A      1.119185   258A      1.124670  
     259A      1.129288   260A      1.134242   261A      1.142518  
     262A      1.146180   263A      1.151036   264A      1.158053  
     265A      1.160863   266A      1.167667   267A      1.180151  
     268A      1.181769   269A      1.186810   270A      1.189639  
     271A      1.195582   272A      1.204289   273A      1.210567  
     274A      1.215632   275A      1.216717   276A      1.224342  
     277A      1.227600   278A      1.234408   279A      1.242163  
     280A      1.245164   281A      1.248958   282A      1.253030  
     283A      1.257859   284A      1.265971   285A      1.276037  
     286A      1.278883   287A      1.286134   288A      1.290342  
     289A      1.292604   290A      1.301314   291A      1.306493  
     292A      1.307299   293A      1.310140   294A      1.315517  
     295A      1.321616   296A      1.331111   297A      1.340588  
     298A      1.343580   299A      1.350306   300A      1.355987  
     301A      1.359704   302A      1.367852   303A      1.374537  
     304A      1.386068   305A      1.394754   306A      1.398165  
     307A      1.403213   308A      1.410959   309A      1.420886  
     310A      1.429691   311A      1.431895   312A      1.435387  
     313A      1.457642   314A      1.465638   315A      1.469200  
     316A      1.471193   317A      1.480215   318A      1.484261  
     319A      1.488799   320A      1.497219   321A      1.505328  
     322A      1.509372   323A      1.520560   324A      1.528675  
     325A      1.533486   326A      1.537402   327A      1.550614  
     328A      1.552309   329A      1.566031   330A      1.570020  
     331A      1.574400   332A      1.586858   333A      1.592809  
     334A      1.601249   335A      1.603746   336A      1.608586  
     337A      1.617564   338A      1.624660   339A      1.631351  
     340A      1.642797   341A      1.648115   342A      1.660413  
     343A      1.661947   344A      1.663604   345A      1.669488  
     346A      1.682546   347A      1.685616   348A      1.689048  
     349A      1.697998   350A      1.710922   351A      1.711945  
     352A      1.722391   353A      1.724835   354A      1.731541  
     355A      1.737445   356A      1.738753   357A      1.746545  
     358A      1.754015   359A      1.763458   360A      1.773932  
     361A      1.775707   362A      1.778548   363A      1.792027  
     364A      1.795399   365A      1.806028   366A      1.808695  
     367A      1.821764   368A      1.826490   369A      1.832125  
     370A      1.836290   371A      1.840465   372A      1.842949  
     373A      1.852300   374A      1.855182   375A      1.865653  
     376A      1.867786   377A      1.875890   378A      1.880092  
     379A      1.884656   380A      1.890976   381A      1.895041  
     382A      1.906879   383A      1.911431   384A      1.918376  
     385A      1.919775   386A      1.927141   387A      1.932522  
     388A      1.944661   389A      1.953612   390A      1.960646  
     391A      1.968371   392A      1.970073   393A      1.979248  
     394A      1.987175   395A      1.994284   396A      2.002842  
     397A      2.014135   398A      2.018985   399A      2.023723  
     400A      2.025149   401A      2.039338   402A      2.046674  
     403A      2.047911   404A      2.055630   405A      2.063124  
     406A      2.068201   407A      2.081631   408A      2.090351  
     409A      2.095280   410A      2.102311   411A      2.104802  
     412A      2.108828   413A      2.123508   414A      2.126011  
     415A      2.128703   416A      2.133537   417A      2.145842  
     418A      2.148021   419A      2.161228   420A      2.169079  
     421A      2.182414   422A      2.186146   423A      2.198471  
     424A      2.210127   425A      2.215397   426A      2.222888  
     427A      2.242362   428A      2.244886   429A      2.249084  
     430A      2.264979   431A      2.271436   432A      2.280478  
     433A      2.286792   434A      2.298731   435A      2.306105  
     436A      2.313904   437A      2.317521   438A      2.328351  
     439A      2.343552   440A      2.349771   441A      2.361587  
     442A      2.369126   443A      2.379710   444A      2.383920  
     445A      2.389446   446A      2.402224   447A      2.406934  
     448A      2.418934   449A      2.426010   450A      2.430447  
     451A      2.442325   452A      2.458370   453A      2.465648  
     454A      2.477895   455A      2.488662   456A      2.495657  
     457A      2.507631   458A      2.514968   459A      2.529767  
     460A      2.537229   461A      2.544984   462A      2.549215  
     463A      2.561877   464A      2.564471   465A      2.587992  
     466A      2.595113   467A      2.598421   468A      2.611774  
     469A      2.629935   470A      2.632162   471A      2.643229  
     472A      2.660936   473A      2.673855   474A      2.679591  
     475A      2.688392   476A      2.711628   477A      2.717159  
     478A      2.729010   479A      2.744725   480A      2.747747  
     481A      2.776774   482A      2.805760   483A      2.840396  
     484A      2.868681   485A      2.961395   486A      2.985871  
     487A      3.018079   488A      3.060638   489A      3.107638  
     490A      3.157035   491A      3.237371   492A      3.254425  
     493A      3.270928   494A      3.327099   495A      3.357705  
     496A      3.398448   497A      3.428751   498A      3.448370  
     499A      3.457860   500A      3.484961   501A      3.508683  
     502A      3.512427   503A      3.520441   504A      3.544842  
     505A      3.548864   506A      3.565385   507A      3.582103  
     508A      3.595652   509A      3.611919   510A      3.620420  
     511A      3.631344   512A      3.640004   513A      3.653712  
     514A      3.662946   515A      3.686204   516A      3.693121  
     517A      3.702105   518A      3.715141   519A      3.720681  
     520A      3.735323   521A      3.737620   522A      3.750161  
     523A      3.757583   524A      3.763634   525A      3.768643  
     526A      3.775416   527A      3.785796   528A      3.804120  
     529A      3.805588   530A      3.811956   531A      3.817881  
     532A      3.823829   533A      3.839384   534A      3.839865  
     535A      3.853798   536A      3.863440   537A      3.867752  
     538A      3.876558   539A      3.883107   540A      3.890077  
     541A      3.894640   542A      3.910089   543A      3.917029  
     544A      3.932547   545A      3.943941   546A      3.952353  
     547A      3.964836   548A      3.977703   549A      3.980661  
     550A      3.988509   551A      3.993398   552A      3.997476  
     553A      4.009109   554A      4.013674   555A      4.020792  
     556A      4.023447   557A      4.026149   558A      4.035210  
     559A      4.040452   560A      4.049076   561A      4.056405  
     562A      4.062247   563A      4.073566   564A      4.075708  
     565A      4.086504   566A      4.098095   567A      4.099869  
     568A      4.109878   569A      4.114396   570A      4.124707  
     571A      4.133328   572A      4.134929   573A      4.144553  
     574A      4.152596   575A      4.164205   576A      4.174024  
     577A      4.186814   578A      4.192156   579A      4.199573  
     580A      4.207062   581A      4.223235   582A      4.228768  
     583A      4.234604   584A      4.239775   585A      4.243104  
     586A      4.257011   587A      4.268740   588A      4.272630  
     589A      4.279532   590A      4.296731   591A      4.300283  
     592A      4.307959   593A      4.310718   594A      4.337746  
     595A      4.342126   596A      4.353123   597A      4.369388  
     598A      4.377935   599A      4.381031   600A      4.388744  
     601A      4.403573   602A      4.416458   603A      4.423549  
     604A      4.427828   605A      4.437122   606A      4.451903  
     607A      4.455163   608A      4.478715   609A      4.481903  
     610A      4.498075   611A      4.511429   612A      4.523282  
     613A      4.545882   614A      4.556594   615A      4.570542  
     616A      4.587087   617A      4.592678   618A      4.629498  
     619A      4.630515   620A      4.637820   621A      4.644411  
     622A      4.668165   623A      4.673237   624A      4.675726  
     625A      4.692499   626A      4.708819   627A      4.710630  
     628A      4.724281   629A      4.733278   630A      4.752995  
     631A      4.762801   632A      4.775968   633A      4.783133  
     634A      4.797880   635A      4.806927   636A      4.811840  
     637A      4.828437   638A      4.829984   639A      4.843131  
     640A      4.857082   641A      4.868881   642A      4.885373  
     643A      4.888385   644A      4.899361   645A      4.920368  
     646A      4.926720   647A      4.931679   648A      4.942263  
     649A      4.959810   650A      4.965509   651A      4.984025  
     652A      4.990710   653A      5.001242   654A      5.004928  
     655A      5.020713   656A      5.025931   657A      5.045076  
     658A      5.049824   659A      5.067928   660A      5.079558  
     661A      5.089215   662A      5.110955   663A      5.119604  
     664A      5.147683   665A      5.159293   666A      5.172427  
     667A      5.185197   668A      5.196110   669A      5.213290  
     670A      5.219499   671A      5.228260   672A      5.239425  
     673A      5.246640   674A      5.258077   675A      5.266256  
     676A      5.272794   677A      5.284897   678A      5.296922  
     679A      5.307742   680A      5.315494   681A      5.330182  
     682A      5.333599   683A      5.351812   684A      5.377102  
     685A      5.383378   686A      5.387737   687A      5.392212  
     688A      5.408749   689A      5.414553   690A      5.421125  
     691A      5.427882   692A      5.438916   693A      5.445196  
     694A      5.456784   695A      5.474057   696A      5.475800  
     697A      5.480513   698A      5.503442   699A      5.514885  
     700A      5.519720   701A      5.528359   702A      5.550477  
     703A      5.566810   704A      5.584784   705A      5.607295  
     706A      5.617969   707A      5.626656   708A      5.635360  
     709A      5.639674   710A      5.667961   711A      5.674931  
     712A      5.686795   713A      5.693776   714A      5.700419  
     715A      5.705447   716A      5.730648   717A      5.740105  
     718A      5.747531   719A      5.762039   720A      5.768487  
     721A      5.781177   722A      5.792502   723A      5.805941  
     724A      5.812196   725A      5.819780   726A      5.836022  
     727A      5.861237   728A      5.877962   729A      5.907886  
     730A      5.913535   731A      5.931427   732A      5.949178  
     733A      5.976494   734A      5.981453   735A      6.044388  
     736A      6.064079   737A      6.069303   738A      6.077896  
     739A      6.104425   740A      6.125349   741A      6.134908  
     742A      6.153794   743A      6.181930   744A      6.212482  
     745A      6.228895   746A      6.264718   747A      6.289049  
     748A      6.298381   749A      6.313698   750A      6.332056  
     751A      6.351991   752A      6.356136   753A      6.366153  
     754A      6.371992   755A      6.406701   756A      6.433413  
     757A      6.438078   758A      6.463095   759A      6.620435  
     760A      6.670357   761A      6.685574   762A      6.722491  
     763A      6.747423   764A      6.804897   765A      6.880868  
     766A      6.906964   767A      6.923659   768A      6.942499  
     769A      7.030364   770A      7.045837   771A      7.089214  
     772A      7.130997   773A      7.147850   774A      7.188579  
     775A     18.166504   776A     18.256842   777A     18.338184  
     778A     18.533482   779A     18.570796   780A     19.388428  
     781A     19.669560   782A     19.924028  

    Final Occupation by Irrep:
              A 
    DOCC [    33 ]

  Energy converged.

  @DF-RHF Final Energy:  -313.53413810143502

   => Energetics <=

    Nuclear Repulsion Energy =            410.9554576238211894
    One-Electron Energy =               -1237.0380506373580829
    Two-Electron Energy =                 512.5484549121017608
    DFT Exchange-Correlation Energy =       0.0000000000000000
    Empirical Dispersion Energy =           0.0000000000000000
    PCM Polarization Energy =               0.0000000000000000
    EFP Energy =                            0.0000000000000000
    Total Energy =                       -313.5341381014351327


  Saving occupied orbitals to File 180.

*** tstop() called on wr34 at Wed Sep 21 04:59:05 2016
Module time:
	user time   =     986.28 seconds =      16.44 minutes
	system time =      11.57 seconds =       0.19 minutes
	total time  =         91 seconds =       1.52 minutes
Total time:
	user time   =     986.28 seconds =      16.44 minutes
	system time =      11.57 seconds =       0.19 minutes
	total time  =         91 seconds =       1.52 minutes


Properties will be evaluated at   0.000000,   0.000000,   0.000000 Bohr

Properties computed using the SCF density matrix

  Nuclear Dipole Moment: (a.u.)
     X:     0.2419      Y:    -1.8371      Z:    -0.8400

  Electronic Dipole Moment: (a.u.)
     X:    -0.2548      Y:     1.8506      Z:     0.8714

  Dipole Moment: (a.u.)
     X:    -0.0129      Y:     0.0134      Z:     0.0314     Total:     0.0365

  Dipole Moment: (Debye)
     X:    -0.0327      Y:     0.0341      Z:     0.0799     Total:     0.0928


  //>>>>>>>>>>>>>>>>>>>>>>>>>>>>>>>>>>>//
  //               DFMP2               //
  //<<<<<<<<<<<<<<<<<<<<<<<<<<<<<<<<<<<//


*** tstart() called on wr34
*** at Wed Sep 21 04:59:05 2016


*** tstop() called on wr34 at Wed Sep 21 04:59:06 2016
Module time:
	user time   =       5.01 seconds =       0.08 minutes
	system time =       0.12 seconds =       0.00 minutes
	total time  =          1 seconds =       0.02 minutes
Total time:
	user time   =     992.17 seconds =      16.54 minutes
	system time =      11.73 seconds =       0.20 minutes
	total time  =         92 seconds =       1.53 minutes
	 --------------------------------------------------------
	                          DF-MP2                         
	      2nd-Order Density-Fitted Moller-Plesset Theory     
	              RMP2 Wavefunction,  12 Threads             
	                                                         
	        Rob Parrish, Justin Turney, Andy Simmonett,      
	           Ed Hohenstein, and C. David Sherrill          
	 --------------------------------------------------------

   => Auxiliary Basis Set <=

  Basis Set: 
    Number of shells: 476
    Number of basis function: 1676
    Number of Cartesian functions: 2078
    Spherical Harmonics?: true
    Max angular momentum: 4

	 --------------------------------------------------------
	                 NBF =   782, NAUX =  1676
	 --------------------------------------------------------
	   CLASS    FOCC     OCC    AOCC    AVIR     VIR    FVIR
	   PAIRS       8      33      25     749     749       0
	 --------------------------------------------------------

DGAS Warning! /src/lib/libfock/apps.cc:80 is not currently checking restricted

         ------------------------------------------------------------
                                     CPHF                           
                                  Rob Parrish                       
         ------------------------------------------------------------

  ==> Geometry <==

    Molecular point group: c1
    Full point group: C1

    Geometry (in Angstrom), charge = 0, multiplicity = 1:

       Center              X                  Y                   Z               Mass       
    ------------   -----------------  -----------------  -----------------  -----------------
           C          2.640243251955    -0.974445208196    -0.636628057091    12.000000000000
           H          3.560390422352    -0.488241661629    -0.307610983025     1.007825032070
           H          2.297763139555    -0.462938095711    -1.535994160318     1.007825032070
           H          2.883332437000    -2.000163424014    -0.912960633615     1.007825032070
           C         -2.300458585945    -1.477372788674    -0.395254858047    12.000000000000
           H         -1.461079702604    -1.660947065317    -1.066093954984     1.007825032070
           H         -2.544353545475    -2.421794542383     0.091011684699     1.007825032070
           H         -3.154766097765    -1.184286821750    -1.007746822048     1.007825032070
           C          1.585182635610    -0.936900491932     0.463839823941    12.000000000000
           H          1.914827503335    -1.555554942591     1.301820099727     1.007825032070
           H          0.662075341410    -1.390067640869     0.095940931254     1.007825032070
           C         -1.979926969991    -0.396035192057     0.630999938752    12.000000000000
           H         -2.833362590896    -0.286307984709     1.304547837210     1.007825032070
           H         -1.141267082210    -0.715096595699     1.250443977523     1.007825032070
           C          1.306201908087     0.474555432038     0.978542660863    12.000000000000
           H          2.222925002544     0.867541903358     1.428996982669     1.007825032070
           H          0.568561504471     0.431967567663     1.783270289075     1.007825032070
           C          0.839167835071     1.456772968376    -0.095720599611    12.000000000000
           H          1.649960923631     1.614894583517    -0.811342896912     1.007825032070
           H          0.658610620421     2.427944501361     0.374531991280     1.007825032070
           C         -0.420875162390     1.052841906053    -0.863694928540    12.000000000000
           H         -0.579084995292     1.800428096157    -1.644493132006     1.007825032070
           H         -0.253726727608     0.109303116865    -1.389232983438     1.007825032070
           C         -1.691208777491     0.965167066481    -0.006829356843    12.000000000000
           H         -1.637341807238     1.729628657416     0.774540514112     1.007825032070
           H         -2.555397347054     1.224020522502    -0.625672649957     1.007825032070

  Nuclear repulsion =  410.955457623821189
  Reference energy  = -313.534138101435019

  ==> Basis Set <==

  Basis Set: AUG-CC-PVTZ
    Number of shells: 274
    Number of basis function: 782
    Number of Cartesian functions: 890
    Spherical Harmonics?: true
    Max angular momentum: 3

  ==> CGRSolver (by Rob Parrish) <==

   Number of roots    =         1
   Preconditioning    =    JACOBI
   Convergence cutoff =     1E-06
   Maximum iterations =       100

  ==> CPHFRHamiltonian (by Rob Parrish) <== 

  ==> DFJK: Density-Fitted J/K Matrices <==

    J tasked:                  Yes
    K tasked:                  Yes
    wK tasked:                  No
    OpenMP threads:             12
    Integrals threads:          12
    Memory (MB):             42915
    Algorithm:                Core
    Integral Cache:           NONE
    Schwarz Cutoff:          1E-12
    Fitting Condition:       1E-12

   => Auxiliary Basis Set <=

  Basis Set: 
    Number of shells: 492
    Number of basis function: 1660
    Number of Cartesian functions: 2038
    Spherical Harmonics?: true
    Max angular momentum: 4

  ==> CPHF Iterations <==

  => Iterations <=

             Iter  Converged  Remaining    Residual
  CGR           1          0          1   9.555E-02
  CGR           2          0          1   1.397E-02
  CGR           3          0          1   4.250E-03
  CGR           4          0          1   9.089E-04
  CGR           5          0          1   2.254E-04
  CGR           6          0          1   4.699E-05
  CGR           7          0          1   1.241E-05
  CGR           8          0          1   3.262E-06
  CGR           9          1          0   8.267E-07

    CGRSolver converged.

  ==> DFCorrGrad: Density-Fitted Correlated Gradients <==

    OpenMP threads:             12
    Integrals threads:          12
    Memory (MB):             42915
    Schwarz Cutoff:          0E+00
    Fitting Condition:       1E-12

   => Auxiliary Basis Set <=

  Basis Set: 
    Number of shells: 492
    Number of basis function: 1660
    Number of Cartesian functions: 2038
    Spherical Harmonics?: true
    Max angular momentum: 4

	-----------------------------------------------------------
	 ==================> DF-MP2 Energies <==================== 
	-----------------------------------------------------------
	 Reference Energy          =    -313.5341381014350191 [Eh]
	 Singles Energy            =      -0.0000000000000004 [Eh]
	 Same-Spin Energy          =      -0.3183302890172320 [Eh]
	 Opposite-Spin Energy      =      -1.1281291155913991 [Eh]
	 Correlation Energy        =      -1.4464594046086314 [Eh]
	 Total Energy              =    -314.9805975060436367 [Eh]
	-----------------------------------------------------------
	 ================> DF-SCS-MP2 Energies <================== 
	-----------------------------------------------------------
	 SCS Same-Spin Scale       =       0.3333333333333333 [-]
	 SCS Opposite-Spin Scale   =       1.2000000000000000 [-]
	 SCS Same-Spin Energy      =      -0.1061100963390773 [Eh]
	 SCS Opposite-Spin Energy  =      -1.3537549387096788 [Eh]
	 SCS Correlation Energy    =      -1.4598650350487565 [Eh]
	 SCS Total Energy          =    -314.9940031364837978 [Eh]
	-----------------------------------------------------------


  -Total Gradient:
     Atom            X                  Y                   Z
    ------   -----------------  -----------------  -----------------
       1        0.000000027126    -0.000000056626     0.000000199575
       2        0.000000329184     0.000000140099     0.000000115182
       3       -0.000000183275     0.000000059920    -0.000000169540
       4        0.000000031127    -0.000000325845     0.000000016224
       5       -0.000000137559     0.000000160777     0.000000165175
       6        0.000000246480     0.000000056132    -0.000000078144
       7       -0.000000054124    -0.000000110429     0.000000199941
       8       -0.000000187472     0.000000052917    -0.000000084845
       9        0.000000328890     0.000000207141    -0.000000071456
      10        0.000000199992    -0.000000053312     0.000000238185
      11       -0.000000586971    -0.000000297908    -0.000000141186
      12       -0.000000154025    -0.000000118223    -0.000000338282
      13       -0.000000148673     0.000000098373    -0.000000024926
      14        0.000000490124    -0.000000065327     0.000000322420
      15       -0.000000127398    -0.000000162095    -0.000000588692
      16        0.000000354714     0.000000095454     0.000000131880
      17       -0.000000565525    -0.000000016826     0.000000461257
      18        0.000000047945     0.000000099424     0.000000105153
      19        0.000000254463     0.000000085442    -0.000000254165
      20       -0.000000005139     0.000000100245     0.000000036532
      21        0.000000038096    -0.000000068577    -0.000000497704
      22       -0.000000004711    -0.000000172048     0.000000007228
      23        0.000000110253     0.000000018768    -0.000000207168
      24        0.000000038966     0.000000026150     0.000000313641
      25       -0.000000078496     0.000000178746     0.000000244002
      26       -0.000000263993     0.000000067631    -0.000000100288


			-----------------------------------------
			 OPTKING 2.0: for geometry optimizations 
			  - R.A. King,  Bethel University        
			-----------------------------------------

	Internal coordinates to be generated automatically.
	Detected frag 1 with atoms:  1 2 3 4 5 6 7 8 9 10 11 12 13 14 15 16 17 18 19 20
	 21 22 23 24 25 26
	---Fragment 1 Bond Connectivity---
	 1 : 2 3 4 9
	 2 : 1
	 3 : 1
	 4 : 1
	 5 : 6 7 8 12
	 6 : 5
	 7 : 5
	 8 : 5
	 9 : 1 10 11 15
	 10 : 9
	 11 : 9
	 12 : 5 13 14 24
	 13 : 12
	 14 : 12
	 15 : 9 16 17 18
	 16 : 15
	 17 : 15
	 18 : 15 19 20 21
	 19 : 18
	 20 : 18
	 21 : 18 22 23 24
	 22 : 21
	 23 : 21
	 24 : 12 21 25 26
	 25 : 24
	 26 : 24

	---Fragment 1 Geometry and Gradient---
	 C           4.9893366704       -1.8414345750       -1.2030526764
	 H           6.7281628244       -0.9226430271       -0.5813005134
	 H           4.3421430520       -0.8748262174       -2.9026083047
	 H           5.4487086560       -3.7797610924       -1.7252455676
	 C          -4.3472367075       -2.7918299668       -0.7469234344
	 H          -2.7610404962       -3.1387350747       -2.0146256068
	 H          -4.8081313862       -4.5765284352        0.1719871590
	 H          -5.9616439381       -2.2379777559       -1.9043655050
	 C           2.9955610519       -1.7704853435        0.8765302368
	 H           3.6184995730       -2.9395728262        2.4600834628
	 H           1.2511410746       -2.6268471474        0.1813020850
	 C          -3.7415197364       -0.7483980520        1.1924170741
	 H          -5.3542793320       -0.5410436808        2.4652381396
	 H          -2.1566822299       -1.3513367244        2.3629966620
	 C           2.4683638805        0.8967798014        1.8491776384
	 H           4.2007194688        1.6394166061        2.7004129420
	 H           1.0744255332        0.8163004012        3.3698924673
	 C           1.5857973878        2.7529019480       -0.1808857185
	 H           3.1179742756        3.0517084963       -1.5332158750
	 H           1.2445937008        4.5881501734        0.7077628915
	 C          -0.7953387931        1.9895828637       -1.6321468773
	 H          -1.0943120488        3.4023160237       -3.1076416469
	 H          -0.4794740278        0.2065529563       -2.6252698735
	 C          -3.1959214230        1.8239014281       -0.0129056141
	 H          -3.0941276016        3.2685244741        1.4636694505
	 H          -4.8290011466        2.3130635686       -1.1823499573
	             0.0000000271       -0.0000000566        0.0000001996
	             0.0000003292        0.0000001401        0.0000001152
	            -0.0000001833        0.0000000599       -0.0000001695
	             0.0000000311       -0.0000003258        0.0000000162
	            -0.0000001376        0.0000001608        0.0000001652
	             0.0000002465        0.0000000561       -0.0000000781
	            -0.0000000541       -0.0000001104        0.0000001999
	            -0.0000001875        0.0000000529       -0.0000000848
	             0.0000003289        0.0000002071       -0.0000000715
	             0.0000002000       -0.0000000533        0.0000002382
	            -0.0000005870       -0.0000002979       -0.0000001412
	            -0.0000001540       -0.0000001182       -0.0000003383
	            -0.0000001487        0.0000000984       -0.0000000249
	             0.0000004901       -0.0000000653        0.0000003224
	            -0.0000001274       -0.0000001621       -0.0000005887
	             0.0000003547        0.0000000955        0.0000001319
	            -0.0000005655       -0.0000000168        0.0000004613
	             0.0000000479        0.0000000994        0.0000001052
	             0.0000002545        0.0000000854       -0.0000002542
	            -0.0000000051        0.0000001002        0.0000000365
	             0.0000000381       -0.0000000686       -0.0000004977
	            -0.0000000047       -0.0000001720        0.0000000072
	             0.0000001103        0.0000000188       -0.0000002072
	             0.0000000390        0.0000000261        0.0000003136
	            -0.0000000785        0.0000001787        0.0000002440
	            -0.0000002640        0.0000000676       -0.0000001003

	Previous optimization step data not found.  Starting new optimization.

	---Fragment 1 Intrafragment Coordinates---
	 - Coordinate -           - BOHR/RAD -       - ANG/DEG -
	 R(1,2)           =         2.062588	       1.091475
	 R(1,3)           =         2.059534	       1.089858
	 R(1,4)           =         2.059325	       1.089748
	 R(1,9)           =         2.881812	       1.524989
	 R(5,6)           =         2.059959	       1.090083
	 R(5,7)           =         2.059604	       1.089896
	 R(5,8)           =         2.062216	       1.091278
	 R(5,12)          =         2.881588	       1.524871
	 R(9,10)          =         2.064572	       1.092525
	 R(9,11)          =         2.063904	       1.092171
	 R(9,15)          =         2.887609	       1.528057
	 R(12,13)         =         2.064961	       1.092730
	 R(12,14)         =         2.060461	       1.090349
	 R(12,24)         =         2.892612	       1.530704
	 R(15,16)         =         2.068131	       1.094408
	 R(15,17)         =         2.064489	       1.092481
	 R(15,18)         =         2.888818	       1.528697
	 R(18,19)         =         2.065345	       1.092933
	 R(18,20)         =         2.067427	       1.094035
	 R(18,21)         =         2.891129	       1.529919
	 R(21,22)         =         2.064530	       1.092502
	 R(21,23)         =         2.065250	       1.092883
	 R(21,24)         =         2.900377	       1.534814
	 R(24,25)         =         2.068229	       1.094460
	 R(24,26)         =         2.067324	       1.093981
	 B(1,9,10)        =         1.907951	     109.317553
	 B(1,9,11)        =         1.908645	     109.357285
	 B(1,9,15)        =         1.973733	     113.086552
	 B(2,1,3)         =         1.880319	     107.734329
	 B(2,1,4)         =         1.883536	     107.918648
	 B(2,1,9)         =         1.933448	     110.778387
	 B(3,1,4)         =         1.878218	     107.613937
	 B(3,1,9)         =         1.946074	     111.501800
	 B(4,1,9)         =         1.939588	     111.130208
	 B(5,12,13)       =         1.898505	     108.776336
	 B(5,12,14)       =         1.914015	     109.664966
	 B(5,12,24)       =         1.971232	     112.943248
	 B(6,5,7)         =         1.876488	     107.514853
	 B(6,5,8)         =         1.878250	     107.615812
	 B(6,5,12)        =         1.951673	     111.822617
	 B(7,5,8)         =         1.883834	     107.935763
	 B(7,5,12)        =         1.940406	     111.177060
	 B(8,5,12)        =         1.930331	     110.599846
	 B(9,15,16)       =         1.893777	     108.505458
	 B(9,15,17)       =         1.912804	     109.595580
	 B(9,15,18)       =         1.996064	     114.366035
	 B(10,9,11)       =         1.852961	     106.166850
	 B(10,9,15)       =         1.896296	     108.649761
	 B(11,9,15)       =         1.920282	     110.024037
	 B(12,24,21)      =         2.025889	     116.074916
	 B(12,24,25)      =         1.910207	     109.446816
	 B(12,24,26)      =         1.872481	     107.285268
	 B(13,12,14)      =         1.854519	     106.256127
	 B(13,12,24)      =         1.891106	     108.352379
	 B(14,12,24)      =         1.930363	     110.601677
	 B(15,18,19)      =         1.903334	     109.053004
	 B(15,18,20)      =         1.895182	     108.585912
	 B(15,18,21)      =         2.020536	     115.768181
	 B(16,15,17)      =         1.850830	     106.044776
	 B(16,15,18)      =         1.890654	     108.326488
	 B(17,15,18)      =         1.913891	     109.657864
	 B(18,21,22)      =         1.872717	     107.298797
	 B(18,21,23)      =         1.921291	     110.081867
	 B(18,21,24)      =         2.000406	     114.614835
	 B(19,18,20)      =         1.849852	     105.988684
	 B(19,18,21)      =         1.897064	     108.693775
	 B(20,18,21)      =         1.890420	     108.313069
	 B(21,24,25)      =         1.894354	     108.538495
	 B(21,24,26)      =         1.901275	     108.935049
	 B(22,21,23)      =         1.843413	     105.619813
	 B(22,21,24)      =         1.894658	     108.555926
	 B(23,21,24)      =         1.923818	     110.226624
	 B(25,24,26)      =         1.851950	     106.108935
	 D(1,9,15,16)     =        -1.096876	     -62.846347
	 D(1,9,15,17)     =        -3.110537	    -178.220625
	 D(1,9,15,18)     =         1.015612	      58.190281
	 D(2,1,9,10)      =        -1.162051	     -66.580616
	 D(2,1,9,11)      =         3.099327	     177.578360
	 D(2,1,9,15)      =         0.953001	      54.602927
	 D(3,1,9,10)      =         3.027156	     173.443260
	 D(3,1,9,11)      =         1.005349	      57.602236
	 D(3,1,9,15)      =        -1.140978	     -65.373197
	 D(4,1,9,10)      =         0.931686	      53.381694
	 D(4,1,9,11)      =        -1.090121	     -62.459330
	 D(4,1,9,15)      =         3.046738	     174.565237
	 D(5,12,24,21)    =        -1.157007	     -66.291600
	 D(5,12,24,25)    =         2.975218	     170.467419
	 D(5,12,24,26)    =         0.973135	      55.756524
	 D(6,5,12,13)     =        -3.094872	    -177.323095
	 D(6,5,12,14)     =        -1.073515	     -61.507889
	 D(6,5,12,24)     =         1.088093	      62.343121
	 D(7,5,12,13)     =        -0.997247	     -57.138044
	 D(7,5,12,14)     =         1.024110	      58.677162
	 D(7,5,12,24)     =        -3.097468	    -177.471828
	 D(8,5,12,13)     =         1.095336	      62.758121
	 D(8,5,12,14)     =         3.116693	     178.573328
	 D(8,5,12,24)     =        -1.004885	     -57.575662
	 D(9,15,18,19)    =        -1.143226	     -65.502029
	 D(9,15,18,20)    =         3.131770	     179.437213
	 D(9,15,18,21)    =         1.001869	      57.402879
	 D(10,9,15,16)    =         1.024752	      58.713967
	 D(10,9,15,17)    =        -0.988909	     -56.660312
	 D(10,9,15,18)    =         3.137240	     179.750594
	 D(11,9,15,16)    =         3.046448	     174.548611
	 D(11,9,15,17)    =         1.032787	      59.174333
	 D(11,9,15,18)    =        -1.124250	     -64.414762
	 D(12,24,21,18)   =        -1.568208	     -89.851713
	 D(12,24,21,22)   =         2.621962	     150.227329
	 D(12,24,21,23)   =         0.610692	      34.990081
	 D(13,12,24,21)   =         3.021731	     173.132460
	 D(13,12,24,25)   =         0.870771	      49.891478
	 D(13,12,24,26)   =        -1.131312	     -64.819416
	 D(14,12,24,21)   =         0.995577	      57.042388
	 D(14,12,24,25)   =        -1.155383	     -66.198593
	 D(14,12,24,26)   =         3.125719	     179.090512
	 D(15,18,21,22)   =        -3.058729	    -175.252261
	 D(15,18,21,23)   =        -1.060952	     -60.788093
	 D(15,18,21,24)   =         1.119278	      64.129917
	 D(16,15,18,19)   =         0.970987	      55.633437
	 D(16,15,18,20)   =        -1.037202	     -59.427320
	 D(16,15,18,21)   =         3.116082	     178.538346
	 D(17,15,18,19)   =         2.983507	     170.942342
	 D(17,15,18,20)   =         0.975318	      55.881584
	 D(17,15,18,21)   =        -1.154583	     -66.152750
	 D(18,21,24,25)   =         0.591004	      33.862014
	 D(18,21,24,26)   =         2.600138	     148.976907
	 D(19,18,21,22)   =        -0.910333	     -52.158245
	 D(19,18,21,23)   =         1.087443	      62.305923
	 D(19,18,21,24)   =        -3.015511	    -172.776067
	 D(20,18,21,22)   =         1.092024	      62.568338
	 D(20,18,21,23)   =         3.089800	     177.032505
	 D(20,18,21,24)   =        -1.013155	     -58.049485
	 D(22,21,24,25)   =        -1.502012	     -86.058944
	 D(22,21,24,26)   =         0.507122	      29.055949
	 D(23,21,24,25)   =         2.769904	     158.703808
	 D(23,21,24,26)   =        -1.504147	     -86.181299
	 R(1,21)          =         6.951495	       3.678573
	 R(9,12)          =         6.821488	       3.609776
	 R(12,15)         =         6.457600	       3.417215

	Current energy   :      -314.9805975060

	Generating empirical Hessian (Schlegel '84) for each fragment.
	Taking RFO optimization step.
	Going to follow RFO solution 1.
	Using RFO vector 1.
	Norm of target step-size    0.00014
	Projected energy change by RFO approximation:        -0.0000000002

	Back-transformation to cartesian coordinates...
	Successfully converged to displaced geometry.

	--- Internal Coordinate Step in ANG or DEG, aJ/ANG or AJ/DEG ---
	 ---------------------------------------------------------------------------
	   Coordinate                Previous        Force       Change         New 
	   ----------                --------       ------       ------       ------
	    1 R(1,2)          =      1.091475    -0.000003    -0.000001     1.091474
	    2 R(1,3)          =      1.089858    -0.000002    -0.000000     1.089858
	    3 R(1,4)          =      1.089748    -0.000002    -0.000000     1.089747
	    4 R(1,9)          =      1.524989     0.000000    -0.000000     1.524989
	    5 R(5,6)          =      1.090083    -0.000002    -0.000000     1.090083
	    6 R(5,7)          =      1.089896    -0.000002    -0.000000     1.089895
	    7 R(5,8)          =      1.091278    -0.000002    -0.000000     1.091277
	    8 R(5,12)         =      1.524871     0.000001     0.000000     1.524871
	    9 R(9,10)         =      1.092525    -0.000002    -0.000000     1.092524
	   10 R(9,11)         =      1.092171    -0.000006    -0.000001     1.092170
	   11 R(9,15)         =      1.528057    -0.000000    -0.000000     1.528056
	   12 R(12,13)        =      1.092730    -0.000001    -0.000000     1.092730
	   13 R(12,14)        =      1.090349    -0.000005    -0.000001     1.090348
	   14 R(12,24)        =      1.530704    -0.000001    -0.000000     1.530704
	   15 R(15,16)        =      1.094408    -0.000003    -0.000001     1.094407
	   16 R(15,17)        =      1.092481    -0.000006    -0.000001     1.092479
	   17 R(15,18)        =      1.528697    -0.000001    -0.000000     1.528696
	   18 R(18,19)        =      1.092933    -0.000003    -0.000001     1.092933
	   19 R(18,20)        =      1.094035    -0.000001    -0.000000     1.094035
	   20 R(18,21)        =      1.529919    -0.000002    -0.000000     1.529919
	   21 R(21,22)        =      1.092502     0.000001     0.000000     1.092503
	   22 R(21,23)        =      1.092883    -0.000001    -0.000000     1.092883
	   23 R(21,24)        =      1.534814    -0.000005    -0.000001     1.534813
	   24 R(24,25)        =      1.094460    -0.000002    -0.000000     1.094459
	   25 R(24,26)        =      1.093981    -0.000002    -0.000000     1.093980
	   26 B(1,9,10)       =    109.317553    -0.000000     0.000066   109.317619
	   27 B(1,9,11)       =    109.357285    -0.000000    -0.000063   109.357222
	   28 B(1,9,15)       =    113.086552     0.000000     0.000005   113.086557
	   29 B(2,1,3)        =    107.734329    -0.000000    -0.000032   107.734297
	   30 B(2,1,4)        =    107.918648    -0.000000    -0.000010   107.918639
	   31 B(2,1,9)        =    110.778387    -0.000000    -0.000029   110.778358
	   32 B(3,1,4)        =    107.613937    -0.000000    -0.000013   107.613923
	   33 B(3,1,9)        =    111.501800     0.000000     0.000049   111.501849
	   34 B(4,1,9)        =    111.130208     0.000000     0.000032   111.130239
	   35 B(5,12,13)      =    108.776336     0.000000     0.000028   108.776364
	   36 B(5,12,14)      =    109.664966    -0.000000    -0.000045   109.664921
	   37 B(5,12,24)      =    112.943248    -0.000000     0.000004   112.943251
	   38 B(6,5,7)        =    107.514853    -0.000000    -0.000036   107.514817
	   39 B(6,5,8)        =    107.615812    -0.000000    -0.000025   107.615787
	   40 B(6,5,12)       =    111.822617     0.000000     0.000065   111.822681
	   41 B(7,5,8)        =    107.935763    -0.000000    -0.000018   107.935745
	   42 B(7,5,12)       =    111.177060     0.000000     0.000030   111.177089
	   43 B(8,5,12)       =    110.599846    -0.000000    -0.000020   110.599826
	   44 B(9,15,16)      =    108.505458     0.000000     0.000086   108.505544
	   45 B(9,15,17)      =    109.595580     0.000000     0.000001   109.595580
	   46 B(9,15,18)      =    114.366035    -0.000000    -0.000120   114.365915
	   47 B(10,9,11)      =    106.166850    -0.000000    -0.000029   106.166820
	   48 B(10,9,15)      =    108.649761     0.000000     0.000078   108.649839
	   49 B(11,9,15)      =    110.024037    -0.000000    -0.000057   110.023980
	   50 B(12,24,21)     =    116.074916    -0.000000     0.000023   116.074939
	   51 B(12,24,25)     =    109.446816     0.000000     0.000040   109.446856
	   52 B(12,24,26)     =    107.285268     0.000000     0.000023   107.285291
	   53 B(13,12,14)     =    106.256127    -0.000000    -0.000050   106.256078
	   54 B(13,12,24)     =    108.352379     0.000000     0.000036   108.352415
	   55 B(14,12,24)     =    110.601677     0.000000     0.000024   110.601701
	   56 B(15,18,19)     =    109.053004    -0.000000    -0.000114   109.052889
	   57 B(15,18,20)     =    108.585912     0.000000     0.000085   108.585997
	   58 B(15,18,21)     =    115.768181     0.000000     0.000060   115.768241
	   59 B(16,15,17)     =    106.044776    -0.000000    -0.000013   106.044763
	   60 B(16,15,18)     =    108.326488     0.000000     0.000037   108.326525
	   61 B(17,15,18)     =    109.657864     0.000000     0.000018   109.657882
	   62 B(18,21,22)     =    107.298797    -0.000000    -0.000035   107.298762
	   63 B(18,21,23)     =    110.081867    -0.000000    -0.000030   110.081837
	   64 B(18,21,24)     =    114.614835     0.000000     0.000140   114.614975
	   65 B(19,18,20)     =    105.988684     0.000000     0.000000   105.988684
	   66 B(19,18,21)     =    108.693775    -0.000000    -0.000100   108.693675
	   67 B(20,18,21)     =    108.313069    -0.000000     0.000066   108.313135
	   68 B(21,24,25)     =    108.538495    -0.000000    -0.000064   108.538430
	   69 B(21,24,26)     =    108.935049    -0.000000    -0.000043   108.935006
	   70 B(22,21,23)     =    105.619813     0.000000     0.000051   105.619864
	   71 B(22,21,24)     =    108.555926    -0.000000    -0.000018   108.555907
	   72 B(23,21,24)     =    110.226624    -0.000000    -0.000112   110.226512
	   73 B(25,24,26)     =    106.108935     0.000000     0.000022   106.108958
	   74 D(1,9,15,16)    =    -62.846347     0.000000     0.001119   -62.845227
	   75 D(1,9,15,17)    =   -178.220625     0.000000     0.001087  -178.219538
	   76 D(1,9,15,18)    =     58.190281     0.000000     0.001150    58.191430
	   77 D(2,1,9,10)     =    -66.580616    -0.000000     0.000393   -66.580223
	   78 D(2,1,9,11)     =    177.578360     0.000000     0.000427   177.578787
	   79 D(2,1,9,15)     =     54.602927     0.000000     0.000543    54.603470
	   80 D(3,1,9,10)     =    173.443260    -0.000000     0.000420   173.443680
	   81 D(3,1,9,11)     =     57.602236     0.000000     0.000454    57.602690
	   82 D(3,1,9,15)     =    -65.373197     0.000000     0.000570   -65.372627
	   83 D(4,1,9,10)     =     53.381694    -0.000000     0.000383    53.382076
	   84 D(4,1,9,11)     =    -62.459330     0.000000     0.000416   -62.458914
	   85 D(4,1,9,15)     =    174.565237     0.000000     0.000532   174.565769
	   86 D(5,12,24,21)   =    -66.291600     0.000000    -0.000132   -66.291732
	   87 D(5,12,24,25)   =    170.467419     0.000000    -0.000096   170.467323
	   88 D(5,12,24,26)   =     55.756524    -0.000000    -0.000154    55.756370
	   89 D(6,5,12,13)    =   -177.323095     0.000000     0.000289  -177.322807
	   90 D(6,5,12,14)    =    -61.507889    -0.000000     0.000220   -61.507668
	   91 D(6,5,12,24)    =     62.343121    -0.000000     0.000221    62.343342
	   92 D(7,5,12,13)    =    -57.138044     0.000000     0.000307   -57.137737
	   93 D(7,5,12,14)    =     58.677162    -0.000000     0.000239    58.677401
	   94 D(7,5,12,24)    =   -177.471828     0.000000     0.000239  -177.471589
	   95 D(8,5,12,13)    =     62.758121     0.000000     0.000291    62.758412
	   96 D(8,5,12,14)    =    178.573328    -0.000000     0.000222   178.573550
	   97 D(8,5,12,24)    =    -57.575662    -0.000000     0.000223   -57.575439
	   98 D(9,15,18,19)   =    -65.502029     0.000000    -0.001363   -65.503392
	   99 D(9,15,18,20)   =    179.437213     0.000000    -0.001349   179.435865
	  100 D(9,15,18,21)   =     57.402879    -0.000000    -0.001544    57.401336
	  101 D(10,9,15,16)   =     58.713967     0.000000     0.001261    58.715228
	  102 D(10,9,15,17)   =    -56.660312     0.000000     0.001229   -56.659083
	  103 D(10,9,15,18)   =    179.750594     0.000000     0.001292   179.751886
	  104 D(11,9,15,16)   =    174.548611     0.000000     0.001239   174.549850
	  105 D(11,9,15,17)   =     59.174333     0.000000     0.001207    59.175540
	  106 D(11,9,15,18)   =    -64.414762     0.000000     0.001269   -64.413492
	  107 D(12,24,21,18)  =    -89.851713     0.000000     0.000886   -89.850827
	  108 D(12,24,21,22)  =    150.227329     0.000000     0.000852   150.228182
	  109 D(12,24,21,23)  =     34.990081     0.000000     0.000863    34.990944
	  110 D(13,12,24,21)  =    173.132460    -0.000000    -0.000195   173.132265
	  111 D(13,12,24,25)  =     49.891478     0.000000    -0.000159    49.891320
	  112 D(13,12,24,26)  =    -64.819416    -0.000000    -0.000217   -64.819633
	  113 D(14,12,24,21)  =     57.042388    -0.000000    -0.000169    57.042219
	  114 D(14,12,24,25)  =    -66.198593     0.000000    -0.000133   -66.198726
	  115 D(14,12,24,26)  =    179.090512    -0.000000    -0.000192   179.090320
	  116 D(15,18,21,22)  =   -175.252261     0.000000     0.001692  -175.250569
	  117 D(15,18,21,23)  =    -60.788093     0.000000     0.001718   -60.786375
	  118 D(15,18,21,24)  =     64.129917     0.000000     0.001651    64.131568
	  119 D(16,15,18,19)  =     55.633437     0.000000    -0.001305    55.632132
	  120 D(16,15,18,20)  =    -59.427320     0.000000    -0.001291   -59.428611
	  121 D(16,15,18,21)  =    178.538346     0.000000    -0.001486   178.536860
	  122 D(17,15,18,19)  =    170.942342     0.000000    -0.001291   170.941051
	  123 D(17,15,18,20)  =     55.881584     0.000000    -0.001276    55.880308
	  124 D(17,15,18,21)  =    -66.152750    -0.000000    -0.001471   -66.154221
	  125 D(18,21,24,25)  =     33.862014     0.000000     0.000904    33.862918
	  126 D(18,21,24,26)  =    148.976907     0.000000     0.000873   148.977780
	  127 D(19,18,21,22)  =    -52.158245     0.000000     0.001504   -52.156741
	  128 D(19,18,21,23)  =     62.305923     0.000000     0.001530    62.307453
	  129 D(19,18,21,24)  =   -172.776067    -0.000000     0.001463  -172.774604
	  130 D(20,18,21,22)  =     62.568338    -0.000000     0.001487    62.569825
	  131 D(20,18,21,23)  =    177.032505     0.000000     0.001513   177.034019
	  132 D(20,18,21,24)  =    -58.049485    -0.000000     0.001446   -58.048038
	  133 D(22,21,24,25)  =    -86.058944     0.000000     0.000870   -86.058074
	  134 D(22,21,24,26)  =     29.055949    -0.000000     0.000839    29.056789
	  135 D(23,21,24,25)  =    158.703808     0.000000     0.000880   158.704688
	  136 D(23,21,24,26)  =    -86.181299    -0.000000     0.000849   -86.180449
	  137 R(1,21)         =      3.678573    -0.000002    -0.000008     3.678564
	  138 R(9,12)         =      3.609776    -0.000000     0.000001     3.609777
	  139 R(12,15)        =      3.417215     0.000002     0.000004     3.417219
	 ---------------------------------------------------------------------------

  ==> Convergence Check <==

  Measures of convergence in internal coordinates in au.
  Criteria marked as inactive (o), active & met (*), and active & unmet ( ).
  --------------------------------------------------------------------------------------------- ~
   Step     Total Energy     Delta E     MAX Force     RMS Force      MAX Disp      RMS Disp    ~
  --------------------------------------------------------------------------------------------- ~
    Convergence Criteria             o    2.00e-06 *    1.00e-06 *    6.00e-06 *    4.00e-06 *  ~
  --------------------------------------------------------------------------------------------- ~
      1    -314.98059751   -3.15e+02 o    7.33e-07 *    1.58e-07 *    3.00e-05      1.17e-05    ~
  ---------------------------------------------------------------------------------------------

	Writing optimization data to binary file.
	Structure for next step:
	Cartesian Geometry (in Angstrom)
	    C     2.6402399468  -0.9744445416  -0.6366396762
	    H     3.5603933951  -0.4882648992  -0.3076067964
	    H     2.2977754037  -0.4629121584  -1.5359968780
	    H     2.8833123990  -2.0001607521  -0.9129926796
	    C    -2.3004423074  -1.4773800150  -0.3952355961
	    H    -1.4610521710  -1.6609637967  -1.0660573869
	    H    -2.5443413236  -2.4217936294   0.0910440754
	    H    -3.1547406091  -1.1843094378  -1.0077471848
	    C     1.5851737673  -0.9369037761   0.4638229822
	    H     1.9148045974  -1.5555758056   1.3017952757
	    H     0.6620640452  -1.3900529421   0.0959110675
	    C    -1.9799331179  -0.3960213000   0.6310043101
	    H    -2.8333782213  -0.2862886347   1.3045390488
	    H    -1.1412803053  -0.7150657945   1.2504650745
	    C     1.3062063107   0.4745475922   0.9785448392
	    H     2.2229356792   0.8675258906   1.4289920873
	    H     0.5685761580   0.4319544826   1.7832800606
	    C     0.8391630248   1.4567765186  -0.0957035312
	    H     1.6499569808   1.6149184260  -0.8113195567
	    H     0.6585922372   2.4279386806   0.3745627548
	    C    -0.4208700672   1.0528415498  -0.8636915520
	    H    -0.5790685659   1.8004232262  -1.6444966461
	    H    -0.2537151908   0.1092990352  -1.3892206174
	    C    -1.6912158874   0.9651714762  -0.0068454270
	    H    -1.6373671815   1.7296480576   0.7745103881
	    H    -2.5553958633   1.2240064138  -0.6257077209
			--------------------------
			 OPTKING Finished Execution 
			--------------------------

    Structure for next step:
    Molecular point group: c1
    Full point group: C1

    Geometry (in Angstrom), charge = 0, multiplicity = 1:

    C            2.640240376830    -0.974444908689    -0.636639842340
    H            3.560393825154    -0.488265266361    -0.307606962570
    H            2.297775833681    -0.462912525506    -1.535997044197
    H            2.883312829043    -2.000161119271    -0.912992845743
    C           -2.300441877364    -1.477380382087    -0.395235762296
    H           -1.461051741016    -1.660964163804    -1.066057553111
    H           -2.544340893636    -2.421793996531     0.091043909202
    H           -3.154740179141    -1.184309804975    -1.007747350994
    C            1.585174197275    -0.936904143198     0.463822815998
    H            1.914805027365    -1.555576172744     1.301795109532
    H            0.662064475187    -1.390053309180     0.095910901328
    C           -1.979932687924    -0.396021667118     0.631004143920
    H           -2.833377791297    -0.286289001838     1.304538882581
    H           -1.141279875323    -0.715066161649     1.250464908337
    C            1.306206740728     0.474547225094     0.978544673010
    H            2.222936109235     0.867525523518     1.428991921128
    H            0.568576587991     0.431954115425     1.783279894400
    C            0.839163454849     1.456776151467    -0.095703697421
    H            1.649957410844     1.614918058844    -0.811319722895
    H            0.658592667218     2.427938313448     0.374562588602
    C           -0.420869637169     1.052841182692    -0.863691718153
    H           -0.579068135920     1.800422859069    -1.644496812317
    H           -0.253714760763     0.109298668081    -1.389220783616
    C           -1.691215457380     0.965171109096    -0.006845593154
    H           -1.637366751536     1.729647690455     0.774510221892
    H           -2.555395433288     1.224006046708    -0.625707887098

gradient() will perform analytic gradient computation.

*** tstart() called on wr34
*** at Wed Sep 21 05:05:32 2016


         ---------------------------------------------------------
                                   SCF
            by Justin Turney, Rob Parrish, and Andy Simmonett
                              RHF Reference
                       12 Threads,  60000 MiB Core
         ---------------------------------------------------------

  ==> Geometry <==

    Molecular point group: c1
    Full point group: C1

    Geometry (in Angstrom), charge = 0, multiplicity = 1:

       Center              X                  Y                   Z               Mass       
    ------------   -----------------  -----------------  -----------------  -----------------
           C          2.640240376830    -0.974444908689    -0.636639842340    12.000000000000
           H          3.560393825154    -0.488265266361    -0.307606962570     1.007825032070
           H          2.297775833681    -0.462912525506    -1.535997044197     1.007825032070
           H          2.883312829043    -2.000161119271    -0.912992845743     1.007825032070
           C         -2.300441877364    -1.477380382087    -0.395235762296    12.000000000000
           H         -1.461051741016    -1.660964163804    -1.066057553111     1.007825032070
           H         -2.544340893636    -2.421793996531     0.091043909202     1.007825032070
           H         -3.154740179141    -1.184309804975    -1.007747350994     1.007825032070
           C          1.585174197275    -0.936904143198     0.463822815998    12.000000000000
           H          1.914805027365    -1.555576172744     1.301795109532     1.007825032070
           H          0.662064475187    -1.390053309180     0.095910901328     1.007825032070
           C         -1.979932687924    -0.396021667118     0.631004143920    12.000000000000
           H         -2.833377791297    -0.286289001838     1.304538882581     1.007825032070
           H         -1.141279875323    -0.715066161649     1.250464908337     1.007825032070
           C          1.306206740728     0.474547225094     0.978544673010    12.000000000000
           H          2.222936109235     0.867525523518     1.428991921128     1.007825032070
           H          0.568576587991     0.431954115425     1.783279894400     1.007825032070
           C          0.839163454849     1.456776151467    -0.095703697421    12.000000000000
           H          1.649957410844     1.614918058844    -0.811319722895     1.007825032070
           H          0.658592667218     2.427938313448     0.374562588602     1.007825032070
           C         -0.420869637169     1.052841182692    -0.863691718153    12.000000000000
           H         -0.579068135920     1.800422859069    -1.644496812317     1.007825032070
           H         -0.253714760763     0.109298668081    -1.389220783616     1.007825032070
           C         -1.691215457380     0.965171109096    -0.006845593154    12.000000000000
           H         -1.637366751536     1.729647690455     0.774510221892     1.007825032070
           H         -2.555395433288     1.224006046708    -0.625707887098     1.007825032070

  Running in c1 symmetry.

  Rotational constants: A =      0.08583  B =      0.03981  C =      0.03330 [cm^-1]
  Rotational constants: A =   2573.11568  B =   1193.32974  C =    998.39487 [MHz]
  Nuclear repulsion =  410.955632161283120

  Charge       = 0
  Multiplicity = 1
  Electrons    = 66
  Nalpha       = 33
  Nbeta        = 33

  ==> Algorithm <==

  SCF Algorithm Type is DF.
  DIIS enabled.
  MOM disabled.
  Fractional occupation disabled.
  Guess Type is READ.
  Energy threshold   = 1.00e-10
  Density threshold  = 1.00e-10
  Integral threshold = 0.00e+00

  ==> Primary Basis <==

  Basis Set: AUG-CC-PVTZ
    Number of shells: 274
    Number of basis function: 782
    Number of Cartesian functions: 890
    Spherical Harmonics?: true
    Max angular momentum: 3

  ==> Pre-Iterations <==

   -------------------------------------------------------
    Irrep   Nso     Nmo     Nalpha   Nbeta   Ndocc  Nsocc
   -------------------------------------------------------
     A        782     782       0       0       0       0
   -------------------------------------------------------
    Total     782     782      33      33      33       0
   -------------------------------------------------------

  ==> Integral Setup <==

  ==> DFJK: Density-Fitted J/K Matrices <==

    J tasked:                  Yes
    K tasked:                  Yes
    wK tasked:                  No
    OpenMP threads:             12
    Integrals threads:          12
    Memory (MB):             42915
    Algorithm:                Core
    Integral Cache:           NONE
    Schwarz Cutoff:          1E-12
    Fitting Condition:       1E-12

   => Auxiliary Basis Set <=

  Basis Set: 
    Number of shells: 492
    Number of basis function: 1660
    Number of Cartesian functions: 2038
    Spherical Harmonics?: true
    Max angular momentum: 4

  Minimum eigenvalue in the overlap matrix is 1.4352606038E-06.
  Using Symmetric Orthogonalization.
  SCF Guess: Reading in previously saved MOs, projecting if necessary.

  Using orbitals from previous SCF, no projection.
  Recomputing DOCC and SOCC from number of alpha and beta electrons from previous calculation.
              A 
    DOCC [    33 ]

  ==> Iterations <==

                           Total Energy        Delta E     RMS |[F,P]|

   @DF-RHF iter   0:  -313.53414928284724   -3.13534e+02   8.66788e-08 
   @DF-RHF iter   1:  -313.53413814029511    1.11426e-05   1.66138e-08 
   @DF-RHF iter   2:  -313.53413814046417   -1.69052e-10   6.05795e-09 DIIS
   @DF-RHF iter   3:  -313.53413814048849   -2.43290e-11   2.58037e-09 DIIS
   @DF-RHF iter   4:  -313.53413814049145   -2.95586e-12   3.87692e-10 DIIS
   @DF-RHF iter   5:  -313.53413814049122    2.27374e-13   1.14077e-10 DIIS
   @DF-RHF iter   6:  -313.53413814048997    1.25056e-12   2.52784e-11 DIIS

  ==> Post-Iterations <==

    Orbital Energies (a.u.)
    -----------------------

    Doubly Occupied:                                                      

       1A    -11.212184     2A    -11.212101     3A    -11.211194  
       4A    -11.210392     5A    -11.209927     6A    -11.209429  
       7A    -11.207213     8A    -11.207126     9A     -1.095126  
      10A     -1.056698    11A     -1.006706    12A     -0.945485  
      13A     -0.893738    14A     -0.838081    15A     -0.785041  
      16A     -0.741859    17A     -0.648551    18A     -0.640998  
      19A     -0.605281    20A     -0.597897    21A     -0.577005  
      22A     -0.550912    23A     -0.548810    24A     -0.535885  
      25A     -0.512060    26A     -0.506520    27A     -0.494007  
      28A     -0.473282    29A     -0.465292    30A     -0.460572  
      31A     -0.440611    32A     -0.437469    33A     -0.433117  

    Virtual:                                                              

      34A      0.028710    35A      0.033098    36A      0.033924  
      37A      0.035056    38A      0.047463    39A      0.048849  
      40A      0.050010    41A      0.052638    42A      0.054642  
      43A      0.069464    44A      0.071230    45A      0.072512  
      46A      0.074268    47A      0.077760    48A      0.080207  
      49A      0.090760    50A      0.098598    51A      0.099837  
      52A      0.113998    53A      0.119481    54A      0.121472  
      55A      0.125699    56A      0.132198    57A      0.133621  
      58A      0.134846    59A      0.135950    60A      0.139595  
      61A      0.142491    62A      0.144940    63A      0.147722  
      64A      0.150822    65A      0.157872    66A      0.163031  
      67A      0.167298    68A      0.170436    69A      0.173626  
      70A      0.176774    71A      0.182266    72A      0.184996  
      73A      0.187440    74A      0.188110    75A      0.193077  
      76A      0.195030    77A      0.205196    78A      0.213437  
      79A      0.222694    80A      0.232505    81A      0.235744  
      82A      0.249431    83A      0.254418    84A      0.265272  
      85A      0.270863    86A      0.281100    87A      0.285833  
      88A      0.289858    89A      0.294572    90A      0.298731  
      91A      0.301195    92A      0.306804    93A      0.314683  
      94A      0.316410    95A      0.319437    96A      0.323536  
      97A      0.326035    98A      0.329520    99A      0.334558  
     100A      0.339113   101A      0.342899   102A      0.346344  
     103A      0.350134   104A      0.354003   105A      0.358221  
     106A      0.361903   107A      0.367388   108A      0.369717  
     109A      0.372191   110A      0.375835   111A      0.376798  
     112A      0.380608   113A      0.384120   114A      0.392452  
     115A      0.396889   116A      0.397522   117A      0.402409  
     118A      0.410726   119A      0.413085   120A      0.413903  
     121A      0.419992   122A      0.425082   123A      0.433990  
     124A      0.438503   125A      0.439546   126A      0.445625  
     127A      0.446737   128A      0.451790   129A      0.455809  
     130A      0.461413   131A      0.462915   132A      0.465573  
     133A      0.469110   134A      0.471077   135A      0.477184  
     136A      0.481119   137A      0.484403   138A      0.489446  
     139A      0.495177   140A      0.496252   141A      0.499090  
     142A      0.502657   143A      0.507665   144A      0.509173  
     145A      0.515906   146A      0.519916   147A      0.526077  
     148A      0.527848   149A      0.528959   150A      0.541768  
     151A      0.543202   152A      0.547197   153A      0.552657  
     154A      0.557103   155A      0.558373   156A      0.566378  
     157A      0.573225   158A      0.576263   159A      0.579297  
     160A      0.583961   161A      0.586869   162A      0.592535  
     163A      0.596105   164A      0.601596   165A      0.607629  
     166A      0.611226   167A      0.617945   168A      0.620971  
     169A      0.624797   170A      0.629437   171A      0.629662  
     172A      0.633686   173A      0.639028   174A      0.645363  
     175A      0.650217   176A      0.655348   177A      0.660022  
     178A      0.672086   179A      0.680592   180A      0.684085  
     181A      0.689322   182A      0.690754   183A      0.696191  
     184A      0.704193   185A      0.710489   186A      0.713033  
     187A      0.717280   188A      0.722705   189A      0.723850  
     190A      0.730815   191A      0.739489   192A      0.741868  
     193A      0.746395   194A      0.753506   195A      0.759005  
     196A      0.760903   197A      0.767463   198A      0.768806  
     199A      0.777664   200A      0.786924   201A      0.798964  
     202A      0.802981   203A      0.813406   204A      0.828888  
     205A      0.835053   206A      0.842360   207A      0.849114  
     208A      0.855377   209A      0.862436   210A      0.865339  
     211A      0.874524   212A      0.879413   213A      0.884493  
     214A      0.889142   215A      0.891030   216A      0.903909  
     217A      0.908431   218A      0.911972   219A      0.915920  
     220A      0.921104   221A      0.927061   222A      0.930283  
     223A      0.935298   224A      0.939037   225A      0.946732  
     226A      0.949599   227A      0.957046   228A      0.960546  
     229A      0.967678   230A      0.975852   231A      0.977677  
     232A      0.984035   233A      0.987262   234A      0.991816  
     235A      0.995425   236A      0.997856   237A      1.006402  
     238A      1.012300   239A      1.017399   240A      1.024541  
     241A      1.026898   242A      1.036416   243A      1.042925  
     244A      1.044826   245A      1.050306   246A      1.057699  
     247A      1.064105   248A      1.067137   249A      1.081960  
     250A      1.082973   251A      1.088630   252A      1.089936  
     253A      1.096422   254A      1.101824   255A      1.107407  
     256A      1.109844   257A      1.119184   258A      1.124668  
     259A      1.129290   260A      1.134242   261A      1.142518  
     262A      1.146182   263A      1.151036   264A      1.158054  
     265A      1.160864   266A      1.167670   267A      1.180151  
     268A      1.181771   269A      1.186810   270A      1.189640  
     271A      1.195583   272A      1.204290   273A      1.210567  
     274A      1.215632   275A      1.216720   276A      1.224344  
     277A      1.227599   278A      1.234409   279A      1.242164  
     280A      1.245162   281A      1.248961   282A      1.253032  
     283A      1.257861   284A      1.265971   285A      1.276037  
[...]
	 Skipping Hessian update for step 10.
	Denominators (dg)(dq) or (dq)(dq) are very small.
	 Skipping Hessian update for step 9.
	Denominators (dg)(dq) or (dq)(dq) are very small.
	 Skipping Hessian update for step 8.
	Denominators (dg)(dq) or (dq)(dq) are very small.
	 Skipping Hessian update for step 7.
	Denominators (dg)(dq) or (dq)(dq) are very small.
	 Skipping Hessian update for step 6.
	Denominators (dg)(dq) or (dq)(dq) are very small.
	 Skipping Hessian update for step 5.
	Denominators (dg)(dq) or (dq)(dq) are very small.
	 Skipping Hessian update for step 4.
	Denominators (dg)(dq) or (dq)(dq) are very small.
	 Skipping Hessian update for step 3.
	Denominators (dg)(dq) or (dq)(dq) are very small.
	 Skipping Hessian update for step 2.
	Steps to be used in Hessian update: 1
	Taking RFO optimization step.
	Going to follow RFO solution 1.
	Rejecting RFO root 1 because normalization gives large value.
	Using RFO vector 2.
	Norm of target step-size    0.00002
	Projected energy change by RFO approximation:         0.0000000000

	Back-transformation to cartesian coordinates...
	Successfully converged to displaced geometry.

	--- Internal Coordinate Step in ANG or DEG, aJ/ANG or AJ/DEG ---
	 ---------------------------------------------------------------------------
	   Coordinate                Previous        Force       Change         New 
	   ----------                --------       ------       ------       ------
	    1 R(1,2)          =      1.091474     0.000001     0.000000     1.091474
	    2 R(1,3)          =      1.089858     0.000002     0.000000     1.089858
	    3 R(1,4)          =      1.089747     0.000001     0.000000     1.089747
	    4 R(1,9)          =      1.524989     0.000001     0.000000     1.524989
	    5 R(5,6)          =      1.090083    -0.000003     0.000000     1.090083
	    6 R(5,7)          =      1.089895    -0.000003     0.000000     1.089895
	    7 R(5,8)          =      1.091277    -0.000003     0.000000     1.091278
	    8 R(5,12)         =      1.524870     0.000002     0.000000     1.524871
	    9 R(9,10)         =      1.092524     0.000001     0.000000     1.092524
	   10 R(9,11)         =      1.092169     0.000003     0.000001     1.092170
	   11 R(9,15)         =      1.528056     0.000000     0.000000     1.528056
	   12 R(12,13)        =      1.092730    -0.000004     0.000000     1.092730
	   13 R(12,14)        =      1.090349    -0.000008     0.000000     1.090349
	   14 R(12,24)        =      1.530704    -0.000003    -0.000000     1.530704
	   15 R(15,16)        =      1.094407     0.000001     0.000000     1.094408
	   16 R(15,17)        =      1.092480    -0.000001     0.000000     1.092480
	   17 R(15,18)        =      1.528696     0.000001     0.000000     1.528696
	   18 R(18,19)        =      1.092933    -0.000002    -0.000000     1.092933
	   19 R(18,20)        =      1.094035    -0.000001     0.000000     1.094035
	   20 R(18,21)        =      1.529919     0.000002     0.000000     1.529919
	   21 R(21,22)        =      1.092502     0.000000     0.000000     1.092502
	   22 R(21,23)        =      1.092883    -0.000002     0.000000     1.092883
	   23 R(21,24)        =      1.534813    -0.000005    -0.000000     1.534813
	   24 R(24,25)        =      1.094460    -0.000007    -0.000000     1.094460
	   25 R(24,26)        =      1.093982    -0.000009    -0.000001     1.093981
	   26 B(1,9,10)       =    109.317670     0.000000    -0.000033   109.317637
	   27 B(1,9,11)       =    109.357186     0.000000     0.000029   109.357215
	   28 B(1,9,15)       =    113.086489    -0.000000     0.000005   113.086493
	   29 B(2,1,3)        =    107.734324    -0.000000    -0.000003   107.734320
	   30 B(2,1,4)        =    107.918636     0.000000     0.000001   107.918637
	   31 B(2,1,9)        =    110.778368    -0.000000    -0.000001   110.778367
	   32 B(3,1,4)        =    107.613927    -0.000000     0.000005   107.613932
	   33 B(3,1,9)        =    111.501789     0.000000     0.000016   111.501806
	   34 B(4,1,9)        =    111.130263     0.000000    -0.000018   111.130244
	   35 B(5,12,13)      =    108.776298     0.000000     0.000013   108.776311
	   36 B(5,12,14)      =    109.664974    -0.000000    -0.000021   109.664953
	   37 B(5,12,24)      =    112.943193    -0.000000     0.000014   112.943207
	   38 B(6,5,7)        =    107.514850    -0.000000    -0.000006   107.514844
	   39 B(6,5,8)        =    107.615820    -0.000000    -0.000010   107.615810
	   40 B(6,5,12)       =    111.822642     0.000000     0.000002   111.822644
	   41 B(7,5,8)        =    107.935755    -0.000000    -0.000000   107.935755
	   42 B(7,5,12)       =    111.177074     0.000000     0.000004   111.177077
	   43 B(8,5,12)       =    110.599809    -0.000000     0.000010   110.599818
	   44 B(9,15,16)      =    108.505562    -0.000000    -0.000037   108.505524
	   45 B(9,15,17)      =    109.595554     0.000000     0.000016   109.595570
	   46 B(9,15,18)      =    114.365953    -0.000000     0.000029   114.365982
	   47 B(10,9,11)      =    106.166841    -0.000000     0.000005   106.166846
	   48 B(10,9,15)      =    108.649852     0.000000    -0.000025   108.649827
	   49 B(11,9,15)      =    110.024006     0.000000     0.000018   110.024024
	   50 B(12,24,21)     =    116.075068    -0.000000    -0.000057   116.075011
	   51 B(12,24,25)     =    109.446863     0.000000     0.000004   109.446867
	   52 B(12,24,26)     =    107.285163     0.000000     0.000032   107.285195
	   53 B(13,12,14)     =    106.256128    -0.000000     0.000001   106.256129
	   54 B(13,12,24)     =    108.352375     0.000000     0.000009   108.352385
	   55 B(14,12,24)     =    110.601765     0.000000    -0.000015   110.601750
	   56 B(15,18,19)     =    109.052941    -0.000000     0.000004   109.052945
	   57 B(15,18,20)     =    108.586003    -0.000000    -0.000034   108.585969
	   58 B(15,18,21)     =    115.768208     0.000000     0.000034   115.768241
	   59 B(16,15,17)     =    106.044774    -0.000000     0.000002   106.044776
	   60 B(16,15,18)     =    108.326461     0.000000    -0.000013   108.326448
	   61 B(17,15,18)     =    109.657903     0.000000     0.000001   109.657903
	   62 B(18,21,22)     =    107.298773    -0.000000    -0.000019   107.298754
	   63 B(18,21,23)     =    110.081849     0.000000     0.000042   110.081891
	   64 B(18,21,24)     =    114.614892    -0.000000    -0.000015   114.614877
	   65 B(19,18,20)     =    105.988679     0.000000     0.000002   105.988681
	   66 B(19,18,21)     =    108.693655    -0.000000     0.000031   108.693686
	   67 B(20,18,21)     =    108.313139    -0.000000    -0.000040   108.313099
	   68 B(21,24,25)     =    108.538414     0.000000     0.000017   108.538432
	   69 B(21,24,26)     =    108.935002     0.000000     0.000012   108.935014
	   70 B(22,21,23)     =    105.619861     0.000000    -0.000002   105.619859
	   71 B(22,21,24)     =    108.555823     0.000000     0.000026   108.555849
	   72 B(23,21,24)     =    110.226659    -0.000000    -0.000030   110.226629
	   73 B(25,24,26)     =    106.108959    -0.000000    -0.000005   106.108954
	   74 D(1,9,15,16)    =    -62.845841     0.000000    -0.000216   -62.846057
	   75 D(1,9,15,17)    =   -178.220160    -0.000000    -0.000207  -178.220367
	   76 D(1,9,15,18)    =     58.190773    -0.000000    -0.000241    58.190532
	   77 D(2,1,9,10)     =    -66.580915     0.000000     0.000128   -66.580787
	   78 D(2,1,9,11)     =    177.578061    -0.000000     0.000124   177.578185
	   79 D(2,1,9,15)     =     54.602785     0.000000     0.000076    54.602861
	   80 D(3,1,9,10)     =    173.442987     0.000000     0.000121   173.443109
	   81 D(3,1,9,11)     =     57.601963     0.000000     0.000118    57.602081
	   82 D(3,1,9,15)     =    -65.373313     0.000000     0.000070   -65.373243
	   83 D(4,1,9,10)     =     53.381403     0.000000     0.000116    53.381519
	   84 D(4,1,9,11)     =    -62.459621    -0.000000     0.000113   -62.459508
	   85 D(4,1,9,15)     =    174.565103     0.000000     0.000065   174.565167
	   86 D(5,12,24,21)   =    -66.292356     0.000000     0.000083   -66.292274
	   87 D(5,12,24,25)   =    170.466619     0.000000     0.000099   170.466717
	   88 D(5,12,24,26)   =     55.755729     0.000000     0.000085    55.755813
	   89 D(6,5,12,13)    =   -177.323230     0.000000    -0.000063  -177.323293
	   90 D(6,5,12,14)    =    -61.508040     0.000000    -0.000066   -61.508106
	   91 D(6,5,12,24)    =     62.343052    -0.000000    -0.000092    62.342960
	   92 D(7,5,12,13)    =    -57.138156     0.000000    -0.000066   -57.138222
	   93 D(7,5,12,14)    =     58.677035     0.000000    -0.000069    58.676965
	   94 D(7,5,12,24)    =   -177.471874    -0.000000    -0.000096  -177.471969
	   95 D(8,5,12,13)    =     62.757985     0.000000    -0.000058    62.757927
	   96 D(8,5,12,14)    =    178.573175     0.000000    -0.000061   178.573114
	   97 D(8,5,12,24)    =    -57.575733    -0.000000    -0.000087   -57.575820
	   98 D(9,15,18,19)   =    -65.502510     0.000000     0.000194   -65.502316
	   99 D(9,15,18,20)   =    179.436724     0.000000     0.000207   179.436931
	  100 D(9,15,18,21)   =     57.402208     0.000000     0.000262    57.402470
	  101 D(10,9,15,16)   =     58.714643    -0.000000    -0.000272    58.714371
	  102 D(10,9,15,17)   =    -56.659676    -0.000000    -0.000262   -56.659939
	  103 D(10,9,15,18)   =    179.751257    -0.000000    -0.000297   179.750960
	  104 D(11,9,15,16)   =    174.549312     0.000000    -0.000271   174.549042
	  105 D(11,9,15,17)   =     59.174993    -0.000000    -0.000261    59.174732
	  106 D(11,9,15,18)   =    -64.414074    -0.000000    -0.000295   -64.414369
	  107 D(12,24,21,18)  =    -89.851330    -0.000000     0.000038   -89.851291
	  108 D(12,24,21,22)  =    150.227780     0.000000     0.000054   150.227834
	  109 D(12,24,21,23)  =     34.990513     0.000000     0.000059    34.990572
	  110 D(13,12,24,21)  =    173.131788    -0.000000     0.000052   173.131840
	  111 D(13,12,24,25)  =     49.890763     0.000000     0.000068    49.890831
	  112 D(13,12,24,26)  =    -64.820127    -0.000000     0.000054   -64.820073
	  113 D(14,12,24,21)  =     57.041669    -0.000000     0.000053    57.041723
	  114 D(14,12,24,25)  =    -66.199356     0.000000     0.000069   -66.199286
	  115 D(14,12,24,26)  =    179.089754    -0.000000     0.000055   179.089810
	  116 D(15,18,21,22)  =   -175.251716     0.000000    -0.000125  -175.251842
	  117 D(15,18,21,23)  =    -60.787514     0.000000    -0.000117   -60.787631
	  118 D(15,18,21,24)  =     64.130572     0.000000    -0.000135    64.130437
	  119 D(16,15,18,19)  =     55.633016    -0.000000     0.000156    55.633171
	  120 D(16,15,18,20)  =    -59.427751     0.000000     0.000169   -59.427582
	  121 D(16,15,18,21)  =    178.537734     0.000000     0.000224   178.537958
	  122 D(17,15,18,19)  =    170.941924    -0.000000     0.000151   170.942075
	  123 D(17,15,18,20)  =     55.881157     0.000000     0.000165    55.881321
	  124 D(17,15,18,21)  =    -66.153359     0.000000     0.000220   -66.153139
	  125 D(18,21,24,25)  =     33.862505    -0.000000     0.000016    33.862521
	  126 D(18,21,24,26)  =    148.977358    -0.000000     0.000026   148.977384
	  127 D(19,18,21,22)  =    -52.157861     0.000000    -0.000071   -52.157932
	  128 D(19,18,21,23)  =     62.306342     0.000000    -0.000063    62.306279
	  129 D(19,18,21,24)  =   -172.775572     0.000000    -0.000080  -172.775653
	  130 D(20,18,21,22)  =     62.568691    -0.000000    -0.000074    62.568617
	  131 D(20,18,21,23)  =    177.032893     0.000000    -0.000066   177.032827
	  132 D(20,18,21,24)  =    -58.049021    -0.000000    -0.000083   -58.049104
	  133 D(22,21,24,25)  =    -86.058385    -0.000000     0.000032   -86.058353
	  134 D(22,21,24,26)  =     29.056468    -0.000000     0.000042    29.056510
	  135 D(23,21,24,25)  =    158.704348     0.000000     0.000036   158.704384
	  136 D(23,21,24,26)  =    -86.180799     0.000000     0.000046   -86.180753
	  137 R(1,21)         =      3.678566     0.000001     0.000002     3.678568
	  138 R(9,12)         =      3.609777     0.000001     0.000002     3.609779
	  139 R(12,15)        =      3.417218    -0.000002    -0.000002     3.417216
	 ---------------------------------------------------------------------------

  ==> Convergence Check <==

  Measures of convergence in internal coordinates in au.
  Criteria marked as inactive (o), active & met (*), and active & unmet ( ).
  ---------------------------------------------------------------------------------------------
   Step     Total Energy     Delta E     MAX Force     RMS Force      MAX Disp      RMS Disp   
  ---------------------------------------------------------------------------------------------
    Convergence Criteria             o    2.00e-06 *    1.00e-06 *    6.00e-06 *    4.00e-06 *
  ---------------------------------------------------------------------------------------------
     21    -314.98059751   -8.54e-10 o    1.14e-06 *    2.19e-07 *    5.18e-06 *    1.76e-06 *  ~
  ---------------------------------------------------------------------------------------------


  **** Optimization is complete! (in 21 steps) ****

  ==> Optimization Summary <==

  Measures of convergence in internal coordinates in au.
  --------------------------------------------------------------------------------------------------------------- ~
   Step         Total Energy             Delta E       MAX Force       RMS Force        MAX Disp        RMS Disp  ~
  --------------------------------------------------------------------------------------------------------------- ~
      1    -314.980597506044   -314.980597506044      0.00000073      0.00000016      0.00002999      0.00001175  ~
      2    -314.980597510648     -0.000000004604      0.00000206      0.00000039      0.00011815      0.00004557  ~
      3    -314.980597504128      0.000000006520      0.00000418      0.00000094      0.00012297      0.00005248  ~
      4    -314.980597501306      0.000000002822      0.00000098      0.00000022      0.00001410      0.00000535  ~
      5    -314.980597504043     -0.000000002738      0.00000045      0.00000011      0.00001868      0.00000682  ~
      6    -314.980597505556     -0.000000001512      0.00000094      0.00000021      0.00002668      0.00000765  ~
      7    -314.980597501924      0.000000003632      0.00000115      0.00000027      0.00001726      0.00000645  ~
      8    -314.980597500821      0.000000001102      0.00000093      0.00000025      0.00002893      0.00001246  ~
      9    -314.980597503599     -0.000000002777      0.00000189      0.00000032      0.00028939      0.00008287  ~
     10    -314.980597499588      0.000000004011      0.00001203      0.00000257      0.00029129      0.00008414  ~
     11    -314.980597501910     -0.000000002322      0.00000184      0.00000028      0.00009131      0.00002463  ~
     12    -314.980597506739     -0.000000004829      0.00000376      0.00000088      0.00009242      0.00002403  ~
     13    -314.980597505133      0.000000001606      0.00000049      0.00000010      0.00002517      0.00000572  ~
     14    -314.980597506033     -0.000000000900      0.00000136      0.00000028      0.00002374      0.00000637  ~
     15    -314.980597504169      0.000000001864      0.00000195      0.00000040      0.00003050      0.00000944  ~
     16    -314.980597503459      0.000000000710      0.00000146      0.00000024      0.00015325      0.00005509  ~
     17    -314.980597504115     -0.000000000657      0.00000730      0.00000143      0.00013729      0.00004931  ~
     18    -314.980597505425     -0.000000001310      0.00000317      0.00000069      0.00002215      0.00000950  ~
     19    -314.980597505749     -0.000000000323      0.00000177      0.00000030      0.00003189      0.00001443  ~
     20    -314.980597504720      0.000000001028      0.00000214      0.00000040      0.00000633      0.00000223  ~
     21    -314.980597505574     -0.000000000854      0.00000114      0.00000022      0.00000518      0.00000176  ~
  --------------------------------------------------------------------------------------------------------------- ~

	Writing optimization data to binary file.
	Final energy is   -314.9805975055736
	Final (previous) structure:
	Cartesian Geometry (in Angstrom)
	    C     2.6402457106  -0.9744405354  -0.6366306632
	    H     3.5603918002  -0.4882403937  -0.3076078091
	    H     2.2977695967  -0.4629279776  -1.5359941440
	    H     2.8833346720  -2.0001565020  -0.9129686272
	    C    -2.3004659288  -1.4773748505  -0.3952471734
	    H    -1.4610904987  -1.6609543012  -1.0660886041
	    H    -2.5443609367  -2.4217933777   0.0910248504
	    H    -3.1547751350  -1.1842901248  -1.0077367512
	    C     1.5851817032  -0.9369002355   0.4638337789
	    H     1.9148183725  -1.5555630898   1.3018101154
	    H     0.6620755071  -1.3900588297   0.0959265308
	    C    -1.9799285238  -0.3960325789   0.6310006333
	    H    -2.8333627262  -0.2862992501   1.3045495226
	    H    -1.1412687351  -0.7150930856   1.2504446969
	    C     1.3062052104   0.4745526159   0.9785443751
	    H     2.2229295917   0.8675374745   1.4289962755
	    H     0.5685686643   0.4319613337   1.7832743504
	    C     0.8391674703   1.4567740100  -0.0957131671
	    H     1.6499612353   1.6149032242  -0.8113330685
	    H     0.6586042584   2.4279426031   0.3745436624
	    C    -0.4208695953   1.0528398553  -0.8636944209
	    H    -0.5790761147   1.8004254218  -1.6444937416
	    H    -0.2537158648   0.1093010875  -1.3892302214
	    C    -1.6912091096   0.9651648262  -0.0068382499
	    H    -1.6373516836   1.7296345947   0.7745249471
	    H    -2.5553945569   1.2240083325  -0.6256917200
	Saving final (previous) structure.
			--------------------------
			 OPTKING Finished Execution 
			--------------------------

    Final optimized geometry and variables:
    Molecular point group: c1
    Full point group: C1

    Geometry (in Angstrom), charge = 0, multiplicity = 1:

    C            2.640245710603    -0.974440535444    -0.636630663174
    H            3.560391800164    -0.488240393747    -0.307607809075
    H            2.297769596668    -0.462927977580    -1.535994143960
    H            2.883334672026    -2.000156502029    -0.912968627242
    C           -2.300465928838    -1.477374850542    -0.395247173410
    H           -1.461090498694    -1.660954301246    -1.066088604094
    H           -2.544360936696    -2.421793377652     0.091024850380
    H           -3.154775134997    -1.184290124761    -1.007736751152
    C            1.585181703193    -0.936900235477     0.463833778869
    H            1.914818372489    -1.555563089817     1.301810115392
    H            0.662075507115    -1.390058829720     0.095926530774
    C           -1.979928523757    -0.396032578873     0.631000633337
    H           -2.833362726208    -0.286299250069     1.304549522552
    H           -1.141268735138    -0.715093085617     1.250444696898
    C            1.306205210434     0.474552615932     0.978544375117
    H            2.222929591726     0.867537474460     1.428996275544
    H            0.568568664272     0.431961333673     1.783274350388
    C            0.839167470314     1.456774009979    -0.095713167106
    H            1.649961235335     1.614903224169    -0.811333068470
    H            0.658604258440     2.427942603097     0.374543662360
    C           -0.420869595260     1.052839855329    -0.863694420932
    H           -0.579076114681     1.800425421808    -1.644493741628
    H           -0.253715864774     0.109301087539    -1.389230221352
    C           -1.691209109555     0.965164826184    -0.006838249914
    H           -1.637351683577     1.729634594686     0.774524947145
    H           -2.555394556875     1.224008332479    -0.625691719985

	Cleaning optimization helper files.

*** Psi4 exiting successfully. Buy a developer a beer!
